 Gaussian 16, Revision C.01,
 Gaussian 16:  ES64L-G16RevC.01  3-Jul-2019

 ----------------------------------------------------------------------
 #p opt=(calcfc,ts) freq td wb97xd/cc-pvdz scrf=(solvent=carbontetrachl
 oride) int=ultrafine
 ----------------------------------------------------------------------

 ------------------------------------------
 Opt and Freq of TS excited HBT WB97XD pVDZ
 ------------------------------------------
 Symbolic Z-matrix:
 Charge =  0 Multiplicity = 1

 SCF Done:  E(RwB97XD) =  -1028.81371230     A.U. after   15 cycles
 Total Energy, E(TD-HF/TD-DFT) =  -1028.69055251
 SCF Done:  E(RwB97XD) =  -1028.81437931     A.U. after   12 cycles
 Total Energy, E(TD-HF/TD-DFT) =  -1028.69198502
 SCF Done:  E(RwB97XD) =  -1028.81436513     A.U. after    9 cycles
 Total Energy, E(TD-HF/TD-DFT) =  -1028.69198635
 Optimization completed.
    -- Stationary point found.
 Normal termination of Gaussian 16 at Mon Jul 13 12:28:48 2020.

 ----------------------------------------------------------------------
 #P Geom=AllCheck Guess=TCheck SCRF=Check GenChk RwB97XD TD(FC,Read)/CC
 -pVDZ Freq
 ----------------------------------------------------------------------

 Structure from the checkpoint file:  "HBT_ts_tdwb97xd_pvtz_optfreq.chk"
 ------------------------------------------
 Opt and Freq of TS excited HBT WB97XD pVDZ
 ------------------------------------------
 Charge =  0 Multiplicity = 1

                         Standard orientation:
 ---------------------------------------------------------------------
 Center     Atomic      Atomic             Coordinates (Angstroms)
 Number     Number       Type             X           Y           Z
 ---------------------------------------------------------------------
      1          6           0        3.482317   -1.146722   -0.000153
      2          6           0        2.149219   -0.746472   -0.000104
      3          6           0        1.784756    0.630967   -0.000030
      4          6           0        2.800755    1.610926   -0.000006
      5          6           0        4.123802    1.200408   -0.000054
      6          6           0        4.470171   -0.162857   -0.000126
      7          1           0        3.747482   -2.204614   -0.000208
      8          1           0        2.530381    2.667315    0.000050
      9          1           0        4.915543    1.951713   -0.000035
     10          1           0        5.520961   -0.455323   -0.000163
     11          7           0        0.451215    0.850630    0.000009
     12         16           0        0.712568   -1.756089   -0.000121
     13          6           0       -1.698352   -0.249590    0.000028
     14          6           0       -2.540896   -1.374351   -0.000010
     15          6           0       -2.335193    1.086742    0.000135
     16          6           0       -3.932426   -1.225854    0.000051
     17          1           0       -2.104998   -2.374998   -0.000089
     18          6           0       -3.743850    1.189795    0.000193
     19          6           0       -4.538472    0.046339    0.000152
     20          1           0       -4.559210   -2.119118    0.000019
     21          1           0       -4.172397    2.192577    0.000273
     22          1           0       -5.625210    0.132426    0.000199
     23          6           0       -0.282122   -0.294211   -0.000025
     24          8           0       -1.594859    2.147821    0.000178
     25          1           0       -0.491522    1.779751    0.000108
 ---------------------------------------------------------------------

 SCF Done:  E(RwB97XD) =  -1028.81436513     A.U. after    1 cycles

 Excitation energies and oscillator strengths:

 Excited State   1:      Singlet-A      3.3301 eV  372.31 nm  f=0.5318  <S**2>=0.000
      59 -> 60         0.69258
 This state for optimization and/or second-order correction.
 Total Energy, E(TD-HF/TD-DFT) =  -1028.69198637
 Copying the excited state density for this state as the 1-particle RhoCI density.

 Excited State   2:      Singlet-A      4.3830 eV  282.87 nm  f=0.3442  <S**2>=0.000
      57 -> 60         0.14056
      58 -> 60         0.66027
      59 -> 64        -0.10387

 Excited State   3:      Singlet-A      4.7233 eV  262.49 nm  f=0.0498  <S**2>=0.000
      55 -> 61        -0.11022
      57 -> 60         0.57936
      57 -> 62        -0.15349
      58 -> 60        -0.14232
      58 -> 61        -0.19095
      59 -> 61        -0.23370

 The electronic state is 1-A.
 Alpha  occ. eigenvalues --  -89.09595 -19.25611 -14.48497 -10.40502 -10.37412
 Alpha  occ. eigenvalues --  -10.35889 -10.35283 -10.32592 -10.32051 -10.31965
 Alpha  occ. eigenvalues --  -10.31911 -10.31766 -10.31720 -10.31617 -10.30000
 Alpha  occ. eigenvalues --  -10.29692  -8.11566  -6.06422  -6.06072  -6.05614
 Alpha  occ. eigenvalues --   -1.14725  -1.09274  -0.97106  -0.95507  -0.92354
 Alpha  occ. eigenvalues --   -0.88907  -0.85452  -0.83941  -0.82318  -0.75898
 Alpha  occ. eigenvalues --   -0.71265  -0.70672  -0.68750  -0.68122  -0.63519
 Alpha  occ. eigenvalues --   -0.60769  -0.59145  -0.58091  -0.55547  -0.54452
 Alpha  occ. eigenvalues --   -0.54334  -0.53325  -0.52770  -0.51045  -0.49852
 Alpha  occ. eigenvalues --   -0.49781  -0.47208  -0.46258  -0.45579  -0.44921
 Alpha  occ. eigenvalues --   -0.44069  -0.42894  -0.42337  -0.40508  -0.36552
 Alpha  occ. eigenvalues --   -0.35698  -0.32607  -0.31216  -0.27638
 Alpha virt. eigenvalues --   -0.01758   0.04647   0.06717   0.07099   0.07836
 Alpha virt. eigenvalues --    0.10749   0.13851   0.15007   0.16252   0.17865
 Alpha virt. eigenvalues --    0.18749   0.20872   0.21609   0.22256   0.22557

 Mulliken charges:
               1
     1  C    0.015992
     2  C   -0.231887
     3  C    0.262740
     4  C   -0.015912
     5  C    0.008950
     6  C   -0.002970
     7  H    0.020591
     8  H    0.022975
     9  H    0.021936
    10  H    0.022581
    11  N   -0.324311
    12  S    0.175940
    13  C   -0.104967
    14  C   -0.021701
    15  C    0.116057
    16  C   -0.023863
    17  H    0.010154
    18  C   -0.006689
    19  C    0.027515
    20  H    0.007768
    21  H    0.012969
    22  H    0.020201
    23  C    0.077147
    24  O   -0.308805
    25  H    0.217588
 Sum of Mulliken charges =  -0.00000

 Dipole moment (field-independent basis, Debye):
    X=              2.4814    Y=             -2.1381    Z=             -0.0002  Tot=              3.2755
 Quadrupole moment (field-independent basis, Debye-Ang):
   XX=            -80.1106   YY=            -94.0181   ZZ=           -104.2945
   XY=              3.8065   XZ=             -0.0005   YZ=              0.0004

  Exact polarizability:     506.655      17.461     199.089      -0.012       0.007      63.312
 Approx polarizability:     303.419       6.989     232.935      -0.006       0.008      82.328

 ******    1 imaginary frequencies (negative Signs) ******

                      1                      2                      3
                      A                      A                      A
 Frequencies --   -911.9092                42.0625                50.1462
 Red. masses --      1.1181                 5.7583                 6.9799
 Frc consts  --      0.5478                 0.0060                 0.0103
 IR Inten    --    980.3005                 0.7528                 0.8286

                      4                      5                      6
                      A                      A                      A
 Frequencies --    105.9550               141.3123               176.9668
 Red. masses --      4.9707                 5.7072                 5.9176
 Frc consts  --      0.0329                 0.0671                 0.1092
 IR Inten    --      0.0111                 5.4853                 0.7203

                      7                      8                      9
                      A                      A                      A
 Frequencies --    221.3403               270.2866               272.9733
 Red. masses --      5.3552                 4.7276                 7.4232
 Frc consts  --      0.1546                 0.2035                 0.3259
 IR Inten    --      0.0529                 0.1265                14.6154

                     10                     11                     12
                      A                      A                      A
 Frequencies --    373.6279               383.0487               411.9393
 Red. masses --      4.8355                 5.9732                11.4207
 Frc consts  --      0.3977                 0.5164                 1.1418
 IR Inten    --      0.3335                 2.4817                 5.6605

                     13                     14                     15
                      A                      A                      A
 Frequencies --    438.7102               476.7094               496.2836
 Red. masses --      3.2115                 4.7809                 3.1734
 Frc consts  --      0.3642                 0.6401                 0.4605
 IR Inten    --      4.6802                 0.0488                 0.3016

                     16                     17                     18
                      A                      A                      A
 Frequencies --    506.1993               539.0764               558.3141
 Red. masses --      8.8398                 8.3265                 3.8829
 Frc consts  --      1.3345                 1.4257                 0.7131
 IR Inten    --      0.7924                 9.9737                 0.2180

                     19                     20                     21
                      A                      A                      A
 Frequencies --    578.4707               619.6048               690.1282
 Red. masses --      7.5495                 7.1908                 6.7965
 Frc consts  --      1.4884                 1.6265                 1.9072
 IR Inten    --      0.8668                 5.9589               113.4962

                     22                     23                     24
                      A                      A                      A
 Frequencies --    696.8419               724.4175               741.8557
 Red. masses --      1.6138                 6.2604                 2.0996
 Frc consts  --      0.4617                 1.9357                 0.6808
 IR Inten    --     43.5204                87.0183                22.3068

                     25                     26                     27
                      A                      A                      A
 Frequencies --    745.2079               759.5609               768.4103
 Red. masses --      9.4749                 1.9234                 1.8659
 Frc consts  --      3.1001                 0.6538                 0.6491
 IR Inten    --     22.6437                23.4001                61.6241

                     28                     29                     30
                      A                      A                      A
 Frequencies --    817.0215               823.8012               863.4234
 Red. masses --      1.6858                 6.2629                 1.4054
 Frc consts  --      0.6630                 2.5042                 0.6173
 IR Inten    --      0.0025                 4.5223                 0.9752

                     31                     32                     33
                      A                      A                      A
 Frequencies --    905.4843               915.2873               954.4017
 Red. masses --      1.3712                 6.7657                 1.3462
 Frc consts  --      0.6624                 3.3395                 0.7225
 IR Inten    --      4.9230                17.4414                 1.8637

                     34                     35                     36
                      A                      A                      A
 Frequencies --    957.2800               988.5372              1000.9765
 Red. masses --      1.3826                 7.4502                 1.2979
 Frc consts  --      0.7465                 4.2894                 0.7662
 IR Inten    --      0.4060                 8.1857                 0.0004

                     37                     38                     39
                      A                      A                      A
 Frequencies --   1039.1064              1048.3608              1086.3046
 Red. masses --      2.1439                 2.0432                 4.4718
 Frc consts  --      1.3639                 1.3231                 3.1091
 IR Inten    --      0.5272                 2.3377                64.0268

                     40                     41                     42
                      A                      A                      A
 Frequencies --   1131.4110              1150.5790              1170.8282
 Red. masses --      1.4359                 1.3388                 1.1568
 Frc consts  --      1.0830                 1.0442                 0.9343
 IR Inten    --     43.6585                17.7407                84.5773

                     43                     44                     45
                      A                      A                      A
 Frequencies --   1178.4489              1226.4458              1252.3958
 Red. masses --      1.1639                 1.0523                 1.8219
 Frc consts  --      0.9523                 0.9326                 1.6836
 IR Inten    --     32.4477                64.7755               102.4554

                     46                     47                     48
                      A                      A                      A
 Frequencies --   1263.3748              1294.2715              1358.5226
 Red. masses --      2.8840                 2.1232                 3.6718
 Frc consts  --      2.7121                 2.0955                 3.9927
 IR Inten    --     32.7650                13.8642               167.6955

                     49                     50                     51
                      A                      A                      A
 Frequencies --   1370.6507              1393.9050              1404.5588
 Red. masses --      5.7517                 2.6493                 2.3409
 Frc consts  --      6.3664                 3.0328                 2.7209
 IR Inten    --    267.8993                26.7232                 7.0855

                     52                     53                     54
                      A                      A                      A
 Frequencies --   1445.9769              1478.8265              1513.3397
 Red. masses --      3.0925                 3.3077                 4.7653
 Frc consts  --      3.8096                 4.2619                 6.4300
 IR Inten    --    332.5504               119.2458               227.0343

                     55                     56                     57
                      A                      A                      A
 Frequencies --   1523.7402              1542.8640              1565.7074
 Red. masses --      4.6485                 4.8705                 4.6904
 Frc consts  --      6.3589                 6.8309                 6.7745
 IR Inten    --    165.1552                82.1769               390.0867

                     58                     59                     60
                      A                      A                      A
 Frequencies --   1620.5307              1645.3723              1655.0558
 Red. masses --      6.0681                 6.1351                 6.3215
 Frc consts  --      9.3889                 9.7860                10.2023
 IR Inten    --    131.0245              1048.5147                32.6507

                     61                     62                     63
                      A                      A                      A
 Frequencies --   1832.5712              3204.7946              3209.7003
 Red. masses --      1.0901                 1.0874                 1.0858
 Frc consts  --      2.1569                 6.5800                 6.5909
 IR Inten    --     67.2202                14.0183                 5.5936

                     64                     65                     66
                      A                      A                      A
 Frequencies --   3217.8189              3219.4107              3225.9025
 Red. masses --      1.0888                 1.0900                 1.0931
 Frc consts  --      6.6421                 6.6564                 6.7019
 IR Inten    --      2.7170                 3.3685                16.6183

                     67                     68                     69
                      A                      A                      A
 Frequencies --   3230.0167              3237.1435              3238.8658
 Red. masses --      1.0955                 1.0994                 1.0984
 Frc consts  --      6.7339                 6.7878                 6.7889
 IR Inten    --     11.3834                33.0214                14.6512

 - Thermochemistry -
 -------------------
 Temperature   298.150 Kelvin.  Pressure   1.00000 Atm.
 Atom     1 has atomic number  6 and mass  12.00000

 Molecular mass:   227.04049 amu.
 Principal axes and moments of inertia in atomic units:
                           1         2         3
     Eigenvalues --  1308.761996310.715657619.47764
           X            0.99998   0.00666   0.00003
           Y           -0.00666   0.99998  -0.00006
           Z           -0.00003   0.00006   1.00000
 This molecule is an asymmetric top.
 Rotational symmetry number  1.
 Warning -- assumption of classical behavior for rotation
           may cause significant error
 Rotational temperatures (Kelvin)      0.06618     0.01372     0.01137
 Rotational constants (GHZ):           1.37897     0.28598     0.23686
    1 imaginary frequencies ignored.
 Zero-point vibrational energy     478461.2 (Joules/Mol)
                                  114.35497 (Kcal/Mol)
 Warning -- explicit consideration of  19 degrees of freedom as
           vibrations may cause significant error
 Vibrational temperatures:     60.52    72.15   152.45   203.32   254.62
          (Kelvin)            318.46   388.88   392.75   537.57   551.12
                              592.69   631.21   685.88   714.04   728.31
                              775.61   803.29   832.29   891.47   992.94
                             1002.60  1042.28  1067.36  1072.19  1092.84
                             1105.57  1175.51  1185.27  1242.27  1302.79
                             1316.89  1373.17  1377.31  1422.28  1440.18
                             1495.04  1508.36  1562.95  1627.85  1655.43
                             1684.56  1695.53  1764.58  1801.92  1817.71
                             1862.17  1954.61  1972.06  2005.52  2020.85
                             2080.44  2127.70  2177.36  2192.32  2219.84
                             2252.70  2331.58  2367.32  2381.26  2636.66
                             4610.98  4618.04  4629.72  4632.01  4641.35
                             4647.27  4657.53  4660.01

 Zero-point correction=                           0.182236 (Hartree/Particle)
 Thermal correction to Energy=                    0.194271
 Thermal correction to Enthalpy=                  0.195216
 Thermal correction to Gibbs Free Energy=         0.142967
 Sum of electronic and zero-point Energies=          -1028.509750
 Sum of electronic and thermal Energies=             -1028.497715
 Sum of electronic and thermal Enthalpies=           -1028.496771
 Sum of electronic and thermal Free Energies=        -1028.549020

                     E (Thermal)             CV                S
                      KCal/Mol        Cal/Mol-Kelvin    Cal/Mol-Kelvin
 Total                  121.907             48.306            109.967
 Electronic               0.000              0.000              0.000
 Translational            0.889              2.981             42.162
 Rotational               0.889              2.981             32.509
 Vibrational            120.130             42.344             35.296
 Vibration     1          0.595              1.980              5.160
 Vibration     2          0.595              1.978              4.812
 Vibration     3          0.605              1.944              3.342
 Vibration     4          0.615              1.912              2.786
 Vibration     5          0.628              1.871              2.360
 Vibration     6          0.648              1.809              1.948
 Vibration     7          0.674              1.728              1.594
 Vibration     8          0.676              1.723              1.577
 Vibration     9          0.745              1.526              1.065
 Vibration    10          0.752              1.506              1.027
 Vibration    11          0.776              1.444              0.920
 Vibration    12          0.799              1.386              0.831
 Vibration    13          0.833              1.302              0.719
 Vibration    14          0.852              1.258              0.667
 Vibration    15          0.861              1.236              0.643
 Vibration    16          0.894              1.164              0.567
 Vibration    17          0.914              1.122              0.527
 Vibration    18          0.935              1.078              0.488
 Vibration    19          0.980              0.991              0.417

 Optimization completed.
    -- Stationary point found.
 Normal termination of Gaussian 16 at Mon Jul 13 12:44:38 2020.
