 Gaussian 16, Revision C.01,
 Gaussian 16:  ES64L-G16RevC.01  3-Jul-2019

 ----------------------------------------------------------------------
 #p opt=addgic freq td wb97xd/cc-pvdz nosymm int=ultrafine scrf=(solven
 t=CarbonTetraChloride)
 ----------------------------------------------------------------------

 ------------------------------------------------
 NM 2D-scan of HBT TD-WB97XD pVDZ in CTC Relaxed.
 ------------------------------------------------
 Symbolic Z-matrix:
 Charge =  0 Multiplicity = 1

 SCF Done:  E(RwB97XD) =  -1028.81618458     A.U. after   15 cycles
 Total Energy, E(TD-HF/TD-DFT) =  -1028.69071865
 SCF Done:  E(RwB97XD) =  -1028.81623856     A.U. after   10 cycles
 Total Energy, E(TD-HF/TD-DFT) =  -1028.69075228
 SCF Done:  E(RwB97XD) =  -1028.81638830     A.U. after   10 cycles
 Total Energy, E(TD-HF/TD-DFT) =  -1028.69076799
 SCF Done:  E(RwB97XD) =  -1028.81625656     A.U. after   10 cycles
 Total Energy, E(TD-HF/TD-DFT) =  -1028.69078731
 SCF Done:  E(RwB97XD) =  -1028.81619980     A.U. after    9 cycles
 Total Energy, E(TD-HF/TD-DFT) =  -1028.69078829
 SCF Done:  E(RwB97XD) =  -1028.81618113     A.U. after    8 cycles
 Total Energy, E(TD-HF/TD-DFT) =  -1028.69078835
 SCF Done:  E(RwB97XD) =  -1028.81617964     A.U. after    7 cycles
 Total Energy, E(TD-HF/TD-DFT) =  -1028.69078849
 Optimization completed.
    -- Stationary point found.
 Normal termination of Gaussian 16 at Mon Jul 13 14:07:08 2020.

 ----------------------------------------------------------------------
 #P Geom=AllCheck Guess=TCheck SCRF=Check GenChk RwB97XD TD(FC,Read)/CC
 -pVDZ Freq
 ----------------------------------------------------------------------

 Structure from the checkpoint file:  "config_5_13.chk"
 ------------------------------------------------
 NM 2D-scan of HBT TD-WB97XD pVDZ in CTC Relaxed.
 ------------------------------------------------
 Charge =  0 Multiplicity = 1

                          Input orientation:
 ---------------------------------------------------------------------
 Center     Atomic      Atomic             Coordinates (Angstroms)
 Number     Number       Type             X           Y           Z
 ---------------------------------------------------------------------
      1          6           0        1.590582   -3.257994   -0.000038
      2          6           0        0.998300   -2.000397   -0.000027
      3          6           0        1.756127   -0.790203   -0.000013
      4          6           0        3.167859   -0.895029   -0.000012
      5          6           0        3.749807   -2.154835   -0.000023
      6          6           0        2.979524   -3.332672   -0.000035
      7          1           0        0.977070   -4.159762   -0.000047
      8          1           0        3.778192    0.008713   -0.000002
      9          1           0        4.838551   -2.234081   -0.000021
     10          1           0        3.471729   -4.305969   -0.000042
     11          7           0        0.997538    0.334537   -0.000001
     12         16           0       -0.712084   -1.657234   -0.000026
     13          6           0       -1.336274    1.051233    0.000024
     14          6           0       -2.716099    0.770166    0.000037
     15          6           0       -0.904933    2.456527    0.000031
     16          6           0       -3.647418    1.807349    0.000037
     17          1           0       -3.057202   -0.266219    0.000043
     18          6           0       -1.878700    3.478378    0.000026
     19          6           0       -3.236909    3.157075    0.000027
     20          1           0       -4.712071    1.568266    0.000042
     21          1           0       -1.534386    4.513106    0.000026
     22          1           0       -3.984514    3.950725    0.000023
     23          6           0       -0.336152    0.057745    0.000000
     24          8           0        0.369311    2.708854    0.000042
     25          1           0        0.910585    1.736192    0.000033
 ---------------------------------------------------------------------

 SCF Done:  E(RwB97XD) =  -1028.81617964     A.U. after    1 cycles

 Excitation energies and oscillator strengths:

 Excited state symmetry could not be determined.
 Excited State   1:      Singlet-?Sym    3.4121 eV  363.37 nm  f=0.5767  <S**2>=0.000
      59 -> 60         0.69119
 This state for optimization and/or second-order correction.
 Total Energy, E(TD-HF/TD-DFT) =  -1028.69078848
 Copying the excited state density for this state as the 1-particle RhoCI density.

 Excited state symmetry could not be determined.
 Excited State   2:      Singlet-?Sym    4.3865 eV  282.65 nm  f=0.2743  <S**2>=0.000
      57 -> 60         0.17714
      58 -> 60         0.64700
      59 -> 62         0.10214
      59 -> 64         0.10587

 Excited state symmetry could not be determined.
 Excited State   3:      Singlet-?Sym    4.6921 eV  264.24 nm  f=0.0724  <S**2>=0.000
      57 -> 60         0.58642
      57 -> 62        -0.14955
      58 -> 60        -0.17912
      58 -> 61        -0.15978
      59 -> 61         0.21706

 Alpha  occ. eigenvalues --  -89.09172 -19.26602 -14.48098 -10.40056 -10.37664
 Alpha  occ. eigenvalues --  -10.35742 -10.34930 -10.32323 -10.32140 -10.31883
 Alpha  occ. eigenvalues --  -10.31867 -10.31845 -10.31615 -10.31565 -10.30219
 Alpha  occ. eigenvalues --  -10.30099  -8.11219  -6.06061  -6.05716  -6.05276
 Alpha  occ. eigenvalues --   -1.15518  -1.08858  -0.96951  -0.95776  -0.92349
 Alpha  occ. eigenvalues --   -0.88862  -0.85339  -0.84109  -0.82418  -0.75895
 Alpha  occ. eigenvalues --   -0.71250  -0.70577  -0.68977  -0.67990  -0.63566
 Alpha  occ. eigenvalues --   -0.60696  -0.59073  -0.58423  -0.55722  -0.54381
 Alpha  occ. eigenvalues --   -0.54259  -0.53314  -0.52999  -0.50849  -0.50050
 Alpha  occ. eigenvalues --   -0.49637  -0.47068  -0.46147  -0.45656  -0.44870
 Alpha  occ. eigenvalues --   -0.44173  -0.42655  -0.42619  -0.40349  -0.36510
 Alpha  occ. eigenvalues --   -0.36417  -0.32340  -0.31310  -0.27936
 Alpha virt. eigenvalues --   -0.01727   0.04844   0.06753   0.07486   0.07562
 Alpha virt. eigenvalues --    0.10879   0.14415   0.15099   0.16680   0.17966
 Alpha virt. eigenvalues --    0.18663   0.21047   0.21624   0.22418   0.22460

 Mulliken charges:
               1
     1  C    0.019849
     2  C   -0.226051
     3  C    0.246852
     4  C   -0.019216
     5  C    0.006458
     6  C   -0.002330
     7  H    0.018808
     8  H    0.021251
     9  H    0.020902
    10  H    0.021594
    11  N   -0.351276
    12  S    0.170525
    13  C   -0.091397
    14  C   -0.025765
    15  C    0.110725
    16  C   -0.018489
    17  H    0.016371
    18  C   -0.006834
    19  C    0.025687
    20  H    0.008958
    21  H    0.015647
    22  H    0.021711
    23  C    0.081967
    24  O   -0.277054
    25  H    0.211108
 Sum of Mulliken charges =  -0.00000

 Dipole moment (field-independent basis, Debye):
    X=             -0.1308    Y=             -2.9284    Z=             -0.0000  Tot=              2.9313
 Quadrupole moment (field-independent basis, Debye-Ang):
   XX=            -83.1814   YY=            -90.4998   ZZ=           -104.2549
   XY=             -7.0496   XZ=             -0.0001   YZ=              0.0000

  Exact polarizability:     378.689    -165.104     348.343      -0.002       0.003      63.276
 Approx polarizability:     275.177     -35.039     259.095      -0.000       0.001      82.317

 ******    1 imaginary frequencies (negative Signs) ******

                      1                      2                      3
                      A                      A                      A
 Frequencies --   -414.0878                44.1058                53.5355
 Red. masses --      1.8028                 5.4733                 6.7155
 Frc consts  --      0.1821                 0.0063                 0.0113
 IR Inten    --    143.2715                 0.9289                 0.6220

                      4                      5                      6
                      A                      A                      A
 Frequencies --    109.4929               165.5399               175.7449
 Red. masses --      5.1888                 5.4918                 6.1606
 Frc consts  --      0.0367                 0.0887                 0.1121
 IR Inten    --      0.0264                11.6250                 1.0279

                      7                      8                      9
                      A                      A                      A
 Frequencies --    222.3652               272.8374               274.6786
 Red. masses --      5.3405                 4.7643                 7.4675
 Frc consts  --      0.1556                 0.2090                 0.3320
 IR Inten    --      0.0252                 0.0623                20.9910

                     10                     11                     12
                      A                      A                      A
 Frequencies --    377.8485               402.4525               431.9089
 Red. masses --      4.7337                 6.2743                 6.9879
 Frc consts  --      0.3982                 0.5988                 0.7680
 IR Inten    --      0.1423                 6.7354                 4.5454

                     13                     14                     15
                      A                      A                      A
 Frequencies --    439.2878               479.9607               500.3038
 Red. masses --      3.2107                 4.7720                 3.1688
 Frc consts  --      0.3650                 0.6477                 0.4673
 IR Inten    --      4.3243                 0.0022                 0.1887

                     16                     17                     18
                      A                      A                      A
 Frequencies --    505.8880               536.9571               557.8481
 Red. masses --      8.7792                 8.1214                 3.9108
 Frc consts  --      1.3238                 1.3796                 0.7170
 IR Inten    --      0.3686                26.0078                 0.1724

                     19                     20                     21
                      A                      A                      A
 Frequencies --    576.9342               633.5488               705.0351
 Red. masses --      7.6080                 6.7906                 1.6282
 Frc consts  --      1.4920                 1.6059                 0.4769
 IR Inten    --      1.2788                21.0688                46.9500

                     22                     23                     24
                      A                      A                      A
 Frequencies --    714.8016               741.0906               741.3845
 Red. masses --      6.6216                 1.9417                10.0248
 Frc consts  --      1.9934                 0.6283                 3.2465
 IR Inten    --      2.2229                29.1402                18.7144

                     25                     26                     27
                      A                      A                      A
 Frequencies --    754.4289               768.0135               811.6491
 Red. masses --      1.8639                 2.0160                 1.7407
 Frc consts  --      0.6251                 0.7006                 0.6756
 IR Inten    --     24.1710                54.7361                 0.2947

                     28                     29                     30
                      A                      A                      A
 Frequencies --    823.3276               862.2544               864.0026
 Red. masses --      5.7977                 1.4105                 4.5343
 Frc consts  --      2.3155                 0.6178                 1.9943
 IR Inten    --     27.8063                 0.9983               166.9558

                     31                     32                     33
                      A                      A                      A
 Frequencies --    908.6016               934.2515               953.0539
 Red. masses --      1.3602                 5.0758                 1.3474
 Frc consts  --      0.6616                 2.6103                 0.7211
 IR Inten    --      4.7882                 4.4276                 1.9128

                     34                     35                     36
                      A                      A                      A
 Frequencies --    960.4082               999.3761              1005.4094
 Red. masses --      1.3776                 1.2988                 5.8123
 Frc consts  --      0.7487                 0.7643                 3.4616
 IR Inten    --      0.2047                 0.0000                 0.4273

                     37                     38                     39
                      A                      A                      A
 Frequencies --   1040.0983              1048.9391              1093.3127
 Red. masses --      2.1086                 1.9501                 4.3129
 Frc consts  --      1.3440                 1.2642                 3.0375
 IR Inten    --      1.3172                 2.6745                65.1729

                     40                     41                     42
                      A                      A                      A
 Frequencies --   1137.9781              1155.8923              1174.9562
 Red. masses --      1.4274                 1.3927                 1.1433
 Frc consts  --      1.0891                 1.0963                 0.9300
 IR Inten    --     43.3849                25.3468                29.1366

                     43                     44                     45
                      A                      A                      A
 Frequencies --   1179.4087              1188.4696              1250.8849
 Red. masses --      1.1860                 1.0525                 1.8766
 Frc consts  --      0.9720                 0.8759                 1.7300
 IR Inten    --     70.6804                65.6232               120.6012

                     46                     47                     48
                      A                      A                      A
 Frequencies --   1260.2571              1291.1006              1365.9339
 Red. masses --      3.0798                 2.0092                 4.4029
 Frc consts  --      2.8820                 1.9733                 4.8400
 IR Inten    --     46.6633                 9.5659                13.1359

                     49                     50                     51
                      A                      A                      A
 Frequencies --   1376.4695              1403.6924              1407.1748
 Red. masses --      2.9575                 2.3627                 3.0719
 Frc consts  --      3.3015                 2.7429                 3.5839
 IR Inten    --    309.9905                17.7102               148.9915

                     52                     53                     54
                      A                      A                      A
 Frequencies --   1447.0668              1477.4861              1515.5231
 Red. masses --      3.3028                 3.0836                 3.9778
 Frc consts  --      4.0748                 3.9661                 5.3829
 IR Inten    --    285.7305               122.8047                38.6013

                     55                     56                     57
                      A                      A                      A
 Frequencies --   1533.7376              1546.9658              1573.6037
 Red. masses --      4.5581                 4.4889                 5.9647
 Frc consts  --      6.3174                 6.3292                 8.7022
 IR Inten    --    194.4002                82.7163               443.8083

                     58                     59                     60
                      A                      A                      A
 Frequencies --   1615.3381              1646.8761              1654.4372
 Red. masses --      6.0031                 5.9652                 5.1285
 Frc consts  --      9.2289                 9.5322                 8.2708
 IR Inten    --    283.9868              1052.5670               232.6600

                     61                     62                     63
                      A                      A                      A
 Frequencies --   1806.8740              3206.9045              3210.7748
 Red. masses --      1.0986                 1.0861                 1.0865
 Frc consts  --      2.1133                 6.5812                 6.5992
 IR Inten    --     60.7759                 8.3077                10.7259

                     64                     65                     66
                      A                      A                      A
 Frequencies --   3217.3722              3221.5380              3228.6520
 Red. masses --      1.0900                 1.0890                 1.0951
 Frc consts  --      6.6481                 6.6590                 6.7260
 IR Inten    --      2.5563                 5.8883                11.0898

                     67                     68                     69
                      A                      A                      A
 Frequencies --   3229.1124              3235.4250              3240.8787
 Red. masses --      1.0940                 1.0992                 1.0982
 Frc consts  --      6.7209                 6.7797                 6.7958
 IR Inten    --     13.6376                32.2717                21.6521

 - Thermochemistry -
 -------------------
 Temperature   298.150 Kelvin.  Pressure   1.00000 Atm.
 Atom     1 has atomic number  6 and mass  12.00000

 Molecular mass:   227.04049 amu.
 Principal axes and moments of inertia in atomic units:
                           1         2         3
     Eigenvalues --  1291.679046301.747377593.42641
           X           -0.70464   0.70956   0.00000
           Y            0.70956   0.70464  -0.00001
           Z            0.00001   0.00001   1.00000
 This molecule is an asymmetric top.
 Rotational symmetry number  1.
 Warning -- assumption of classical behavior for rotation
           may cause significant error
 Rotational temperatures (Kelvin)      0.06706     0.01374     0.01141
 Rotational constants (GHZ):           1.39721     0.28639     0.23767
    1 imaginary frequencies ignored.
 Zero-point vibrational energy     480249.6 (Joules/Mol)
                                  114.78241 (Kcal/Mol)
 Warning -- explicit consideration of  18 degrees of freedom as
           vibrations may cause significant error
 Vibrational temperatures:     63.46    77.03   157.54   238.18   252.86
          (Kelvin)            319.93   392.55   395.20   543.64   579.04
                              621.42   632.04   690.56   719.83   727.86
                              772.56   802.62   830.08   911.54  1014.39
                             1028.44  1066.26  1066.69  1085.45  1105.00
                             1167.78  1184.58  1240.59  1243.11  1307.27
                             1344.18  1371.23  1381.81  1437.88  1446.56
                             1496.47  1509.19  1573.03  1637.30  1663.07
                             1690.50  1696.91  1709.94  1799.74  1813.23
                             1857.61  1965.27  1980.43  2019.60  2024.61
                             2082.01  2125.77  2180.50  2206.71  2225.74
                             2264.06  2324.11  2369.49  2380.37  2599.69
                             4614.02  4619.59  4629.08  4635.07  4645.31
                             4645.97  4655.06  4662.90

 Zero-point correction=                           0.182917 (Hartree/Particle)
 Thermal correction to Energy=                    0.194779
 Thermal correction to Enthalpy=                  0.195723
 Thermal correction to Gibbs Free Energy=         0.143939
 Sum of electronic and zero-point Energies=          -1028.507871
 Sum of electronic and thermal Energies=             -1028.496010
 Sum of electronic and thermal Enthalpies=           -1028.495065
 Sum of electronic and thermal Free Energies=        -1028.546849

                     E (Thermal)             CV                S
                      KCal/Mol        Cal/Mol-Kelvin    Cal/Mol-Kelvin
 Total                  122.226             47.818            108.989
 Electronic               0.000              0.000              0.000
 Translational            0.889              2.981             42.162
 Rotational               0.889              2.981             32.491
 Vibrational            120.448             41.856             34.335
 Vibration     1          0.595              1.980              5.066
 Vibration     2          0.596              1.976              4.682
 Vibration     3          0.606              1.942              3.278
 Vibration     4          0.624              1.885              2.486
 Vibration     5          0.628              1.872              2.373
 Vibration     6          0.648              1.807              1.940
 Vibration     7          0.676              1.723              1.578
 Vibration     8          0.677              1.720              1.567
 Vibration     9          0.748              1.517              1.048
 Vibration    10          0.768              1.465              0.954
 Vibration    11          0.793              1.401              0.852
 Vibration    12          0.799              1.385              0.829
 Vibration    13          0.836              1.295              0.710
 Vibration    14          0.856              1.249              0.657
 Vibration    15          0.861              1.237              0.644
 Vibration    16          0.892              1.168              0.572
 Vibration    17          0.913              1.123              0.528
 Vibration    18          0.933              1.081              0.491

 Optimization completed.
    -- Stationary point found.
 Normal termination of Gaussian 16 at Mon Jul 13 14:24:54 2020.
