 Gaussian 16, Revision C.01,
 Gaussian 16:  ES64L-G16RevC.01  3-Jul-2019

 ----------------------------------------------------------------------
 #p opt=addgic freq td wb97xd/cc-pvdz nosymm int=ultrafine scrf=(solven
 t=CarbonTetraChloride)
 ----------------------------------------------------------------------

 ------------------------------------------------
 NM 2D-scan of HBT TD-WB97XD pVDZ in CTC Relaxed.
 ------------------------------------------------
 Symbolic Z-matrix:
 Charge =  0 Multiplicity = 1

 SCF Done:  E(RwB97XD) =  -1028.78666928     A.U. after   15 cycles
 Total Energy, E(TD-HF/TD-DFT) =  -1028.65520635
 SCF Done:  E(RwB97XD) =  -1028.81854795     A.U. after   13 cycles
 Total Energy, E(TD-HF/TD-DFT) =  -1028.68945497
 SCF Done:  E(RwB97XD) =  -1028.81897419     A.U. after   13 cycles
 Total Energy, E(TD-HF/TD-DFT) =  -1028.69166900
 SCF Done:  E(RwB97XD) =  -1028.81938353     A.U. after   11 cycles
 Total Energy, E(TD-HF/TD-DFT) =  -1028.69181300
 SCF Done:  E(RwB97XD) =  -1028.81943321     A.U. after   10 cycles
 Total Energy, E(TD-HF/TD-DFT) =  -1028.69187839
 SCF Done:  E(RwB97XD) =  -1028.81946436     A.U. after    9 cycles
 Total Energy, E(TD-HF/TD-DFT) =  -1028.69188001
 SCF Done:  E(RwB97XD) =  -1028.81949046     A.U. after    7 cycles
 Total Energy, E(TD-HF/TD-DFT) =  -1028.69188026
 SCF Done:  E(RwB97XD) =  -1028.81950032     A.U. after    7 cycles
 Total Energy, E(TD-HF/TD-DFT) =  -1028.69188024
 Optimization completed.
    -- Stationary point found.
 Normal termination of Gaussian 16 at Mon Jul 13 17:39:44 2020.

 ----------------------------------------------------------------------
 #P Geom=AllCheck Guess=TCheck SCRF=Check GenChk RwB97XD TD(FC,Read)/CC
 -pVDZ Freq
 ----------------------------------------------------------------------

 Structure from the checkpoint file:  "config_3_8.chk"
 ------------------------------------------------
 NM 2D-scan of HBT TD-WB97XD pVDZ in CTC Relaxed.
 ------------------------------------------------
 Charge =  0 Multiplicity = 1

                          Input orientation:
 ---------------------------------------------------------------------
 Center     Atomic      Atomic             Coordinates (Angstroms)
 Number     Number       Type             X           Y           Z
 ---------------------------------------------------------------------
      1          6           0        1.664366   -3.292063    0.000047
      2          6           0        0.977006   -2.079225    0.000081
      3          6           0        1.689537   -0.833582   -0.000053
      4          6           0        3.108637   -0.839608   -0.000219
      5          6           0        3.771312   -2.047423   -0.000249
      6          6           0        3.060550   -3.267761   -0.000117
      7          1           0        1.128078   -4.241880    0.000143
      8          1           0        3.639487    0.112917   -0.000317
      9          1           0        4.862653   -2.065470   -0.000376
     10          1           0        3.610548   -4.210017   -0.000145
     11          7           0        0.940578    0.271638    0.000002
     12         16           0       -0.750692   -1.767462    0.000248
     13          6           0       -1.353782    1.034682    0.000164
     14          6           0       -2.763694    0.834528    0.000047
     15          6           0       -0.900711    2.444559    0.000157
     16          6           0       -3.643261    1.906263   -0.000128
     17          1           0       -3.152924   -0.185146    0.000045
     18          6           0       -1.821273    3.499994   -0.000043
     19          6           0       -3.184245    3.245159   -0.000197
     20          1           0       -4.716971    1.711628   -0.000239
     21          1           0       -1.418028    4.513026   -0.000034
     22          1           0       -3.898149    4.069190   -0.000344
     23          6           0       -0.392670    0.000566    0.000191
     24          8           0        0.375451    2.767406    0.000484
     25          1           0        0.906139    1.908713    0.000954
 ---------------------------------------------------------------------

 SCF Done:  E(RwB97XD) =  -1028.81950032     A.U. after    1 cycles

 Excitation energies and oscillator strengths:

 Excited state symmetry could not be determined.
 Excited State   1:      Singlet-?Sym    3.4727 eV  357.02 nm  f=0.6949  <S**2>=0.000
      59 -> 60         0.68948
 This state for optimization and/or second-order correction.
 Total Energy, E(TD-HF/TD-DFT) =  -1028.69188024
 Copying the excited state density for this state as the 1-particle RhoCI density.

 Excited state symmetry could not be determined.
 Excited State   2:      Singlet-?Sym    4.3890 eV  282.49 nm  f=0.2161  <S**2>=0.000
      57 -> 60        -0.26122
      58 -> 60        -0.60786
      59 -> 62         0.15620

 Excited state symmetry could not be determined.
 Excited State   3:      Singlet-?Sym    4.5822 eV  270.58 nm  f=0.0589  <S**2>=0.000
      57 -> 60         0.56260
      57 -> 62         0.11679
      58 -> 60        -0.25104
      58 -> 61        -0.12370
      59 -> 61         0.23630

 Alpha  occ. eigenvalues --  -89.09100 -19.28428 -14.47020 -10.39885 -10.38190
 Alpha  occ. eigenvalues --  -10.34920 -10.34849 -10.32789 -10.32331 -10.32225
 Alpha  occ. eigenvalues --  -10.31948 -10.31422 -10.31362 -10.31265 -10.30476
 Alpha  occ. eigenvalues --  -10.30287  -8.10997  -6.05852  -6.05513  -6.05052
 Alpha  occ. eigenvalues --   -1.17171  -1.08275  -0.96677  -0.95620  -0.91629
 Alpha  occ. eigenvalues --   -0.88802  -0.84931  -0.84427  -0.82314  -0.75976
 Alpha  occ. eigenvalues --   -0.71072  -0.70152  -0.69124  -0.68285  -0.63404
 Alpha  occ. eigenvalues --   -0.60315  -0.58879  -0.58566  -0.55883  -0.54415
 Alpha  occ. eigenvalues --   -0.53697  -0.53095  -0.52840  -0.50882  -0.50414
 Alpha  occ. eigenvalues --   -0.49312  -0.47843  -0.45872  -0.45550  -0.44733
 Alpha  occ. eigenvalues --   -0.43831  -0.42891  -0.42278  -0.39978  -0.37344
 Alpha  occ. eigenvalues --   -0.36445  -0.32139  -0.31464  -0.27970
 Alpha virt. eigenvalues --   -0.01827   0.05146   0.06998   0.07125   0.07294
 Alpha virt. eigenvalues --    0.11150   0.13498   0.15135   0.16084   0.17975
 Alpha virt. eigenvalues --    0.18573   0.20913   0.21672   0.22329   0.22726

 Mulliken charges:
               1
     1  C    0.011112
     2  C   -0.221577
     3  C    0.230925
     4  C   -0.016225
     5  C    0.008644
     6  C   -0.007878
     7  H    0.018443
     8  H    0.016401
     9  H    0.018508
    10  H    0.020426
    11  N   -0.355587
    12  S    0.153857
    13  C   -0.089328
    14  C   -0.018159
    15  C    0.085764
    16  C   -0.013254
    17  H    0.013677
    18  C    0.011614
    19  C    0.022098
    20  H    0.011523
    21  H    0.018888
    22  H    0.022639
    23  C    0.082052
    24  O   -0.198614
    25  H    0.174050
 Sum of Mulliken charges =  -0.00000

 Dipole moment (field-independent basis, Debye):
    X=             -0.3962    Y=             -1.9224    Z=              0.0004  Tot=              1.9628
 Quadrupole moment (field-independent basis, Debye-Ang):
   XX=            -83.2231   YY=            -89.1825   ZZ=           -104.4396
   XY=             -6.9305   XZ=              0.0008   YZ=             -0.0004

  Exact polarizability:     402.753    -192.127     385.649      -0.004      -0.000      63.466
 Approx polarizability:     279.590     -36.633     262.238      -0.003      -0.004      82.435

                      1                      2                      3
                      A                      A                      A
 Frequencies --     40.6939                63.8849               110.0903
 Red. masses --      6.0041                 5.9798                 4.7572
 Frc consts  --      0.0059                 0.0144                 0.0340
 IR Inten    --      1.4067                 0.0182                 0.2485

                      4                      5                      6
                      A                      A                      A
 Frequencies --    114.6429               181.1371               223.5182
 Red. masses --      5.6492                 6.5581                 5.4003
 Frc consts  --      0.0437                 0.1268                 0.1590
 IR Inten    --      1.9793                 1.0485                 0.0001

                      7                      8                      9
                      A                      A                      A
 Frequencies --    266.5829               269.4546               304.1896
 Red. masses --      7.7589                 4.8268                 6.7877
 Frc consts  --      0.3249                 0.2065                 0.3701
 IR Inten    --     24.5559                 0.1203                 5.2778

                     10                     11                     12
                      A                      A                      A
 Frequencies --    391.8897               397.9559               438.8195
 Red. masses --      4.6510                 9.1284                 3.2818
 Frc consts  --      0.4208                 0.8518                 0.3723
 IR Inten    --      0.1381                12.8302                 4.3020

                     13                     14                     15
                      A                      A                      A
 Frequencies --    492.0452               497.9898               504.4042
 Red. masses --      4.5230                 7.6123                 3.1471
 Frc consts  --      0.6452                 1.1123                 0.4718
 IR Inten    --      0.2058                 8.9929                 0.0386

                     16                     17                     18
                      A                      A                      A
 Frequencies --    513.3140               526.5415               551.1627
 Red. masses --      5.3106                 7.7840                 3.9865
 Frc consts  --      0.8244                 1.2715                 0.7135
 IR Inten    --     33.1427                15.7396                 0.1310

                     19                     20                     21
                      A                      A                      A
 Frequencies --    578.7622               642.0967               682.0267
 Red. masses --      7.6714                 6.6538                 9.1444
 Frc consts  --      1.5140                 1.6163                 2.5062
 IR Inten    --     42.3865                41.9727                28.6607

                     22                     23                     24
                      A                      A                      A
 Frequencies --    711.6554               716.2155               736.3416
 Red. masses --      7.1733                 1.7761                 1.9107
 Frc consts  --      2.1405                 0.5368                 0.6104
 IR Inten    --     14.6323                45.2201                30.4880

                     25                     26                     27
                      A                      A                      A
 Frequencies --    750.1098               772.0413               809.2430
 Red. masses --      1.8718                 2.0331                 6.4399
 Frc consts  --      0.6205                 0.7140                 2.4848
 IR Inten    --     27.3307                53.2657                17.3595

                     28                     29                     30
                      A                      A                      A
 Frequencies --    822.1508               860.5014               890.6212
 Red. masses --      1.6324                 1.4214                 6.4147
 Frc consts  --      0.6501                 0.6201                 2.9979
 IR Inten    --      1.1833                 0.6386                53.9672

                     31                     32                     33
                      A                      A                      A
 Frequencies --    919.4720               954.5493               956.7730
 Red. masses --      1.3370                 1.3371                 1.0824
 Frc consts  --      0.6660                 0.7178                 0.5838
 IR Inten    --     12.2999                 0.2770                62.4377

                     34                     35                     36
                      A                      A                      A
 Frequencies --    957.8037               967.0389              1000.3128
 Red. masses --      7.1381                 1.3492                 1.2991
 Frc consts  --      3.8582                 0.7434                 0.7659
 IR Inten    --      5.5041                 0.4289                 0.0106

                     37                     38                     39
                      A                      A                      A
 Frequencies --   1038.9278              1041.1430              1074.8977
 Red. masses --      2.1981                 2.1333                 4.8051
 Frc consts  --      1.3979                 1.3625                 3.2710
 IR Inten    --      2.4676                 0.7374                44.0784

                     40                     41                     42
                      A                      A                      A
 Frequencies --   1135.3934              1148.2209              1176.2095
 Red. masses --      1.4611                 1.3138                 1.1381
 Frc consts  --      1.1097                 1.0206                 0.9277
 IR Inten    --     59.8951                14.8358                 3.0197

                     43                     44                     45
                      A                      A                      A
 Frequencies --   1179.1287              1227.9793              1239.6820
 Red. masses --      1.1870                 5.6998                 1.7181
 Frc consts  --      0.9723                 5.0640                 1.5557
 IR Inten    --     39.0437                49.0401               180.8342

                     46                     47                     48
                      A                      A                      A
 Frequencies --   1280.0759              1309.0800              1364.0351
 Red. masses --      1.6492                 3.2102                 2.8471
 Frc consts  --      1.5922                 3.2413                 3.1211
 IR Inten    --      5.2600               316.6044                50.0516

                     49                     50                     51
                      A                      A                      A
 Frequencies --   1374.3479              1402.3631              1440.9163
 Red. masses --      5.7961                 1.9869                 2.5718
 Frc consts  --      6.4503                 2.3022                 3.1460
 IR Inten    --     36.5070                 5.2266               175.0867

                     52                     53                     54
                      A                      A                      A
 Frequencies --   1475.9584              1504.9501              1518.0945
 Red. masses --      3.3457                 3.1652                 3.5568
 Frc consts  --      4.2943                 4.2238                 4.8296
 IR Inten    --     76.2832               154.4655                91.5248

                     55                     56                     57
                      A                      A                      A
 Frequencies --   1537.5824              1558.9564              1593.8144
 Red. masses --      4.5998                 6.7494                 3.4977
 Frc consts  --      6.4072                 9.6645                 5.2349
 IR Inten    --     21.7892               524.4901               359.0459

                     58                     59                     60
                      A                      A                      A
 Frequencies --   1612.1308              1625.8028              1651.5603
 Red. masses --      2.3360                 5.3982                 5.3925
 Frc consts  --      3.5770                 8.4069                 8.6662
 IR Inten    --     96.3223               472.1799               160.1455

                     61                     62                     63
                      A                      A                      A
 Frequencies --   2904.4284              3206.3896              3207.6526
 Red. masses --      1.0762                 1.0868                 1.0863
 Frc consts  --      5.3490                 6.5834                 6.5853
 IR Inten    --     78.4425                 5.0036                 8.9694

                     64                     65                     66
                      A                      A                      A
 Frequencies --   3218.6991              3218.9090              3227.1843
 Red. masses --      1.0899                 1.0887                 1.0940
 Frc consts  --      6.6525                 6.6463                 6.7128
 IR Inten    --      3.4094                 0.9888                16.9384

                     67                     68                     69
                      A                      A                      A
 Frequencies --   3230.7343              3236.7032              3239.2235
 Red. masses --      1.0954                 1.0990                 1.0988
 Frc consts  --      6.7362                 6.7838                 6.7929
 IR Inten    --     11.9294                42.2920                24.2898

 - Thermochemistry -
 -------------------
 Temperature   298.150 Kelvin.  Pressure   1.00000 Atm.
 Atom     1 has atomic number  6 and mass  12.00000

 Molecular mass:   227.04049 amu.
 Principal axes and moments of inertia in atomic units:
                           1         2         3
     Eigenvalues --  1340.176576350.118767690.29526
           X           -0.69802   0.71607   0.00002
           Y            0.71607   0.69802   0.00000
           Z            0.00001  -0.00001   1.00000
 This molecule is an asymmetric top.
 Rotational symmetry number  1.
 Warning -- assumption of classical behavior for rotation
           may cause significant error
 Rotational temperatures (Kelvin)      0.06463     0.01364     0.01126
 Rotational constants (GHZ):           1.34664     0.28421     0.23468
 Zero-point vibrational energy     489375.6 (Joules/Mol)
                                  116.96357 (Kcal/Mol)
 Warning -- explicit consideration of  19 degrees of freedom as
           vibrations may cause significant error
 Vibrational temperatures:     58.55    91.92   158.40   164.95   260.62
          (Kelvin)            321.59   383.55   387.69   437.66   563.84
                              572.57   631.36   707.94   716.50   725.73
                              738.54   757.58   793.00   832.71   923.83
                              981.28  1023.91  1030.47  1059.43  1079.24
                             1110.80  1164.32  1182.89  1238.07  1281.41
                             1322.92  1373.38  1376.58  1378.07  1391.35
                             1439.23  1494.79  1497.97  1546.54  1633.58
                             1652.03  1692.30  1696.50  1766.79  1783.63
                             1841.74  1883.47  1962.54  1977.38  2017.69
                             2073.16  2123.57  2165.29  2184.20  2212.24
                             2242.99  2293.14  2319.50  2339.17  2376.23
                             4178.82  4613.28  4615.10  4630.99  4631.29
                             4643.20  4648.31  4656.89  4660.52

 Zero-point correction=                           0.186393 (Hartree/Particle)
 Thermal correction to Energy=                    0.198688
 Thermal correction to Enthalpy=                  0.199632
 Thermal correction to Gibbs Free Energy=         0.147022
 Sum of electronic and zero-point Energies=          -1028.505487
 Sum of electronic and thermal Energies=             -1028.493192
 Sum of electronic and thermal Enthalpies=           -1028.492248
 Sum of electronic and thermal Free Energies=        -1028.544858

                     E (Thermal)             CV                S
                      KCal/Mol        Cal/Mol-Kelvin    Cal/Mol-Kelvin
 Total                  124.678             49.360            110.726
 Electronic               0.000              0.000              0.000
 Translational            0.889              2.981             42.162
 Rotational               0.889              2.981             32.548
 Vibrational            122.901             43.399             36.016
 Vibration     1          0.594              1.981              5.225
 Vibration     2          0.597              1.972              4.333
 Vibration     3          0.606              1.941              3.267
 Vibration     4          0.608              1.937              3.189
 Vibration     5          0.630              1.865              2.317
 Vibration     6          0.649              1.805              1.930
 Vibration     7          0.672              1.734              1.618
 Vibration     8          0.674              1.729              1.600
 Vibration     9          0.695              1.666              1.394
 Vibration    10          0.759              1.488              0.993
 Vibration    11          0.764              1.475              0.970
 Vibration    12          0.799              1.386              0.830
 Vibration    13          0.848              1.268              0.678
 Vibration    14          0.853              1.254              0.663
 Vibration    15          0.860              1.240              0.647
 Vibration    16          0.868              1.220              0.626
 Vibration    17          0.881              1.191              0.595
 Vibration    18          0.906              1.137              0.542
 Vibration    19          0.935              1.077              0.488

 Optimization completed.
    -- Stationary point found.
 Normal termination of Gaussian 16 at Mon Jul 13 17:57:18 2020.
