 Gaussian 16, Revision C.01,
 Gaussian 16:  ES64L-G16RevC.01  3-Jul-2019

 ----------------------------------------------------------------------
 #p opt=addgic freq td wb97xd/cc-pvdz nosymm int=ultrafine scrf=(solven
 t=CarbonTetraChloride)
 ----------------------------------------------------------------------

 ------------------------------------------------
 NM 2D-scan of HBT TD-WB97XD pVDZ in CTC Relaxed.
 ------------------------------------------------
 Symbolic Z-matrix:
 Charge =  0 Multiplicity = 1

 SCF Done:  E(RwB97XD) =  -1028.68154196     A.U. after   15 cycles
 Total Energy, E(TD-HF/TD-DFT) =  -1028.54963717
 SCF Done:  E(RwB97XD) =  -1028.79889541     A.U. after   13 cycles
 Total Energy, E(TD-HF/TD-DFT) =  -1028.66917436
 SCF Done:  E(RwB97XD) =  -1028.79278448     A.U. after   15 cycles
 Total Energy, E(TD-HF/TD-DFT) =  -1028.66830901
 SCF Done:  E(RwB97XD) =  -1028.81497854     A.U. after   12 cycles
 Total Energy, E(TD-HF/TD-DFT) =  -1028.68825867
 SCF Done:  E(RwB97XD) =  -1028.81604542     A.U. after   11 cycles
 Total Energy, E(TD-HF/TD-DFT) =  -1028.68860583
 SCF Done:  E(RwB97XD) =  -1028.81616936     A.U. after    9 cycles
 Total Energy, E(TD-HF/TD-DFT) =  -1028.68866985
 SCF Done:  E(RwB97XD) =  -1028.81620891     A.U. after    9 cycles
 Total Energy, E(TD-HF/TD-DFT) =  -1028.68867131
 Optimization completed.
    -- Stationary point found.
 Normal termination of Gaussian 16 at Mon Jul 13 18:14:04 2020.

 ----------------------------------------------------------------------
 #P Geom=AllCheck Guess=TCheck SCRF=Check GenChk RwB97XD TD(FC,Read)/CC
 -pVDZ Freq
 ----------------------------------------------------------------------

 Structure from the checkpoint file:  "config_2_7.chk"
 ------------------------------------------------
 NM 2D-scan of HBT TD-WB97XD pVDZ in CTC Relaxed.
 ------------------------------------------------
 Charge =  0 Multiplicity = 1

                          Input orientation:
 ---------------------------------------------------------------------
 Center     Atomic      Atomic             Coordinates (Angstroms)
 Number     Number       Type             X           Y           Z
 ---------------------------------------------------------------------
      1          6           0        1.680811   -3.306772   -0.000023
      2          6           0        0.967775   -2.106954   -0.000012
      3          6           0        1.670499   -0.851501   -0.000010
      4          6           0        3.090911   -0.832642   -0.000016
      5          6           0        3.774361   -2.025079   -0.000027
      6          6           0        3.078214   -3.255950   -0.000031
      7          1           0        1.166381   -4.268692   -0.000025
      8          1           0        3.599395    0.131992   -0.000013
      9          1           0        4.865791   -2.027375   -0.000033
     10          1           0        3.642841   -4.189678   -0.000040
     11          7           0        0.930931    0.253161   -0.000001
     12         16           0       -0.763794   -1.800375   -0.000002
     13          6           0       -1.351730    1.034988    0.000005
     14          6           0       -2.770304    0.850851   -0.000006
     15          6           0       -0.902577    2.450169    0.000026
     16          6           0       -3.642163    1.925110    0.000019
     17          1           0       -3.167063   -0.166049   -0.000031
     18          6           0       -1.816339    3.507132    0.000057
     19          6           0       -3.178113    3.263451    0.000056
     20          1           0       -4.716797    1.735703    0.000012
     21          1           0       -1.403358    4.516184    0.000077
     22          1           0       -3.886715    4.092034    0.000079
     23          6           0       -0.402723   -0.011126    0.000002
     24          8           0        0.369235    2.819293    0.000022
     25          1           0        0.927121    2.003050    0.000020
 ---------------------------------------------------------------------

 SCF Done:  E(RwB97XD) =  -1028.81620891     A.U. after    1 cycles

 Excitation energies and oscillator strengths:

 Excited state symmetry could not be determined.
 Excited State   1:      Singlet-?Sym    3.4705 eV  357.25 nm  f=0.7298  <S**2>=0.000
      59 -> 60         0.68975
 This state for optimization and/or second-order correction.
 Total Energy, E(TD-HF/TD-DFT) =  -1028.68867132
 Copying the excited state density for this state as the 1-particle RhoCI density.

 Excited state symmetry could not be determined.
 Excited State   2:      Singlet-?Sym    4.3841 eV  282.80 nm  f=0.1841  <S**2>=0.000
      57 -> 60         0.30708
      58 -> 60         0.58318
      59 -> 62        -0.16986

 Excited state symmetry could not be determined.
 Excited State   3:      Singlet-?Sym    4.5456 eV  272.76 nm  f=0.0623  <S**2>=0.000
      57 -> 60         0.54302
      57 -> 63        -0.12819
      58 -> 60        -0.29383
      58 -> 61        -0.11171
      59 -> 61         0.23846

 Alpha  occ. eigenvalues --  -89.09067 -19.28946 -14.46846 -10.39862 -10.38359
 Alpha  occ. eigenvalues --  -10.34870 -10.34715 -10.33106 -10.32381 -10.32213
 Alpha  occ. eigenvalues --  -10.31950 -10.31391 -10.31225 -10.31161 -10.30542
 Alpha  occ. eigenvalues --  -10.30310  -8.10912  -6.05772  -6.05437  -6.04965
 Alpha  occ. eigenvalues --   -1.17458  -1.08101  -0.96641  -0.95546  -0.91393
 Alpha  occ. eigenvalues --   -0.88771  -0.85020  -0.84339  -0.82228  -0.76004
 Alpha  occ. eigenvalues --   -0.71090  -0.70121  -0.69110  -0.68242  -0.63341
 Alpha  occ. eigenvalues --   -0.60130  -0.58912  -0.58449  -0.55927  -0.54412
 Alpha  occ. eigenvalues --   -0.53498  -0.53111  -0.52692  -0.50840  -0.50475
 Alpha  occ. eigenvalues --   -0.49130  -0.48022  -0.45818  -0.45493  -0.44707
 Alpha  occ. eigenvalues --   -0.43750  -0.42919  -0.42151  -0.39874  -0.37520
 Alpha  occ. eigenvalues --   -0.36414  -0.32074  -0.31546  -0.27913
 Alpha virt. eigenvalues --   -0.01884   0.05229   0.06931   0.07095   0.07133
 Alpha virt. eigenvalues --    0.11259   0.13114   0.15120   0.15943   0.17868
 Alpha virt. eigenvalues --    0.18542   0.20673   0.21665   0.22289   0.22781

 Mulliken charges:
               1
     1  C    0.007882
     2  C   -0.216831
     3  C    0.223010
     4  C   -0.015519
     5  C    0.009170
     6  C   -0.009567
     7  H    0.018685
     8  H    0.014717
     9  H    0.017783
    10  H    0.020168
    11  N   -0.345284
    12  S    0.146645
    13  C   -0.086090
    14  C   -0.016498
    15  C    0.079979
    16  C   -0.011266
    17  H    0.013521
    18  C    0.017350
    19  C    0.020641
    20  H    0.012182
    21  H    0.019776
    22  H    0.022732
    23  C    0.076745
    24  O   -0.184292
    25  H    0.164362
 Sum of Mulliken charges =  -0.00000

 Dipole moment (field-independent basis, Debye):
    X=             -0.4198    Y=             -1.6253    Z=              0.0000  Tot=              1.6787
 Quadrupole moment (field-independent basis, Debye-Ang):
   XX=            -83.1582   YY=            -88.9486   ZZ=           -104.5183
   XY=             -6.7904   XZ=             -0.0001   YZ=              0.0003

  Exact polarizability:     407.790    -198.350     396.495      -0.003       0.004      63.542
 Approx polarizability:     281.388     -37.285     264.078      -0.001       0.002      82.483

                      1                      2                      3
                      A                      A                      A
 Frequencies --     34.1373                69.6302               109.1266
 Red. masses --      5.9833                 5.7053                 4.7240
 Frc consts  --      0.0041                 0.0163                 0.0331
 IR Inten    --      1.2144                 0.0289                 0.3705

                      4                      5                      6
                      A                      A                      A
 Frequencies --    111.3744               183.0966               224.2528
 Red. masses --      5.6664                 6.7662                 5.4475
 Frc consts  --      0.0414                 0.1336                 0.1614
 IR Inten    --      1.9342                 0.9503                 0.0014

                      7                      8                      9
                      A                      A                      A
 Frequencies --    261.9817               267.8106               289.8000
 Red. masses --      8.1640                 4.8093                 6.6294
 Frc consts  --      0.3301                 0.2032                 0.3280
 IR Inten    --     19.0181                 0.1568                 9.2587

                     10                     11                     12
                      A                      A                      A
 Frequencies --    392.5469               395.5576               438.8003
 Red. masses --      8.7328                 4.6384                 3.2975
 Frc consts  --      0.7928                 0.4276                 0.3741
 IR Inten    --     13.2542                 0.1365                 4.3478

                     13                     14                     15
                      A                      A                      A
 Frequencies --    492.2055               494.2409               501.8092
 Red. masses --      5.6388                 4.4358                 7.0164
 Frc consts  --      0.8049                 0.6384                 1.0410
 IR Inten    --     23.0664                 0.1639                 7.2507

                     16                     17                     18
                      A                      A                      A
 Frequencies --    506.6859               525.4826               548.0113
 Red. masses --      3.1337                 7.9640                 3.9725
 Frc consts  --      0.4740                 1.2957                 0.7029
 IR Inten    --      0.2631                19.9383                 0.2436

                     19                     20                     21
                      A                      A                      A
 Frequencies --    578.8739               640.7084               661.4436
 Red. masses --      7.7232                 6.8051                 8.8859
 Frc consts  --      1.5248                 1.6459                 2.2905
 IR Inten    --     65.3412                41.7253                26.6301

                     22                     23                     24
                      A                      A                      A
 Frequencies --    705.4209               717.7067               734.0515
 Red. masses --      6.8251                 1.8049                 1.8990
 Frc consts  --      2.0010                 0.5478                 0.6029
 IR Inten    --     10.2997                52.0777                32.6684

                     25                     26                     27
                      A                      A                      A
 Frequencies --    747.3645               772.5101               801.8597
 Red. masses --      1.8108                 2.0380                 6.6447
 Frc consts  --      0.5959                 0.7166                 2.5172
 IR Inten    --     28.4983                51.3528                19.8022

                     28                     29                     30
                      A                      A                      A
 Frequencies --    820.6095               840.9475               860.0849
 Red. masses --      1.5703                 1.1279                 1.4258
 Frc consts  --      0.6230                 0.4699                 0.6214
 IR Inten    --     23.2438                41.9154                 4.3521

                     31                     32                     33
                      A                      A                      A
 Frequencies --    886.3988               926.2161               947.1338
 Red. masses --      6.3699                 1.3430                 7.1689
 Frc consts  --      2.9488                 0.6788                 3.7890
 IR Inten    --     53.5088                 1.9410                 6.7222

                     34                     35                     36
                      A                      A                      A
 Frequencies --    954.3327               969.3461              1000.3191
 Red. masses --      1.3421                 1.3445                 1.3002
 Frc consts  --      0.7202                 0.7443                 0.7666
 IR Inten    --      2.0102                 0.0018                 0.0064

                     37                     38                     39
                      A                      A                      A
 Frequencies --   1038.0637              1041.1568              1070.5505
 Red. masses --      2.1425                 2.2469                 5.0830
 Frc consts  --      1.3603                 1.4351                 3.4323
 IR Inten    --      1.4906                 3.1144                31.5509

                     40                     41                     42
                      A                      A                      A
 Frequencies --   1136.0091              1147.8994              1176.3056
 Red. masses --      1.4983                 1.3039                 1.1666
 Frc consts  --      1.1392                 1.0123                 0.9511
 IR Inten    --     42.9119                15.2052                25.9387

                     43                     44                     45
                      A                      A                      A
 Frequencies --   1179.8274              1218.5020              1234.2578
 Red. masses --      1.1732                 6.3283                 1.5588
 Frc consts  --      0.9622                 5.5359                 1.3991
 IR Inten    --      9.0975                88.9726               164.6611

                     46                     47                     48
                      A                      A                      A
 Frequencies --   1276.9766              1289.2916              1360.1200
 Red. masses --      1.6429                 2.6430                 2.9048
 Frc consts  --      1.5784                 2.5885                 3.1661
 IR Inten    --     11.4403               245.8138                91.7776

                     49                     50                     51
                      A                      A                      A
 Frequencies --   1370.1143              1403.3001              1432.9390
 Red. masses --      5.4896                 1.9546                 2.4358
 Frc consts  --      6.0716                 2.2678                 2.9467
 IR Inten    --     20.3846                36.4375               242.5667

                     52                     53                     54
                      A                      A                      A
 Frequencies --   1474.0399              1478.6427              1519.6525
 Red. masses --      2.9583                 2.0399                 6.1146
 Frc consts  --      3.7872                 2.6278                 8.3196
 IR Inten    --     66.5813               146.9091                77.9740

                     55                     56                     57
                      A                      A                      A
 Frequencies --   1537.7463              1552.7509              1576.7988
 Red. masses --      4.6952                 6.1850                 3.1295
 Frc consts  --      6.5414                 8.7861                 4.5844
 IR Inten    --     29.0560               532.4129               163.1237

                     58                     59                     60
                      A                      A                      A
 Frequencies --   1597.9205              1634.3527              1652.4176
 Red. masses --      4.9460                 5.4423                 5.9103
 Frc consts  --      7.4407                 8.5649                 9.5083
 IR Inten    --     89.0348               404.8614               198.8215

                     61                     62                     63
                      A                      A                      A
 Frequencies --   3203.9316              3207.5272              3217.9071
 Red. masses --      1.0871                 1.0862                 1.0898
 Frc consts  --      6.5750                 6.5840                 6.6486
 IR Inten    --      2.9203                 8.8877                 3.2315

                     64                     65                     66
                      A                      A                      A
 Frequencies --   3218.2106              3226.7901              3229.7342
 Red. masses --      1.0888                 1.0938                 1.0953
 Frc consts  --      6.6437                 6.7100                 6.7319
 IR Inten    --      1.2490                17.9498                13.0342

                     67                     68                     69
                      A                      A                      A
 Frequencies --   3236.0323              3239.0757              3300.5521
 Red. masses --      1.0992                 1.0990                 1.0693
 Frc consts  --      6.7818                 6.7936                 6.8631
 IR Inten    --     42.1616                24.3334                18.2811

 - Thermochemistry -
 -------------------
 Temperature   298.150 Kelvin.  Pressure   1.00000 Atm.
 Atom     1 has atomic number  6 and mass  12.00000

 Molecular mass:   227.04049 amu.
 Principal axes and moments of inertia in atomic units:
                           1         2         3
     Eigenvalues --  1360.567946376.768887737.33682
           X           -0.69468   0.71932   0.00000
           Y            0.71932   0.69468  -0.00001
           Z            0.00001   0.00000   1.00000
 This molecule is an asymmetric top.
 Rotational symmetry number  1.
 Warning -- assumption of classical behavior for rotation
           may cause significant error
 Rotational temperatures (Kelvin)      0.06366     0.01358     0.01119
 Rotational constants (GHZ):           1.32646     0.28302     0.23325
 Zero-point vibrational energy     489818.6 (Joules/Mol)
                                  117.06946 (Kcal/Mol)
 Warning -- explicit consideration of  19 degrees of freedom as
           vibrations may cause significant error
 Vibrational temperatures:     49.12   100.18   157.01   160.24   263.44
          (Kelvin)            322.65   376.93   385.32   416.96   564.79
                              569.12   631.34   708.17   711.10   721.99
                              729.01   756.05   788.47   832.87   921.84
                              951.67  1014.94  1032.62  1056.14  1075.29
                             1111.47  1153.70  1180.67  1209.94  1237.47
                             1275.33  1332.62  1362.71  1373.07  1394.67
                             1439.24  1493.54  1497.99  1540.28  1634.46
                             1651.57  1692.44  1697.51  1753.15  1775.82
                             1837.28  1855.00  1956.91  1971.29  2019.04
                             2061.68  2120.81  2127.44  2186.44  2212.47
                             2234.06  2268.66  2299.05  2351.47  2377.46
                             4609.74  4614.92  4629.85  4630.29  4642.63
                             4646.87  4655.93  4660.31  4748.76

 Zero-point correction=                           0.186562 (Hartree/Particle)
 Thermal correction to Energy=                    0.198948
 Thermal correction to Enthalpy=                  0.199892
 Thermal correction to Gibbs Free Energy=         0.147023
 Sum of electronic and zero-point Energies=          -1028.502109
 Sum of electronic and thermal Energies=             -1028.489724
 Sum of electronic and thermal Enthalpies=           -1028.488780
 Sum of electronic and thermal Free Energies=        -1028.541648

                     E (Thermal)             CV                S
                      KCal/Mol        Cal/Mol-Kelvin    Cal/Mol-Kelvin
 Total                  124.841             49.723            111.271
 Electronic               0.000              0.000              0.000
 Translational            0.889              2.981             42.162
 Rotational               0.889              2.981             32.573
 Vibrational            123.064             43.762             36.535
 Vibration     1          0.594              1.983              5.573
 Vibration     2          0.598              1.969              4.164
 Vibration     3          0.606              1.942              3.284
 Vibration     4          0.607              1.940              3.245
 Vibration     5          0.631              1.863              2.297
 Vibration     6          0.649              1.804              1.924
 Vibration     7          0.669              1.742              1.649
 Vibration     8          0.673              1.732              1.610
 Vibration     9          0.686              1.693              1.475
 Vibration    10          0.760              1.486              0.990
 Vibration    11          0.762              1.480              0.979
 Vibration    12          0.799              1.386              0.830
 Vibration    13          0.848              1.267              0.678
 Vibration    14          0.850              1.263              0.673
 Vibration    15          0.857              1.246              0.654
 Vibration    16          0.862              1.235              0.642
 Vibration    17          0.880              1.194              0.597
 Vibration    18          0.903              1.144              0.548
 Vibration    19          0.935              1.077              0.487

 Optimization completed.
    -- Stationary point found.
 Normal termination of Gaussian 16 at Mon Jul 13 18:31:34 2020.
