 Gaussian 16, Revision C.01,
 Gaussian 16:  ES64L-G16RevC.01  3-Jul-2019

 ----------------------------------------------------------------------
 #p opt=addgic freq td wb97xd/cc-pvdz nosymm int=ultrafine scrf=(solven
 t=CarbonTetraChloride)
 ----------------------------------------------------------------------

 ------------------------------------------------
 NM 2D-scan of HBT TD-WB97XD pVDZ in CTC Relaxed.
 ------------------------------------------------
 Symbolic Z-matrix:
 Charge =  0 Multiplicity = 1

 SCF Done:  E(RwB97XD) =  -1028.56962078     A.U. after   16 cycles
 Total Energy, E(TD-HF/TD-DFT) =  -1028.46498249
 SCF Done:  E(RwB97XD) =  -1028.73500985     A.U. after   14 cycles
 Total Energy, E(TD-HF/TD-DFT) =  -1028.63303275
 SCF Done:  E(RwB97XD) =  -1028.76839389     A.U. after   15 cycles
 Total Energy, E(TD-HF/TD-DFT) =  -1028.67146180
 SCF Done:  E(RwB97XD) =  -1028.78420241     A.U. after   14 cycles
 Total Energy, E(TD-HF/TD-DFT) =  -1028.68489145
 SCF Done:  E(RwB97XD) =  -1028.78409759     A.U. after   13 cycles
 Total Energy, E(TD-HF/TD-DFT) =  -1028.68520517
 SCF Done:  E(RwB97XD) =  -1028.78528907     A.U. after   11 cycles
 Total Energy, E(TD-HF/TD-DFT) =  -1028.68553363
 SCF Done:  E(RwB97XD) =  -1028.78538238     A.U. after   11 cycles
 Total Energy, E(TD-HF/TD-DFT) =  -1028.68554618
 SCF Done:  E(RwB97XD) =  -1028.78540948     A.U. after    9 cycles
 Total Energy, E(TD-HF/TD-DFT) =  -1028.68554709
 SCF Done:  E(RwB97XD) =  -1028.78541172     A.U. after    9 cycles
 Total Energy, E(TD-HF/TD-DFT) =  -1028.68554719
 SCF Done:  E(RwB97XD) =  -1028.78542643     A.U. after   12 cycles
 Total Energy, E(TD-HF/TD-DFT) =  -1028.68557325
 Total Energy, E(TD-HF/TD-DFT) =  -1028.64977268
 Total Energy, E(TD-HF/TD-DFT) =  -1028.68825705
 Total Energy, E(TD-HF/TD-DFT) =  -1028.68948422
 Total Energy, E(TD-HF/TD-DFT) =  -1028.69161202
 Total Energy, E(TD-HF/TD-DFT) =  -1028.69481853
 Total Energy, E(TD-HF/TD-DFT) =  -1028.69628843
 Total Energy, E(TD-HF/TD-DFT) =  -1028.69730161
 Total Energy, E(TD-HF/TD-DFT) =  -1028.69792409
 Total Energy, E(TD-HF/TD-DFT) =  -1028.69844045
 SCF Done:  E(RwB97XD) =  -1028.77605232     A.U. after   14 cycles
 Total Energy, E(TD-HF/TD-DFT) =  -1028.69864617
 SCF Done:  E(RwB97XD) =  -1028.77465365     A.U. after   13 cycles
 Total Energy, E(TD-HF/TD-DFT) =  -1028.69876958
 SCF Done:  E(RwB97XD) =  -1028.77524182     A.U. after   12 cycles
 Total Energy, E(TD-HF/TD-DFT) =  -1028.69877684
 SCF Done:  E(RwB97XD) =  -1028.77480723     A.U. after   12 cycles
 Total Energy, E(TD-HF/TD-DFT) =  -1028.69878372
 SCF Done:  E(RwB97XD) =  -1028.77510709     A.U. after   12 cycles
 Total Energy, E(TD-HF/TD-DFT) =  -1028.69878449
 SCF Done:  E(RwB97XD) =  -1028.77483616     A.U. after   11 cycles
 Total Energy, E(TD-HF/TD-DFT) =  -1028.69878502
 SCF Done:  E(RwB97XD) =  -1028.77497335     A.U. after   11 cycles
 Total Energy, E(TD-HF/TD-DFT) =  -1028.69878590
 SCF Done:  E(RwB97XD) =  -1028.77493011     A.U. after   10 cycles
 Total Energy, E(TD-HF/TD-DFT) =  -1028.69878589
 SCF Done:  E(RwB97XD) =  -1028.77490392     A.U. after   10 cycles
 Total Energy, E(TD-HF/TD-DFT) =  -1028.69878593
 Optimization completed.
    -- Stationary point found.
 Normal termination of Gaussian 16 at Tue Jul 14 00:10:51 2020.

 ----------------------------------------------------------------------
 #P Geom=AllCheck Guess=TCheck SCRF=Check GenChk RwB97XD TD(FC,Read)/CC
 -pVDZ Freq
 ----------------------------------------------------------------------

 Structure from the checkpoint file:  "config_12_8.chk"
 ------------------------------------------------
 NM 2D-scan of HBT TD-WB97XD pVDZ in CTC Relaxed.
 ------------------------------------------------
 Charge =  0 Multiplicity = 1

                          Input orientation:
 ---------------------------------------------------------------------
 Center     Atomic      Atomic             Coordinates (Angstroms)
 Number     Number       Type             X           Y           Z
 ---------------------------------------------------------------------
      1          6           0        1.740689   -3.147682    0.604363
      2          6           0        1.048755   -1.978753    0.294958
      3          6           0        1.700555   -0.886994   -0.306245
      4          6           0        3.065672   -0.955448   -0.597685
      5          6           0        3.754497   -2.121862   -0.281314
      6          6           0        3.100868   -3.210747    0.308634
      7          1           0        1.230331   -3.989992    1.072568
      8          1           0        3.570622   -0.107654   -1.062077
      9          1           0        4.821137   -2.187868   -0.500659
     10          1           0        3.659929   -4.117592    0.542469
     11          7           0        0.854617    0.180306   -0.559950
     12         16           0       -0.651460   -1.614817    0.584524
     13          6           0       -1.410980    1.049406   -0.088677
     14          6           0       -2.692694    0.958728   -0.598637
     15          6           0       -0.944836    2.310321    0.494818
     16          6           0       -3.607489    2.019623   -0.443273
     17          1           0       -3.010521    0.039026   -1.093669
     18          6           0       -1.897809    3.372739    0.599098
     19          6           0       -3.205453    3.215460    0.160516
     20          1           0       -4.635396    1.897532   -0.787265
     21          1           0       -1.571139    4.285101    1.101217
     22          1           0       -3.923726    4.027167    0.287756
     23          6           0       -0.441429   -0.039234   -0.157152
     24          8           0        0.265963    2.428308    0.840607
     25          1           0        1.176025    1.149674   -0.414848
 ---------------------------------------------------------------------

 SCF Done:  E(RwB97XD) =  -1028.77490392     A.U. after    1 cycles

 Excitation energies and oscillator strengths:

 Excited state symmetry could not be determined.
 Excited State   1:      Singlet-?Sym    2.0713 eV  598.59 nm  f=0.1298  <S**2>=0.000
      58 -> 60         0.11754
      59 -> 60         0.68425
 This state for optimization and/or second-order correction.
 Total Energy, E(TD-HF/TD-DFT) =  -1028.69878596
 Copying the excited state density for this state as the 1-particle RhoCI density.

 Excited state symmetry could not be determined.
 Excited State   2:      Singlet-?Sym    3.1511 eV  393.47 nm  f=0.0518  <S**2>=0.000
      58 -> 60         0.67876
      59 -> 60        -0.11980

 Excited state symmetry could not be determined.
 Excited State   3:      Singlet-?Sym    4.0897 eV  303.16 nm  f=0.1734  <S**2>=0.000
      57 -> 60         0.64407
      59 -> 63         0.20239

 Alpha  occ. eigenvalues --  -89.11941 -19.18789 -14.53948 -10.43379 -10.38049
 Alpha  occ. eigenvalues --  -10.37028 -10.34417 -10.34016 -10.33654 -10.33220
 Alpha  occ. eigenvalues --  -10.33083 -10.30598 -10.29981 -10.29630 -10.27916
 Alpha  occ. eigenvalues --  -10.27252  -8.13857  -6.08717  -6.08344  -6.07917
 Alpha  occ. eigenvalues --   -1.13191  -1.07394  -0.99114  -0.95455  -0.93213
 Alpha  occ. eigenvalues --   -0.89002  -0.87139  -0.83812  -0.80282  -0.75578
 Alpha  occ. eigenvalues --   -0.73906  -0.72439  -0.68722  -0.66908  -0.65180
 Alpha  occ. eigenvalues --   -0.60938  -0.59856  -0.58105  -0.56110  -0.55389
 Alpha  occ. eigenvalues --   -0.54872  -0.53102  -0.52610  -0.50085  -0.49838
 Alpha  occ. eigenvalues --   -0.47929  -0.47325  -0.46993  -0.45729  -0.45237
 Alpha  occ. eigenvalues --   -0.43420  -0.42533  -0.42065  -0.38960  -0.35791
 Alpha  occ. eigenvalues --   -0.34481  -0.32086  -0.29809  -0.24641
 Alpha virt. eigenvalues --   -0.02812   0.03089   0.04424   0.05131   0.07911
 Alpha virt. eigenvalues --    0.10485   0.14013   0.15230   0.15959   0.17193
 Alpha virt. eigenvalues --    0.18160   0.19589   0.20081   0.20775   0.21961

 Mulliken charges:
               1
     1  C    0.022126
     2  C   -0.226469
     3  C    0.233569
     4  C   -0.006574
     5  C    0.013405
     6  C    0.006812
     7  H    0.030718
     8  H    0.034670
     9  H    0.031973
    10  H    0.031399
    11  N   -0.121661
    12  S    0.270949
    13  C   -0.135417
    14  C    0.026671
    15  C    0.092762
    16  C   -0.053653
    17  H   -0.007964
    18  C   -0.050982
    19  C    0.026732
    20  H   -0.005638
    21  H   -0.004097
    22  H    0.006765
    23  C    0.039466
    24  O   -0.419269
    25  H    0.163706
 Sum of Mulliken charges =  -0.00000

 Dipole moment (field-independent basis, Debye):
    X=              3.2889    Y=             -7.0987    Z=             -1.5969  Tot=              7.9849
 Quadrupole moment (field-independent basis, Debye-Ang):
   XX=            -84.2470   YY=            -96.3863   ZZ=           -102.5342
   XY=             -5.7228   XZ=             -2.5492   YZ=             -6.8927

  Exact polarizability:     257.884     -46.158     191.226       6.132     -10.750      89.946
 Approx polarizability:     256.682     -38.058     235.808      -0.375      -6.378     112.418

 ******    1 imaginary frequencies (negative Signs) ******

                      1                      2                      3
                      A                      A                      A
 Frequencies --    -60.1222                38.1311                73.3988
 Red. masses --      5.9141                 6.3567                 5.3862
 Frc consts  --      0.0126                 0.0054                 0.0171
 IR Inten    --      7.1660                 3.2396                 6.1152

                      4                      5                      6
                      A                      A                      A
 Frequencies --    157.2003               173.6015               200.7541
 Red. masses --      6.1005                 6.2014                 5.2301
 Frc consts  --      0.0888                 0.1101                 0.1242
 IR Inten    --     13.3235                 1.4018                 2.8878

                      7                      8                      9
                      A                      A                      A
 Frequencies --    260.3667               280.2422               309.8807
 Red. masses --      6.9452                 4.7960                 7.9027
 Frc consts  --      0.2774                 0.2219                 0.4471
 IR Inten    --      6.7457                 1.6546                 2.3404

                     10                     11                     12
                      A                      A                      A
 Frequencies --    316.8023               375.1897               438.5214
 Red. masses --      3.9564                 5.6381                 3.1416
 Frc consts  --      0.2340                 0.4676                 0.3559
 IR Inten    --     22.8175                 7.2256                 7.1715

                     13                     14                     15
                      A                      A                      A
 Frequencies --    454.5362               504.6921               520.6593
 Red. masses --      4.0022                 6.6473                 2.9476
 Frc consts  --      0.4872                 0.9976                 0.4708
 IR Inten    --     25.3356                 4.7360                22.1256

                     16                     17                     18
                      A                      A                      A
 Frequencies --    525.1092               536.0330               565.4245
 Red. masses --      2.4801                 5.9546                 5.9983
 Frc consts  --      0.4029                 1.0081                 1.1299
 IR Inten    --     56.4476                49.1364                24.4607

                     19                     20                     21
                      A                      A                      A
 Frequencies --    567.1255               583.8605               663.0216
 Red. masses --      4.2567                 5.6865                 4.4106
 Frc consts  --      0.8066                 1.1421                 1.1424
 IR Inten    --     13.9007                22.6780                 6.8390

                     22                     23                     24
                      A                      A                      A
 Frequencies --    701.2994               719.1474               738.7965
 Red. masses --      3.2798                 4.4008                 2.0992
 Frc consts  --      0.9504                 1.3410                 0.6751
 IR Inten    --     39.9259                16.6030                 6.3377

                     25                     26                     27
                      A                      A                      A
 Frequencies --    748.2057               771.3155               792.2991
 Red. masses --      2.5391                 1.5554                 2.2325
 Frc consts  --      0.8375                 0.5452                 0.8257
 IR Inten    --     14.5069                58.6932                39.6269

                     28                     29                     30
                      A                      A                      A
 Frequencies --    826.6750               873.3587               885.4327
 Red. masses --      5.5426                 1.5127                 2.0124
 Frc consts  --      2.2317                 0.6798                 0.9296
 IR Inten    --      8.5231                 0.0774                 7.3332

                     31                     32                     33
                      A                      A                      A
 Frequencies --    887.5447               959.8109               962.1201
 Red. masses --      2.6353                 1.5014                 1.3650
 Frc consts  --      1.2231                 0.8149                 0.7445
 IR Inten    --      2.4501                 7.7206                 0.6351

                     34                     35                     36
                      A                      A                      A
 Frequencies --    977.8420               994.6907              1007.4279
 Red. masses --      4.2130                 1.3457                 1.2975
 Frc consts  --      2.3735                 0.7844                 0.7759
 IR Inten    --     16.4040                 7.7500                 0.0086

                     37                     38                     39
                      A                      A                      A
 Frequencies --   1050.7476              1057.0108              1092.7899
 Red. masses --      2.0570                 2.1018                 3.9811
 Frc consts  --      1.3381                 1.3836                 2.8011
 IR Inten    --      0.4809                 6.7724                 4.6963

                     40                     41                     42
                      A                      A                      A
 Frequencies --   1124.5211              1157.0907              1163.5474
 Red. masses --      1.5333                 1.3672                 1.1795
 Frc consts  --      1.1424                 1.0785                 0.9408
 IR Inten    --     23.9350                 3.3532                53.3218

                     43                     44                     45
                      A                      A                      A
 Frequencies --   1179.8104              1226.4567              1253.6956
 Red. masses --      1.1487                 2.8920                 2.2391
 Frc consts  --      0.9421                 2.5630                 2.0735
 IR Inten    --      9.8136                37.5014                22.9883

                     46                     47                     48
                      A                      A                      A
 Frequencies --   1292.3556              1298.8860              1315.2565
 Red. masses --      1.8513                 3.4355                 1.9219
 Frc consts  --      1.8218                 3.4149                 1.9588
 IR Inten    --      2.9402                 3.7140                61.3007

                     49                     50                     51
                      A                      A                      A
 Frequencies --   1353.0892              1395.7439              1403.6830
 Red. masses --      4.2524                 2.3481                 2.0528
 Frc consts  --      4.5871                 2.6951                 2.3830
 IR Inten    --    222.0824                25.9373               125.3816

                     52                     53                     54
                      A                      A                      A
 Frequencies --   1444.0318              1464.2283              1509.4803
 Red. masses --      2.9819                 3.5242                 2.7480
 Frc consts  --      3.6636                 4.4517                 3.6891
 IR Inten    --    443.8306                52.9851                69.6248

                     55                     56                     57
                      A                      A                      A
 Frequencies --   1522.3526              1543.6249              1578.0306
 Red. masses --      3.3881                 5.4051                 4.4331
 Frc consts  --      4.6263                 7.5882                 6.5041
 IR Inten    --     92.5404                56.4112                46.7458

                     58                     59                     60
                      A                      A                      A
 Frequencies --   1631.3877              1656.9618              1674.5228
 Red. masses --      6.1141                 6.6805                 6.8869
 Frc consts  --      9.5873                10.8064                11.3777
 IR Inten    --    209.7327                 3.8986                15.0835

                     61                     62                     63
                      A                      A                      A
 Frequencies --   3205.1981              3211.0386              3212.2261
 Red. masses --      1.0870                 1.0896                 1.0859
 Frc consts  --      6.5795                 6.6193                 6.6014
 IR Inten    --      6.3702                 6.6176                 0.9993

                     64                     65                     66
                      A                      A                      A
 Frequencies --   3221.1928              3223.8105              3229.8981
 Red. masses --      1.0903                 1.0938                 1.0959
 Frc consts  --      6.6653                 6.6980                 6.7359
 IR Inten    --      3.2515                12.3626                10.2223

                     67                     68                     69
                      A                      A                      A
 Frequencies --   3234.3139              3238.6301              3404.5384
 Red. masses --      1.0992                 1.0998                 1.0803
 Frc consts  --      6.7747                 6.7966                 7.3777
 IR Inten    --     14.6972                13.9669              1273.3554

 - Thermochemistry -
 -------------------
 Temperature   298.150 Kelvin.  Pressure   1.00000 Atm.
 Atom     1 has atomic number  6 and mass  12.00000

 Molecular mass:   227.04049 amu.
 Principal axes and moments of inertia in atomic units:
                           1         2         3
     Eigenvalues --  1274.234826538.892537401.69146
           X            0.71591   0.69769   0.02666
           Y           -0.69818   0.71566   0.01955
           Z           -0.00544  -0.03261   0.99945
 This molecule is an asymmetric top.
 Rotational symmetry number  1.
 Warning -- assumption of classical behavior for rotation
           may cause significant error
 Rotational temperatures (Kelvin)      0.06797     0.01325     0.01170
 Rotational constants (GHZ):           1.41633     0.27600     0.24383
    1 imaginary frequencies ignored.
 Zero-point vibrational energy     490233.7 (Joules/Mol)
                                  117.16866 (Kcal/Mol)
 Warning -- explicit consideration of  19 degrees of freedom as
           vibrations may cause significant error
 Vibrational temperatures:     54.86   105.60   226.18   249.77   288.84
          (Kelvin)            374.61   403.21   445.85   455.81   539.81
                              630.93   653.98   726.14   749.11   755.51
                              771.23   813.52   815.97   840.05   953.94
                             1009.01  1034.69  1062.96  1076.50  1109.75
                             1139.94  1189.40  1256.57  1273.94  1276.98
                             1380.95  1384.28  1406.90  1431.14  1449.46
                             1511.79  1520.80  1572.28  1617.93  1664.80
                             1674.09  1697.48  1764.60  1803.79  1859.41
                             1868.81  1892.36  1946.79  2008.16  2019.59
                             2077.64  2106.70  2171.81  2190.33  2220.93
                             2270.43  2347.20  2384.00  2409.26  4611.57
                             4619.97  4621.68  4634.58  4638.34  4647.10
                             4653.46  4659.67  4898.37

 Zero-point correction=                           0.186720 (Hartree/Particle)
 Thermal correction to Energy=                    0.198387
 Thermal correction to Enthalpy=                  0.199331
 Thermal correction to Gibbs Free Energy=         0.148297
 Sum of electronic and zero-point Energies=          -1028.512066
 Sum of electronic and thermal Energies=             -1028.500399
 Sum of electronic and thermal Enthalpies=           -1028.499455
 Sum of electronic and thermal Free Energies=        -1028.550489

                     E (Thermal)             CV                S
                      KCal/Mol        Cal/Mol-Kelvin    Cal/Mol-Kelvin
 Total                  124.490             47.754            107.410
 Electronic               0.000              0.000              0.000
 Translational            0.889              2.981             42.162
 Rotational               0.889              2.981             32.489
 Vibrational            122.712             41.793             32.759
 Vibration     1          0.594              1.982              5.354
 Vibration     2          0.599              1.967              4.060
 Vibration     3          0.621              1.895              2.583
 Vibration     4          0.627              1.875              2.396
 Vibration     5          0.638              1.839              2.126
 Vibration     6          0.668              1.745              1.659
 Vibration     7          0.680              1.710              1.532
 Vibration     8          0.699              1.655              1.363
 Vibration     9          0.704              1.642              1.327
 Vibration    10          0.746              1.523              1.059
 Vibration    11          0.799              1.386              0.831
 Vibration    12          0.813              1.351              0.782
 Vibration    13          0.860              1.240              0.646
 Vibration    14          0.876              1.204              0.608
 Vibration    15          0.880              1.194              0.598
 Vibration    16          0.891              1.170              0.574
 Vibration    17          0.921              1.106              0.513
 Vibration    18          0.923              1.102              0.510
 Vibration    19          0.941              1.066              0.478

 Optimization completed.
    -- Stationary point found.
 Normal termination of Gaussian 16 at Tue Jul 14 00:28:48 2020.
