 Gaussian 16, Revision C.01,
 Gaussian 16:  ES64L-G16RevC.01  3-Jul-2019

 ----------------------------------------------------------------------
 #p opt=addgic freq td wb97xd/cc-pvdz nosymm int=ultrafine scrf=(solven
 t=CarbonTetraChloride)
 ----------------------------------------------------------------------

 ------------------------------------------------
 NM 2D-scan of HBT TD-WB97XD pVDZ in CTC Relaxed.
 ------------------------------------------------
 Symbolic Z-matrix:
 Charge =  0 Multiplicity = 1

 SCF Done:  E(RwB97XD) =  -1028.66280455     A.U. after   16 cycles
 Total Energy, E(TD-HF/TD-DFT) =  -1028.55716701
 SCF Done:  E(RwB97XD) =  -1028.76677496     A.U. after   14 cycles
 Total Energy, E(TD-HF/TD-DFT) =  -1028.66472832
 SCF Done:  E(RwB97XD) =  -1028.78909032     A.U. after   14 cycles
 Total Energy, E(TD-HF/TD-DFT) =  -1028.69110988
 SCF Done:  E(RwB97XD) =  -1028.79484916     A.U. after   12 cycles
 Total Energy, E(TD-HF/TD-DFT) =  -1028.69409714
 SCF Done:  E(RwB97XD) =  -1028.79526608     A.U. after   12 cycles
 Total Energy, E(TD-HF/TD-DFT) =  -1028.69471655
 SCF Done:  E(RwB97XD) =  -1028.79555135     A.U. after   11 cycles
 Total Energy, E(TD-HF/TD-DFT) =  -1028.69476174
 SCF Done:  E(RwB97XD) =  -1028.79562425     A.U. after   10 cycles
 Total Energy, E(TD-HF/TD-DFT) =  -1028.69476605
 Optimization completed.
    -- Stationary point found.
 Normal termination of Gaussian 16 at Mon Jul 13 19:34:52 2020.

 ----------------------------------------------------------------------
 #P Geom=AllCheck Guess=TCheck SCRF=Check GenChk RwB97XD TD(FC,Read)/CC
 -pVDZ Freq
 ----------------------------------------------------------------------

 Structure from the checkpoint file:  "config_11_13.chk"
 ------------------------------------------------
 NM 2D-scan of HBT TD-WB97XD pVDZ in CTC Relaxed.
 ------------------------------------------------
 Charge =  0 Multiplicity = 1

                          Input orientation:
 ---------------------------------------------------------------------
 Center     Atomic      Atomic             Coordinates (Angstroms)
 Number     Number       Type             X           Y           Z
 ---------------------------------------------------------------------
      1          6           0        1.619618   -3.294834    0.000102
      2          6           0        1.015875   -2.044186    0.000040
      3          6           0        1.782293   -0.876306   -0.000075
      4          6           0        3.182164   -0.929536   -0.000125
      5          6           0        3.779982   -2.186444   -0.000062
      6          6           0        3.013322   -3.357462    0.000049
      7          1           0        1.018588   -4.204264    0.000187
      8          1           0        3.776724   -0.015166   -0.000209
      9          1           0        4.868839   -2.255500   -0.000099
     10          1           0        3.507722   -4.329260    0.000094
     11          7           0        0.982735    0.230174   -0.000129
     12         16           0       -0.705224   -1.646794    0.000077
     13          6           0       -1.371309    1.105501   -0.000022
     14          6           0       -2.724284    0.822411   -0.000110
     15          6           0       -0.916663    2.511910    0.000111
     16          6           0       -3.707740    1.859302   -0.000050
     17          1           0       -3.067862   -0.215384   -0.000234
     18          6           0       -1.950526    3.511761    0.000164
     19          6           0       -3.319892    3.190193    0.000090
     20          1           0       -4.763098    1.582746   -0.000114
     21          1           0       -1.620626    4.552620    0.000294
     22          1           0       -4.070548    3.982205    0.000142
     23          6           0       -0.372377    0.062145   -0.000044
     24          8           0        0.309408    2.758945    0.000205
     25          1           0        1.433836    1.119101   -0.000194
 ---------------------------------------------------------------------

 SCF Done:  E(RwB97XD) =  -1028.79562425     A.U. after    1 cycles

 Excitation energies and oscillator strengths:

 Excited state symmetry could not be determined.
 Excited State   1:      Singlet-?Sym    2.7445 eV  451.76 nm  f=0.4365  <S**2>=0.000
      59 -> 60         0.69741
 This state for optimization and/or second-order correction.
 Total Energy, E(TD-HF/TD-DFT) =  -1028.69476604
 Copying the excited state density for this state as the 1-particle RhoCI density.

 Excited state symmetry could not be determined.
 Excited State   2:      Singlet-?Sym    3.3758 eV  367.28 nm  f=0.0000  <S**2>=0.000
      58 -> 60         0.68389
      58 -> 62         0.11527
      58 -> 64         0.10599

 Excited state symmetry could not be determined.
 Excited State   3:      Singlet-?Sym    4.2956 eV  288.63 nm  f=0.4362  <S**2>=0.000
      57 -> 60         0.68319

 Alpha  occ. eigenvalues --  -89.10533 -19.20221 -14.52987 -10.42543 -10.37455
 Alpha  occ. eigenvalues --  -10.36220 -10.35366 -10.33550 -10.33350 -10.32852
 Alpha  occ. eigenvalues --  -10.32559 -10.31366 -10.30870 -10.30568 -10.29025
 Alpha  occ. eigenvalues --  -10.28127  -8.12556  -6.07435  -6.07047  -6.06576
 Alpha  occ. eigenvalues --   -1.13324  -1.09062  -0.98649  -0.95624  -0.93280
 Alpha  occ. eigenvalues --   -0.89086  -0.86840  -0.84030  -0.80741  -0.75922
 Alpha  occ. eigenvalues --   -0.74341  -0.72074  -0.69273  -0.67505  -0.64978
 Alpha  occ. eigenvalues --   -0.61068  -0.59786  -0.56509  -0.56245  -0.56029
 Alpha  occ. eigenvalues --   -0.55095  -0.53711  -0.53055  -0.50465  -0.48697
 Alpha  occ. eigenvalues --   -0.48680  -0.48328  -0.47067  -0.45585  -0.44865
 Alpha  occ. eigenvalues --   -0.44064  -0.42813  -0.42234  -0.39886  -0.36926
 Alpha  occ. eigenvalues --   -0.33821  -0.31541  -0.30774  -0.25390
 Alpha virt. eigenvalues --   -0.02208   0.03553   0.05671   0.06598   0.09693
 Alpha virt. eigenvalues --    0.10891   0.13275   0.14517   0.16047   0.16800
 Alpha virt. eigenvalues --    0.18038   0.19833   0.20810   0.21250   0.22709

 Mulliken charges:
               1
     1  C    0.017133
     2  C   -0.242719
     3  C    0.223924
     4  C   -0.010475
     5  C    0.012735
     6  C    0.003360
     7  H    0.025897
     8  H    0.032545
     9  H    0.029123
    10  H    0.027821
    11  N   -0.094439
    12  S    0.200405
    13  C   -0.075275
    14  C   -0.036574
    15  C    0.105835
    16  C   -0.038060
    17  H    0.006871
    18  C   -0.051273
    19  C    0.034581
    20  H    0.000799
    21  H   -0.001192
    22  H    0.013633
    23  C    0.079883
    24  O   -0.386768
    25  H    0.122231
 Sum of Mulliken charges =  -0.00000

 Dipole moment (field-independent basis, Debye):
    X=              2.5214    Y=             -6.1470    Z=             -0.0006  Tot=              6.6441
 Quadrupole moment (field-independent basis, Debye-Ang):
   XX=            -81.4401   YY=            -96.8855   ZZ=           -104.1549
   XY=             -6.0493   XZ=             -0.0008   YZ=             -0.0015

  Exact polarizability:     346.939    -118.726     291.663      -0.001       0.001      63.263
 Approx polarizability:     275.479     -39.379     264.575      -0.001       0.002      81.981

 ******    1 imaginary frequencies (negative Signs) ******

                      1                      2                      3
                      A                      A                      A
 Frequencies --    -74.1925                49.1320               102.0201
 Red. masses --      5.2318                 6.4827                 5.4335
 Frc consts  --      0.0170                 0.0092                 0.0333
 IR Inten    --      2.5538                 1.1493                 0.2047

                      4                      5                      6
                      A                      A                      A
 Frequencies --    112.4128               176.0374               226.2007
 Red. masses --      5.7308                 5.2194                 5.6917
 Frc consts  --      0.0427                 0.0953                 0.1716
 IR Inten    --      5.7479                 0.0068                 1.5269

                      7                      8                      9
                      A                      A                      A
 Frequencies --    265.1269               269.9250               294.1906
 Red. masses --      7.7238                 4.1388                 8.5291
 Frc consts  --      0.3199                 0.1777                 0.4349
 IR Inten    --      1.0595                 3.5944                 2.2045

                     10                     11                     12
                      A                      A                      A
 Frequencies --    340.4509               379.3190               419.1372
 Red. masses --      4.3120                 7.2181                 3.4935
 Frc consts  --      0.2945                 0.6119                 0.3616
 IR Inten    --      1.2996                 7.5411                 9.7366

                     13                     14                     15
                      A                      A                      A
 Frequencies --    442.5727               501.1388               514.4062
 Red. masses --      4.0588                 8.2961                 2.9581
 Frc consts  --      0.4684                 1.2275                 0.4612
 IR Inten    --      6.4637                10.1955                 0.7505

                     16                     17                     18
                      A                      A                      A
 Frequencies --    527.0035               541.9633               547.2234
 Red. masses --      1.2689                 8.4787                 6.8185
 Frc consts  --      0.2076                 1.4673                 1.2030
 IR Inten    --     55.3685                12.4772                39.9573

                     19                     20                     21
                      A                      A                      A
 Frequencies --    561.8714               566.1263               642.0654
 Red. masses --      3.2025                 7.3197                 6.4179
 Frc consts  --      0.5957                 1.3822                 1.5588
 IR Inten    --      3.1337                 6.0729                18.4298

                     22                     23                     24
                      A                      A                      A
 Frequencies --    690.0972               710.8077               737.5574
 Red. masses --      1.5127                 5.9666                 7.6376
 Frc consts  --      0.4244                 1.7761                 2.4479
 IR Inten    --     30.2152                 1.8363                 5.8879

                     25                     26                     27
                      A                      A                      A
 Frequencies --    744.4846               758.5427               767.1071
 Red. masses --      2.4898                 1.6915                 1.6922
 Frc consts  --      0.8131                 0.5734                 0.5867
 IR Inten    --     19.7074                10.0245                87.8923

                     28                     29                     30
                      A                      A                      A
 Frequencies --    819.8854               837.7807               865.5963
 Red. masses --      6.2954                 1.9718                 1.3828
 Frc consts  --      2.4933                 0.8154                 0.6104
 IR Inten    --     17.0208                 1.2289                 1.2973

                     31                     32                     33
                      A                      A                      A
 Frequencies --    893.1997               900.8309               952.9105
 Red. masses --      5.6128                 1.4439                 1.3581
 Frc consts  --      2.6383                 0.6903                 0.7266
 IR Inten    --      1.4554                 9.0129                 0.4182

                     34                     35                     36
                      A                      A                      A
 Frequencies --    957.1781               967.8437              1003.7440
 Red. masses --      1.3523                 5.3074                 1.2962
 Frc consts  --      0.7300                 2.9291                 0.7694
 IR Inten    --      1.7224                 1.6825                 0.0042

                     37                     38                     39
                      A                      A                      A
 Frequencies --   1043.2398              1054.6947              1088.4017
 Red. masses --      2.2340                 2.1438                 3.4926
 Frc consts  --      1.4325                 1.4051                 2.4377
 IR Inten    --      0.6138                 9.0762                 3.7581

                     40                     41                     42
                      A                      A                      A
 Frequencies --   1101.3098              1152.3576              1159.1668
 Red. masses --      1.7333                 1.3500                 1.1939
 Frc consts  --      1.2386                 1.0562                 0.9451
 IR Inten    --     24.4751                 5.8366                51.8531

                     43                     44                     45
                      A                      A                      A
 Frequencies --   1179.5094              1198.6918              1238.8389
 Red. masses --      1.1435                 1.5711                 2.4566
 Frc consts  --      0.9373                 1.3301                 2.2214
 IR Inten    --     27.9826                46.0452                16.5174

                     46                     47                     48
                      A                      A                      A
 Frequencies --   1258.0839              1300.7218              1336.4059
 Red. masses --      2.2758                 1.5712                 4.0715
 Frc consts  --      2.1223                 1.5662                 4.2843
 IR Inten    --     53.9195                 8.2980                13.2939

                     49                     50                     51
                      A                      A                      A
 Frequencies --   1361.7981              1401.0660              1401.5856
 Red. masses --      2.7161                 3.6388                 2.9041
 Frc consts  --      2.9677                 4.2084                 3.3612
 IR Inten    --     60.3869                91.4972                 6.1985

                     52                     53                     54
                      A                      A                      A
 Frequencies --   1443.0367              1471.3344              1516.3541
 Red. masses --      2.8381                 3.1403                 3.4374
 Frc consts  --      3.4820                 4.0054                 4.6567
 IR Inten    --    122.3904                 4.0812                96.1679

                     55                     56                     57
                      A                      A                      A
 Frequencies --   1520.7113              1551.0322              1608.0353
 Red. masses --      3.0756                 4.9930                 5.2440
 Frc consts  --      4.1906                 7.0771                 7.9891
 IR Inten    --      2.3158               191.8508               108.1421

                     58                     59                     60
                      A                      A                      A
 Frequencies --   1636.6611              1666.0768              1675.6990
 Red. masses --      8.3621                 6.9763                 6.9843
 Frc consts  --     13.1973                11.4094                11.5549
 IR Inten    --    149.1573                66.8729                80.3340

                     61                     62                     63
                      A                      A                      A
 Frequencies --   3191.8887              3208.5013              3214.0315
 Red. masses --      1.0889                 1.0863                 1.0862
 Frc consts  --      6.5363                 6.5887                 6.6110
 IR Inten    --     26.4514                 2.6478                 4.4696

                     64                     65                     66
                      A                      A                      A
 Frequencies --   3219.9126              3224.9897              3233.0453
 Red. masses --      1.0916                 1.0901                 1.0959
 Frc consts  --      6.6678                 6.6802                 6.7492
 IR Inten    --     15.2310                 2.9158                 7.0192

                     67                     68                     69
                      A                      A                      A
 Frequencies --   3233.3546              3241.1087              3815.7577
 Red. masses --      1.0990                 1.0994                 1.0794
 Frc consts  --      6.7697                 6.8046                 9.2598
 IR Inten    --     27.1231                12.4571               285.9965

 - Thermochemistry -
 -------------------
 Temperature   298.150 Kelvin.  Pressure   1.00000 Atm.
 Atom     1 has atomic number  6 and mass  12.00000

 Molecular mass:   227.04049 amu.
 Principal axes and moments of inertia in atomic units:
                           1         2         3
     Eigenvalues --  1270.845396517.991607788.83697
           X           -0.70520   0.70901   0.00000
           Y            0.70901   0.70520  -0.00001
           Z            0.00001   0.00001   1.00000
 This molecule is an asymmetric top.
 Rotational symmetry number  1.
 Warning -- assumption of classical behavior for rotation
           may cause significant error
 Rotational temperatures (Kelvin)      0.06815     0.01329     0.01112
 Rotational constants (GHZ):           1.42011     0.27689     0.23171
    1 imaginary frequencies ignored.
 Zero-point vibrational energy     490668.1 (Joules/Mol)
                                  117.27248 (Kcal/Mol)
 Warning -- explicit consideration of  19 degrees of freedom as
           vibrations may cause significant error
 Vibrational temperatures:     70.69   146.78   161.74   253.28   325.45
          (Kelvin)            381.46   388.36   423.27   489.83   545.76
                              603.04   636.76   721.03   740.12   758.24
                              779.76   787.33   808.41   814.53   923.79
                              992.90  1022.69  1061.18  1071.15  1091.37
                             1103.70  1179.63  1205.38  1245.40  1285.12
                             1296.09  1371.03  1377.17  1392.51  1444.16
                             1500.99  1517.47  1565.97  1584.54  1657.99
                             1667.78  1697.05  1724.65  1782.41  1810.10
                             1871.45  1922.79  1959.32  2015.82  2016.57
                             2076.21  2116.92  2181.70  2187.96  2231.59
                             2313.60  2354.79  2397.11  2410.96  4592.42
                             4616.32  4624.27  4632.74  4640.04  4651.63
                             4652.08  4663.23  5490.02

 Zero-point correction=                           0.186886 (Hartree/Particle)
 Thermal correction to Energy=                    0.198631
 Thermal correction to Enthalpy=                  0.199576
 Thermal correction to Gibbs Free Energy=         0.148697
 Sum of electronic and zero-point Energies=          -1028.507880
 Sum of electronic and thermal Energies=             -1028.496135
 Sum of electronic and thermal Enthalpies=           -1028.495190
 Sum of electronic and thermal Free Energies=        -1028.546069

                     E (Thermal)             CV                S
                      KCal/Mol        Cal/Mol-Kelvin    Cal/Mol-Kelvin
 Total                  124.643             48.322            107.082
 Electronic               0.000              0.000              0.000
 Translational            0.889              2.981             42.162
 Rotational               0.889              2.981             32.534
 Vibrational            122.866             42.360             32.387
 Vibration     1          0.595              1.978              4.852
 Vibration     2          0.604              1.948              3.415
 Vibration     3          0.607              1.939              3.227
 Vibration     4          0.628              1.872              2.370
 Vibration     5          0.650              1.801              1.909
 Vibration     6          0.671              1.737              1.628
 Vibration     7          0.674              1.729              1.597
 Vibration     8          0.689              1.685              1.450
 Vibration     9          0.720              1.595              1.210
 Vibration    10          0.749              1.514              1.042
 Vibration    11          0.782              1.429              0.895
 Vibration    12          0.802              1.377              0.819
 Vibration    13          0.857              1.247              0.655
 Vibration    14          0.869              1.218              0.623
 Vibration    15          0.882              1.190              0.594
 Vibration    16          0.897              1.157              0.561
 Vibration    17          0.902              1.146              0.550
 Vibration    18          0.918              1.114              0.520
 Vibration    19          0.922              1.105              0.512

 Optimization completed.
    -- Stationary point found.
 Normal termination of Gaussian 16 at Mon Jul 13 19:52:26 2020.
