 Gaussian 16, Revision C.01,
 Gaussian 16:  ES64L-G16RevC.01  3-Jul-2019

 ----------------------------------------------------------------------
 #p opt=addgic freq td wb97xd/cc-pvdz nosymm int=ultrafine scrf=(solven
 t=CarbonTetraChloride)
 ----------------------------------------------------------------------

 ------------------------------------------------
 NM 2D-scan of HBT TD-WB97XD pVDZ in CTC Relaxed.
 ------------------------------------------------
 Symbolic Z-matrix:
 Charge =  0 Multiplicity = 1

 SCF Done:  E(RwB97XD) =  -1028.80120221     A.U. after   16 cycles
 Total Energy, E(TD-HF/TD-DFT) =  -1028.69126497
 SCF Done:  E(RwB97XD) =  -1028.79781806     A.U. after   14 cycles
 Total Energy, E(TD-HF/TD-DFT) =  -1028.69540920
 SCF Done:  E(RwB97XD) =  -1028.80638295     A.U. after   13 cycles
 Total Energy, E(TD-HF/TD-DFT) =  -1028.69995873
 SCF Done:  E(RwB97XD) =  -1028.80693565     A.U. after   11 cycles
 Total Energy, E(TD-HF/TD-DFT) =  -1028.70002145
 SCF Done:  E(RwB97XD) =  -1028.80690609     A.U. after    9 cycles
 Total Energy, E(TD-HF/TD-DFT) =  -1028.70002419
 Optimization completed.
    -- Stationary point found.
 Normal termination of Gaussian 16 at Mon Jul 13 16:30:12 2020.

 ----------------------------------------------------------------------
 #P Geom=AllCheck Guess=TCheck SCRF=Check GenChk RwB97XD TD(FC,Read)/CC
 -pVDZ Freq
 ----------------------------------------------------------------------

 Structure from the checkpoint file:  "config_9_8.chk"
 ------------------------------------------------
 NM 2D-scan of HBT TD-WB97XD pVDZ in CTC Relaxed.
 ------------------------------------------------
 Charge =  0 Multiplicity = 1

                          Input orientation:
 ---------------------------------------------------------------------
 Center     Atomic      Atomic             Coordinates (Angstroms)
 Number     Number       Type             X           Y           Z
 ---------------------------------------------------------------------
      1          6           0        1.675704   -3.285825   -0.000047
      2          6           0        1.004521   -2.065192   -0.000029
      3          6           0        1.724606   -0.849110   -0.000008
      4          6           0        3.127170   -0.845234    0.000001
      5          6           0        3.784646   -2.066338   -0.000018
      6          6           0        3.071899   -3.275069   -0.000043
      7          1           0        1.126331   -4.227880   -0.000062
      8          1           0        3.670607    0.099920    0.000021
      9          1           0        4.875567   -2.085768   -0.000012
     10          1           0        3.613327   -4.221783   -0.000056
     11          7           0        0.913849    0.240041    0.000006
     12         16           0       -0.733701   -1.746660   -0.000018
     13          6           0       -1.380846    1.057043    0.000018
     14          6           0       -2.758297    0.850150    0.000020
     15          6           0       -0.878874    2.459599    0.000029
     16          6           0       -3.669229    1.934050    0.000041
     17          1           0       -3.154124   -0.168452    0.000008
     18          6           0       -1.842813    3.508313    0.000032
     19          6           0       -3.215507    3.254213    0.000048
     20          1           0       -4.739329    1.721648    0.000045
     21          1           0       -1.446372    4.524982    0.000026
     22          1           0       -3.927739    4.080234    0.000056
     23          6           0       -0.422516   -0.008874   -0.000001
     24          8           0        0.362187    2.722365   -0.000031
     25          1           0        1.129399    1.273672    0.000061
 ---------------------------------------------------------------------

 SCF Done:  E(RwB97XD) =  -1028.80690609     A.U. after    1 cycles

 Excitation energies and oscillator strengths:

 Excited state symmetry could not be determined.
 Excited State   1:      Singlet-?Sym    2.9084 eV  426.30 nm  f=0.4406  <S**2>=0.000
      59 -> 60         0.69624
 This state for optimization and/or second-order correction.
 Total Energy, E(TD-HF/TD-DFT) =  -1028.70002421
 Copying the excited state density for this state as the 1-particle RhoCI density.

 Excited state symmetry could not be determined.
 Excited State   2:      Singlet-?Sym    3.7539 eV  330.28 nm  f=0.0000  <S**2>=0.000
      57 -> 60         0.68374
      57 -> 62         0.11691
      57 -> 64         0.11656

 Excited state symmetry could not be determined.
 Excited State   3:      Singlet-?Sym    4.3270 eV  286.54 nm  f=0.4248  <S**2>=0.000
      58 -> 60         0.68029

 Alpha  occ. eigenvalues --  -89.10589 -19.21447 -14.51990 -10.42017 -10.37337
 Alpha  occ. eigenvalues --  -10.36298 -10.36060 -10.33425 -10.32867 -10.32531
 Alpha  occ. eigenvalues --  -10.32374 -10.31574 -10.31285 -10.30817 -10.29255
 Alpha  occ. eigenvalues --  -10.28423  -8.12533  -6.07412  -6.07042  -6.06553
 Alpha  occ. eigenvalues --   -1.12885  -1.09471  -0.98270  -0.95178  -0.93186
 Alpha  occ. eigenvalues --   -0.89149  -0.86501  -0.83926  -0.81251  -0.76000
 Alpha  occ. eigenvalues --   -0.72886  -0.71915  -0.68815  -0.67668  -0.64914
 Alpha  occ. eigenvalues --   -0.60966  -0.59685  -0.56738  -0.55824  -0.55484
 Alpha  occ. eigenvalues --   -0.54929  -0.53689  -0.53075  -0.50778  -0.49175
 Alpha  occ. eigenvalues --   -0.48804  -0.48302  -0.46888  -0.45442  -0.44883
 Alpha  occ. eigenvalues --   -0.44313  -0.43010  -0.42080  -0.40284  -0.36817
 Alpha  occ. eigenvalues --   -0.33591  -0.32095  -0.31419  -0.26037
 Alpha virt. eigenvalues --   -0.02061   0.03772   0.05911   0.06327   0.09150
 Alpha virt. eigenvalues --    0.10628   0.12902   0.14645   0.16130   0.17322
 Alpha virt. eigenvalues --    0.18771   0.20160   0.20969   0.21383   0.23049

 Mulliken charges:
               1
     1  C    0.015128
     2  C   -0.242217
     3  C    0.264116
     4  C   -0.010363
     5  C    0.013026
     6  C   -0.000035
     7  H    0.026133
     8  H    0.031725
     9  H    0.027261
    10  H    0.026631
    11  N   -0.143373
    12  S    0.199456
    13  C   -0.106480
    14  C   -0.025500
    15  C    0.119022
    16  C   -0.035513
    17  H    0.004844
    18  C   -0.022746
    19  C    0.032768
    20  H    0.002557
    21  H    0.002354
    22  H    0.014819
    23  C    0.060370
    24  O   -0.409594
    25  H    0.155609
 Sum of Mulliken charges =  -0.00000

 Dipole moment (field-independent basis, Debye):
    X=              1.6884    Y=             -5.4478    Z=              0.0001  Tot=              5.7034
 Quadrupole moment (field-independent basis, Debye-Ang):
   XX=            -82.4355   YY=            -95.1446   ZZ=           -104.2511
   XY=             -6.6908   XZ=              0.0001   YZ=              0.0006

  Exact polarizability:     349.213    -123.802     300.699      -0.002       0.003      63.291
 Approx polarizability:     273.971     -36.803     265.989      -0.001       0.002      82.105

 ******    1 imaginary frequencies (negative Signs) ******

                      1                      2                      3
                      A                      A                      A
 Frequencies --    -19.6307                39.6756               111.9744
 Red. masses --      6.1680                 6.4915                 5.0768
 Frc consts  --      0.0014                 0.0060                 0.0375
 IR Inten    --      1.1023                 1.8700                 0.2579

                      4                      5                      6
                      A                      A                      A
 Frequencies --    115.3367               178.2614               222.2857
 Red. masses --      5.7438                 5.5097                 5.4119
 Frc consts  --      0.0450                 0.1032                 0.1576
 IR Inten    --     10.9388                 0.1204                 0.2125

                      7                      8                      9
                      A                      A                      A
 Frequencies --    265.6026               270.5807               313.4607
 Red. masses --      7.7950                 4.6506                 7.0982
 Frc consts  --      0.3240                 0.2006                 0.4109
 IR Inten    --      2.4488                 0.4680                 9.8142

                     10                     11                     12
                      A                      A                      A
 Frequencies --    355.8721               391.6218               433.9209
 Red. masses --      4.9313                 9.2049                 3.3527
 Frc consts  --      0.3680                 0.8318                 0.3719
 IR Inten    --      0.9586                 4.4952                 3.9899

                     13                     14                     15
                      A                      A                      A
 Frequencies --    457.5602               504.4770               507.3619
 Red. masses --      4.6511                 8.6883                 3.1932
 Frc consts  --      0.5737                 1.3028                 0.4843
 IR Inten    --      2.2693                 8.2146                 0.5201

                     16                     17                     18
                      A                      A                      A
 Frequencies --    541.0152               557.2981               561.7920
 Red. masses --      8.7160                 3.8437                 6.5365
 Frc consts  --      1.5031                 0.7034                 1.2155
 IR Inten    --      5.3500                 0.6635                35.7441

                     19                     20                     21
                      A                      A                      A
 Frequencies --    570.4898               632.6602               691.9847
 Red. masses --      7.4362                 5.9202                 1.5689
 Frc consts  --      1.4259                 1.3961                 0.4426
 IR Inten    --     21.8515                79.3282                37.4644

                     22                     23                     24
                      A                      A                      A
 Frequencies --    708.1119               720.5302               742.8358
 Red. masses --      6.7123                 7.6558                 2.6535
 Frc consts  --      1.9830                 2.3418                 0.8627
 IR Inten    --      1.9138                 4.3150                12.9649

                     25                     26                     27
                      A                      A                      A
 Frequencies --    763.3164               768.5498               815.8516
 Red. masses --      1.7545                 1.6559                 6.4189
 Frc consts  --      0.6023                 0.5763                 2.5173
 IR Inten    --      2.7753                86.5401                15.8341

                     28                     29                     30
                      A                      A                      A
 Frequencies --    838.1222               867.0731               871.3666
 Red. masses --      1.7200                 1.3830                 4.2868
 Frc consts  --      0.7119                 0.6126                 1.9177
 IR Inten    --      0.0138                 0.3990                14.7681

                     31                     32                     33
                      A                      A                      A
 Frequencies --    905.9996               952.4538               953.6782
 Red. masses --      1.4163                 1.2942                 5.4897
 Frc consts  --      0.6849                 0.6917                 2.9417
 IR Inten    --      5.9039                10.1351                 3.1286

                     34                     35                     36
                      A                      A                      A
 Frequencies --    958.2787               959.1277              1004.5779
 Red. masses --      1.3462                 1.1244                 1.2945
 Frc consts  --      0.7283                 0.6095                 0.7697
 IR Inten    --      4.4911                61.6193                 0.1197

                     37                     38                     39
                      A                      A                      A
 Frequencies --   1048.5266              1053.0856              1082.1303
 Red. masses --      2.1737                 2.1659                 4.1608
 Frc consts  --      1.4080                 1.4152                 2.8707
 IR Inten    --      0.9281                 8.5104                 2.6797

                     40                     41                     42
                      A                      A                      A
 Frequencies --   1115.0690              1152.8976              1162.5707
 Red. masses --      1.5437                 1.3196                 1.2106
 Frc consts  --      1.1309                 1.0334                 0.9641
 IR Inten    --     41.2894                20.0749                66.2857

                     43                     44                     45
                      A                      A                      A
 Frequencies --   1180.0890              1217.3248              1258.1191
 Red. masses --      1.1440                 1.8277                 2.1512
 Frc consts  --      0.9386                 1.5958                 2.0062
 IR Inten    --     37.6408               108.4821                47.7006

                     46                     47                     48
                      A                      A                      A
 Frequencies --   1279.1464              1308.3228              1340.7076
 Red. masses --      1.7375                 1.9972                 5.6713
 Frc consts  --      1.6750                 2.0142                 6.0062
 IR Inten    --    104.5767                46.2866                15.6166

                     49                     50                     51
                      A                      A                      A
 Frequencies --   1367.2615              1396.5128              1400.9332
 Red. masses --      5.4545                 2.6396                 2.3236
 Frc consts  --      6.0077                 3.0330                 2.6869
 IR Inten    --    147.3348                 8.5487                 2.4520

                     52                     53                     54
                      A                      A                      A
 Frequencies --   1436.8549              1483.0945              1505.0082
 Red. masses --      3.2997                 2.7743                 3.0773
 Frc consts  --      4.0137                 3.5954                 4.1067
 IR Inten    --    386.0873                 1.8680                32.5545

                     55                     56                     57
                      A                      A                      A
 Frequencies --   1533.0602              1560.3773              1581.5696
 Red. masses --      4.1994                 5.2341                 4.1560
 Frc consts  --      5.8151                 7.5085                 6.1249
 IR Inten    --     42.9978               192.6226                71.5297

                     58                     59                     60
                      A                      A                      A
 Frequencies --   1621.9123              1647.1241              1668.2397
 Red. masses --      6.2507                 6.1927                 6.8219
 Frc consts  --      9.6880                 9.8988                11.1860
 IR Inten    --    235.8254                56.1560               170.5612

                     61                     62                     63
                      A                      A                      A
 Frequencies --   2976.1601              3193.0972              3211.2653
 Red. masses --      1.0927                 1.0888                 1.0864
 Frc consts  --      5.7024                 6.5408                 6.6007
 IR Inten    --   1121.2203                26.9727                 1.6409

                     64                     65                     66
                      A                      A                      A
 Frequencies --   3212.6131              3222.6782              3223.1279
 Red. masses --      1.0863                 1.0923                 1.0904
 Frc consts  --      6.6060                 6.6836                 6.6743
 IR Inten    --      5.0758                13.3465                 3.7534

                     67                     68                     69
                      A                      A                      A
 Frequencies --   3233.6053              3234.8637              3240.0874
 Red. masses --      1.0956                 1.0989                 1.0996
 Frc consts  --      6.7498                 6.7752                 6.8011
 IR Inten    --      8.2418                24.9577                11.7527

 - Thermochemistry -
 -------------------
 Temperature   298.150 Kelvin.  Pressure   1.00000 Atm.
 Atom     1 has atomic number  6 and mass  12.00000

 Molecular mass:   227.04049 amu.
 Principal axes and moments of inertia in atomic units:
                           1         2         3
     Eigenvalues --  1310.810996410.200077721.01107
           X           -0.70187   0.71230   0.00000
           Y            0.71230   0.70187  -0.00001
           Z            0.00001   0.00000   1.00000
 This molecule is an asymmetric top.
 Rotational symmetry number  1.
 Warning -- assumption of classical behavior for rotation
           may cause significant error
 Rotational temperatures (Kelvin)      0.06608     0.01351     0.01122
 Rotational constants (GHZ):           1.37681     0.28154     0.23374
    1 imaginary frequencies ignored.
 Zero-point vibrational energy     488677.8 (Joules/Mol)
                                  116.79679 (Kcal/Mol)
 Warning -- explicit consideration of  18 degrees of freedom as
           vibrations may cause significant error
 Vibrational temperatures:     57.08   161.11   165.94   256.48   319.82
          (Kelvin)            382.14   389.31   451.00   512.02   563.46
                              624.32   658.33   725.83   729.98   778.40
                              801.83   808.29   820.81   910.26   995.61
                             1018.82  1036.68  1068.78  1098.24  1105.77
                             1173.83  1205.87  1247.52  1253.70  1303.53
                             1370.37  1372.13  1378.75  1379.97  1445.36
                             1508.60  1515.16  1556.94  1604.34  1658.76
                             1672.68  1697.88  1751.46  1810.15  1840.41
                             1882.38  1928.98  1967.18  2009.27  2015.63
                             2067.31  2133.84  2165.37  2205.73  2245.03
                             2275.53  2333.57  2369.84  2400.22  4282.03
                             4594.15  4620.29  4622.23  4636.72  4637.36
                             4652.44  4654.25  4661.76

 Zero-point correction=                           0.186128 (Hartree/Particle)
 Thermal correction to Energy=                    0.197634
 Thermal correction to Enthalpy=                  0.198578
 Thermal correction to Gibbs Free Energy=         0.147979
 Sum of electronic and zero-point Energies=          -1028.513897
 Sum of electronic and thermal Energies=             -1028.502390
 Sum of electronic and thermal Enthalpies=           -1028.501446
 Sum of electronic and thermal Free Energies=        -1028.552046

                     E (Thermal)             CV                S
                      KCal/Mol        Cal/Mol-Kelvin    Cal/Mol-Kelvin
 Total                  124.017             47.412            106.495
 Electronic               0.000              0.000              0.000
 Translational            0.889              2.981             42.162
 Rotational               0.889              2.981             32.539
 Vibrational            122.240             41.450             31.794
 Vibration     1          0.594              1.981              5.275
 Vibration     2          0.607              1.940              3.234
 Vibration     3          0.608              1.937              3.177
 Vibration     4          0.629              1.869              2.347
 Vibration     5          0.648              1.807              1.940
 Vibration     6          0.671              1.736              1.625
 Vibration     7          0.674              1.727              1.592
 Vibration     8          0.701              1.648              1.344
 Vibration     9          0.731              1.563              1.140
 Vibration    10          0.759              1.488              0.994
 Vibration    11          0.795              1.396              0.846
 Vibration    12          0.816              1.344              0.773
 Vibration    13          0.860              1.240              0.647
 Vibration    14          0.863              1.234              0.640
 Vibration    15          0.896              1.159              0.563
 Vibration    16          0.913              1.124              0.529
 Vibration    17          0.917              1.114              0.520
 Vibration    18          0.927              1.095              0.503

 Optimization completed.
    -- Stationary point found.
 Normal termination of Gaussian 16 at Mon Jul 13 16:47:59 2020.
