 Gaussian 16, Revision C.01,
 Gaussian 16:  ES64L-G16RevC.01  3-Jul-2019

 ----------------------------------------------------------------------
 #p opt=addgic freq td wb97xd/cc-pvdz nosymm int=ultrafine scrf=(solven
 t=CarbonTetraChloride)
 ----------------------------------------------------------------------

 ------------------------------------------------
 NM 2D-scan of HBT TD-WB97XD pVDZ in CTC Relaxed.
 ------------------------------------------------
 Symbolic Z-matrix:
 Charge =  0 Multiplicity = 1

 SCF Done:  E(RwB97XD) =  -1028.79454123     A.U. after   16 cycles
 Total Energy, E(TD-HF/TD-DFT) =  -1028.68420244
 SCF Done:  E(RwB97XD) =  -1028.79794942     A.U. after   14 cycles
 Total Energy, E(TD-HF/TD-DFT) =  -1028.69445051
 SCF Done:  E(RwB97XD) =  -1028.80162889     A.U. after   13 cycles
 Total Energy, E(TD-HF/TD-DFT) =  -1028.69601114
 SCF Done:  E(RwB97XD) =  -1028.80226782     A.U. after   10 cycles
 Total Energy, E(TD-HF/TD-DFT) =  -1028.69609230
 SCF Done:  E(RwB97XD) =  -1028.80224206     A.U. after   10 cycles
 Total Energy, E(TD-HF/TD-DFT) =  -1028.69609615
 Optimization completed.
    -- Stationary point found.
 Normal termination of Gaussian 16 at Tue Jul 14 15:11:27 2020.

 ----------------------------------------------------------------------
 #P Geom=AllCheck Guess=TCheck SCRF=Check GenChk RwB97XD TD(FC,Read)/CC
 -pVDZ Freq
 ----------------------------------------------------------------------

 Structure from the checkpoint file:  "config_8_18.chk"
 ------------------------------------------------
 NM 2D-scan of HBT TD-WB97XD pVDZ in CTC Relaxed.
 ------------------------------------------------
 Charge =  0 Multiplicity = 1

                          Input orientation:
 ---------------------------------------------------------------------
 Center     Atomic      Atomic             Coordinates (Angstroms)
 Number     Number       Type             X           Y           Z
 ---------------------------------------------------------------------
      1          6           0        1.534401   -3.284584   -0.000055
      2          6           0        0.991190   -2.002811   -0.000026
      3          6           0        1.798655   -0.832770    0.000004
      4          6           0        3.195728   -0.980798    0.000004
      5          6           0        3.732326   -2.263998   -0.000026
      6          6           0        2.920272   -3.409303   -0.000056
      7          1           0        0.886770   -4.162162   -0.000076
      8          1           0        3.839722   -0.100975    0.000028
      9          1           0        4.817257   -2.380851   -0.000026
     10          1           0        3.375651   -4.400222   -0.000077
     11          7           0        1.061435    0.331057    0.000031
     12         16           0       -0.703813   -1.590826   -0.000015
     13          6           0       -1.299411    1.109597    0.000037
     14          6           0       -2.650447    0.750280    0.000059
     15          6           0       -0.933035    2.540577    0.000025
     16          6           0       -3.662754    1.726114    0.000053
     17          1           0       -2.940020   -0.302736    0.000080
     18          6           0       -1.994408    3.486123   -0.000002
     19          6           0       -3.333807    3.085118    0.000018
     20          1           0       -4.706972    1.410909    0.000068
     21          1           0       -1.714177    4.540723   -0.000034
     22          1           0       -4.124925    3.836149    0.000001
     23          6           0       -0.284323    0.112913    0.000020
     24          8           0        0.292189    2.892240   -0.000027
     25          1           0        1.250177    1.386781    0.000097
 ---------------------------------------------------------------------

 SCF Done:  E(RwB97XD) =  -1028.80224206     A.U. after    1 cycles

 Excitation energies and oscillator strengths:

 Excited state symmetry could not be determined.
 Excited State   1:      Singlet-?Sym    2.8884 eV  429.25 nm  f=0.4416  <S**2>=0.000
      59 -> 60         0.69697
 This state for optimization and/or second-order correction.
 Total Energy, E(TD-HF/TD-DFT) =  -1028.69609611
 Copying the excited state density for this state as the 1-particle RhoCI density.

 Excited state symmetry could not be determined.
 Excited State   2:      Singlet-?Sym    3.6804 eV  336.87 nm  f=0.0000  <S**2>=0.000
      57 -> 60         0.68373
      57 -> 62         0.11653
      57 -> 64         0.11501

 Excited state symmetry could not be determined.
 Excited State   3:      Singlet-?Sym    4.2663 eV  290.62 nm  f=0.3320  <S**2>=0.000
      58 -> 60         0.68329

 Alpha  occ. eigenvalues --  -89.10161 -19.21226 -14.52958 -10.41823 -10.37898
 Alpha  occ. eigenvalues --  -10.36199 -10.35845 -10.33291 -10.33019 -10.32526
 Alpha  occ. eigenvalues --  -10.32374 -10.31548 -10.30956 -10.30899 -10.29319
 Alpha  occ. eigenvalues --  -10.28532  -8.12216  -6.07080  -6.06717  -6.06235
 Alpha  occ. eigenvalues --   -1.12475  -1.08803  -0.98337  -0.95651  -0.93281
 Alpha  occ. eigenvalues --   -0.89081  -0.86785  -0.83608  -0.81459  -0.75855
 Alpha  occ. eigenvalues --   -0.72893  -0.72192  -0.68610  -0.67606  -0.65090
 Alpha  occ. eigenvalues --   -0.61034  -0.59652  -0.56776  -0.55767  -0.55510
 Alpha  occ. eigenvalues --   -0.55008  -0.53970  -0.53053  -0.50321  -0.48977
 Alpha  occ. eigenvalues --   -0.48744  -0.48489  -0.46938  -0.45478  -0.44947
 Alpha  occ. eigenvalues --   -0.44102  -0.42989  -0.42218  -0.40108  -0.36799
 Alpha  occ. eigenvalues --   -0.33598  -0.31868  -0.31360  -0.26065
 Alpha virt. eigenvalues --   -0.02060   0.03781   0.05536   0.06656   0.09185
 Alpha virt. eigenvalues --    0.10708   0.13928   0.14840   0.16332   0.17465
 Alpha virt. eigenvalues --    0.18166   0.20006   0.20480   0.21234   0.22352

 Mulliken charges:
               1
     1  C    0.021436
     2  C   -0.227600
     3  C    0.256751
     4  C   -0.012171
     5  C    0.009321
     6  C    0.002698
     7  H    0.025302
     8  H    0.030433
     9  H    0.027039
    10  H    0.026656
    11  N   -0.173961
    12  S    0.198482
    13  C   -0.078864
    14  C   -0.037709
    15  C    0.110350
    16  C   -0.030372
    17  H    0.015857
    18  C   -0.025040
    19  C    0.032338
    20  H    0.002187
    21  H    0.003083
    22  H    0.015394
    23  C    0.056366
    24  O   -0.414070
    25  H    0.166096
 Sum of Mulliken charges =  -0.00000

 Dipole moment (field-independent basis, Debye):
    X=              1.6819    Y=             -5.7361    Z=              0.0001  Tot=              5.9776
 Quadrupole moment (field-independent basis, Debye-Ang):
   XX=            -81.8171   YY=            -96.6943   ZZ=           -104.2163
   XY=             -6.5243   XZ=              0.0001   YZ=              0.0005

  Exact polarizability:     346.314    -122.247     299.912      -0.002       0.002      63.181
 Approx polarizability:     272.261     -35.226     264.987      -0.001       0.001      81.992

                      1                      2                      3
                      A                      A                      A
 Frequencies --     34.0212                47.0766               111.2962
 Red. masses --      7.1124                 4.3216                 5.7629
 Frc consts  --      0.0049                 0.0056                 0.0421
 IR Inten    --      2.0085                 0.1270                14.0149

                      4                      5                      6
                      A                      A                      A
 Frequencies --    121.4843               184.9574               222.0113
 Red. masses --      5.9360                 5.9541                 5.5941
 Frc consts  --      0.0516                 0.1200                 0.1625
 IR Inten    --      1.3203                 0.0493                 0.1995

                      7                      8                      9
                      A                      A                      A
 Frequencies --    259.1553               271.1707               295.7939
 Red. masses --      8.1960                 4.5983                 7.0881
 Frc consts  --      0.3243                 0.1992                 0.3654
 IR Inten    --      6.3848                 0.1501                 4.0545

                     10                     11                     12
                      A                      A                      A
 Frequencies --    356.1016               399.4544               434.6536
 Red. masses --      4.8764                 8.6037                 3.4150
 Frc consts  --      0.3643                 0.8089                 0.3801
 IR Inten    --      1.0558                 5.6095                 2.5575

                     13                     14                     15
                      A                      A                      A
 Frequencies --    457.7680               508.0306               509.7611
 Red. masses --      4.3621                 8.7725                 3.2076
 Frc consts  --      0.5386                 1.3340                 0.4911
 IR Inten    --      3.1348                10.0141                 0.3211

                     16                     17                     18
                      A                      A                      A
 Frequencies --    544.0865               548.5370               559.3615
 Red. masses --      8.7720                 6.1097                 3.8679
 Frc consts  --      1.5300                 1.0831                 0.7130
 IR Inten    --      7.6764                45.4305                 0.4099

                     19                     20                     21
                      A                      A                      A
 Frequencies --    569.2634               626.7006               697.2018
 Red. masses --      7.1616                 5.9494                 1.5088
 Frc consts  --      1.3674                 1.3767                 0.4321
 IR Inten    --     10.7396                59.1306                41.9462

                     22                     23                     24
                      A                      A                      A
 Frequencies --    720.0461               723.3215               743.2977
 Red. masses --      8.2264                 5.9479                 2.6994
 Frc consts  --      2.5129                 1.8335                 0.8787
 IR Inten    --      4.7387                 1.5721                14.8023

                     25                     26                     27
                      A                      A                      A
 Frequencies --    758.1772               766.7845               826.1173
 Red. masses --      1.6902                 1.6304                 6.2605
 Frc consts  --      0.5724                 0.5648                 2.5174
 IR Inten    --      4.3443                84.9650                16.9562

                     28                     29                     30
                      A                      A                      A
 Frequencies --    828.0316               851.8003               870.4478
 Red. masses --      1.9453                 4.1061                 1.3765
 Frc consts  --      0.7858                 1.7553                 0.6145
 IR Inten    --      0.4152                11.2094                 1.0955

                     31                     32                     33
                      A                      A                      A
 Frequencies --    901.1371               951.3471               957.5374
 Red. masses --      1.4299                 1.3328                 1.2925
 Frc consts  --      0.6841                 0.7107                 0.6982
 IR Inten    --      5.7004                 4.5017                25.6250

                     34                     35                     36
                      A                      A                      A
 Frequencies --    957.6699               962.4903              1004.1074
 Red. masses --      5.4134                 1.1341                 1.2993
 Frc consts  --      2.9252                 0.6190                 0.7718
 IR Inten    --      2.5688                49.2360                 0.0984

                     37                     38                     39
                      A                      A                      A
 Frequencies --   1050.2801              1052.7990              1091.6993
 Red. masses --      2.0705                 2.0624                 3.8975
 Frc consts  --      1.3457                 1.3468                 2.7368
 IR Inten    --      3.3421                 8.5886                 2.8571

                     40                     41                     42
                      A                      A                      A
 Frequencies --   1122.7270              1155.8487              1166.2131
 Red. masses --      1.5235                 1.3334                 1.2755
 Frc consts  --      1.1315                 1.0495                 1.0221
 IR Inten    --     23.1761                42.8492                52.7917

                     43                     44                     45
                      A                      A                      A
 Frequencies --   1176.0643              1208.5775              1251.8510
 Red. masses --      1.1600                 1.6878                 1.9083
 Frc consts  --      0.9453                 1.4525                 1.7620
 IR Inten    --     40.0258                86.5698                59.6970

                     46                     47                     48
                      A                      A                      A
 Frequencies --   1262.1539              1305.2580              1343.5305
 Red. masses --      2.5135                 1.8746                 4.9021
 Frc consts  --      2.3592                 1.8817                 5.2135
 IR Inten    --     27.4891                 7.4113                15.6065

                     49                     50                     51
                      A                      A                      A
 Frequencies --   1357.4018              1389.0652              1402.1277
 Red. masses --      6.8440                 3.1564                 2.2122
 Frc consts  --      7.4298                 3.5883                 2.5624
 IR Inten    --    174.3171                37.6005                 1.5331

                     52                     53                     54
                      A                      A                      A
 Frequencies --   1433.0957              1481.2726              1495.7872
 Red. masses --      2.9894                 2.9035                 3.1750
 Frc consts  --      3.6173                 3.7536                 4.1854
 IR Inten    --    363.6887                 6.0568                40.5248

                     55                     56                     57
                      A                      A                      A
 Frequencies --   1523.8798              1554.2707              1570.9808
 Red. masses --      3.6152                 5.5737                 4.0948
 Frc consts  --      4.9463                 7.9332                 5.9542
 IR Inten    --     65.5030               178.9037                73.8742

                     58                     59                     60
                      A                      A                      A
 Frequencies --   1613.1656              1635.1503              1663.8214
 Red. masses --      6.2643                 6.2379                 6.6849
 Frc consts  --      9.6046                 9.8266                10.9033
 IR Inten    --    233.9799                78.6109               100.6075

                     61                     62                     63
                      A                      A                      A
 Frequencies --   2879.1229              3200.9347              3209.9124
 Red. masses --      1.0888                 1.0878                 1.0861
 Frc consts  --      5.3178                 6.5671                 6.5936
 IR Inten    --    875.0039                26.9791                 3.4144

                     64                     65                     66
                      A                      A                      A
 Frequencies --   3213.1619              3219.5496              3225.2730
 Red. masses --      1.0868                 1.0903                 1.0927
 Frc consts  --      6.6112                 6.6585                 6.6971
 IR Inten    --      5.6467                 3.2399                13.8614

                     67                     68                     69
                      A                      A                      A
 Frequencies --   3229.5200              3236.5215              3236.7799
 Red. masses --      1.0956                 1.0994                 1.0990
 Frc consts  --      6.7324                 6.7850                 6.7840
 IR Inten    --      6.8836                33.6807                 6.2168

 - Thermochemistry -
 -------------------
 Temperature   298.150 Kelvin.  Pressure   1.00000 Atm.
 Atom     1 has atomic number  6 and mass  12.00000

 Molecular mass:   227.04049 amu.
 Principal axes and moments of inertia in atomic units:
                           1         2         3
     Eigenvalues --  1288.229766415.179627703.40938
           X           -0.70048   0.71367   0.00001
           Y            0.71367   0.70048  -0.00000
           Z            0.00001  -0.00000   1.00000
 This molecule is an asymmetric top.
 Rotational symmetry number  1.
 Warning -- assumption of classical behavior for rotation
           may cause significant error
 Rotational temperatures (Kelvin)      0.06723     0.01350     0.01124
 Rotational constants (GHZ):           1.40095     0.28132     0.23428
 Zero-point vibrational energy     487705.5 (Joules/Mol)
                                  116.56442 (Kcal/Mol)
 Warning -- explicit consideration of  19 degrees of freedom as
           vibrations may cause significant error
 Vibrational temperatures:     48.95    67.73   160.13   174.79   266.11
          (Kelvin)            319.42   372.87   390.15   425.58   512.35
                              574.73   625.37   658.63   730.94   733.43
                              782.82   789.22   804.80   819.04   901.68
                             1003.12  1035.99  1040.70  1069.44  1090.85
                             1103.23  1188.60  1191.35  1225.55  1252.38
                             1296.54  1368.78  1377.68  1377.87  1384.81
                             1444.69  1511.12  1514.74  1570.71  1615.35
                             1663.01  1677.92  1692.09  1738.87  1801.13
                             1815.96  1877.98  1933.04  1953.00  1998.56
                             2017.35  2061.91  2131.22  2152.10  2192.52
                             2236.25  2260.29  2320.99  2352.62  2393.87
                             4142.42  4605.43  4618.35  4623.02  4632.21
                             4640.45  4646.56  4656.63  4657.00

 Zero-point correction=                           0.185757 (Hartree/Particle)
 Thermal correction to Energy=                    0.198121
 Thermal correction to Enthalpy=                  0.199065
 Thermal correction to Gibbs Free Energy=         0.146005
 Sum of electronic and zero-point Energies=          -1028.510339
 Sum of electronic and thermal Energies=             -1028.497975
 Sum of electronic and thermal Enthalpies=           -1028.497031
 Sum of electronic and thermal Free Energies=        -1028.550091

                     E (Thermal)             CV                S
                      KCal/Mol        Cal/Mol-Kelvin    Cal/Mol-Kelvin
 Total                  124.323             49.441            111.675
 Electronic               0.000              0.000              0.000
 Translational            0.889              2.981             42.162
 Rotational               0.889              2.981             32.521
 Vibrational            122.545             43.479             36.992
 Vibration     1          0.594              1.983              5.580
 Vibration     2          0.595              1.979              4.937
 Vibration     3          0.607              1.940              3.246
 Vibration     4          0.609              1.931              3.077
 Vibration     5          0.631              1.860              2.278
 Vibration     6          0.648              1.808              1.943
 Vibration     7          0.668              1.747              1.667
 Vibration     8          0.675              1.726              1.589
 Vibration     9          0.690              1.682              1.441
 Vibration    10          0.732              1.563              1.139
 Vibration    11          0.766              1.471              0.965
 Vibration    12          0.795              1.395              0.844
 Vibration    13          0.816              1.344              0.773
 Vibration    14          0.863              1.232              0.638
 Vibration    15          0.865              1.228              0.634
 Vibration    16          0.899              1.153              0.557
 Vibration    17          0.904              1.143              0.547
 Vibration    18          0.915              1.119              0.525
 Vibration    19          0.925              1.098              0.506

 Optimization completed.
    -- Stationary point found.
 Normal termination of Gaussian 16 at Tue Jul 14 15:29:07 2020.
