 Gaussian 16, Revision C.01,
 Gaussian 16:  ES64L-G16RevC.01  3-Jul-2019

 ----------------------------------------------------------------------
 #p opt=addgic freq td wb97xd/cc-pvdz nosymm int=ultrafine scrf=(solven
 t=CarbonTetraChloride)
 ----------------------------------------------------------------------

 ------------------------------------------------
 NM 2D-scan of HBT TD-WB97XD pVDZ in CTC Relaxed.
 ------------------------------------------------
 Symbolic Z-matrix:
 Charge =  0 Multiplicity = 1

 SCF Done:  E(RwB97XD) =  -1028.81054372     A.U. after   15 cycles
 Total Energy, E(TD-HF/TD-DFT) =  -1028.69263201
 SCF Done:  E(RwB97XD) =  -1028.81029569     A.U. after   10 cycles
 Total Energy, E(TD-HF/TD-DFT) =  -1028.69269882
 SCF Done:  E(RwB97XD) =  -1028.81001848     A.U. after   10 cycles
 Total Energy, E(TD-HF/TD-DFT) =  -1028.69272905
 SCF Done:  E(RwB97XD) =  -1028.80966742     A.U. after   11 cycles
 Total Energy, E(TD-HF/TD-DFT) =  -1028.69274875
 Optimization completed.
    -- Stationary point found.
 Normal termination of Gaussian 16 at Mon Jul 13 15:17:42 2020.

 ----------------------------------------------------------------------
 #P Geom=AllCheck Guess=TCheck SCRF=Check GenChk RwB97XD TD(FC,Read)/CC
 -pVDZ Freq
 ----------------------------------------------------------------------

 Structure from the checkpoint file:  "config_7_6.chk"
 ------------------------------------------------
 NM 2D-scan of HBT TD-WB97XD pVDZ in CTC Relaxed.
 ------------------------------------------------
 Charge =  0 Multiplicity = 1

                          Input orientation:
 ---------------------------------------------------------------------
 Center     Atomic      Atomic             Coordinates (Angstroms)
 Number     Number       Type             X           Y           Z
 ---------------------------------------------------------------------
      1          6           0        1.692118   -3.270205   -0.000027
      2          6           0        0.999853   -2.060727   -0.000017
      3          6           0        1.696989   -0.819690   -0.000012
      4          6           0        3.104810   -0.805357   -0.000017
      5          6           0        3.780844   -2.013457   -0.000027
      6          6           0        3.087673   -3.236535   -0.000033
      7          1           0        1.158832   -4.221621   -0.000031
      8          1           0        3.633139    0.148442   -0.000013
      9          1           0        4.872192   -2.016386   -0.000032
     10          1           0        3.645732   -4.173704   -0.000041
     11          7           0        0.893451    0.267840   -0.000005
     12         16           0       -0.739521   -1.778593   -0.000008
     13          6           0       -1.389928    1.022558    0.000010
     14          6           0       -2.781415    0.849545    0.000002
     15          6           0       -0.872700    2.416651    0.000034
     16          6           0       -3.646484    1.955653    0.000021
     17          1           0       -3.201275   -0.158326   -0.000017
     18          6           0       -1.785071    3.497096    0.000051
     19          6           0       -3.158322    3.274393    0.000046
     20          1           0       -4.723525    1.780556    0.000015
     21          1           0       -1.358884    4.500954    0.000070
     22          1           0       -3.852314    4.115116    0.000061
     23          6           0       -0.432141   -0.029420   -0.000001
     24          8           0        0.393749    2.648271    0.000041
     25          1           0        0.941962    1.487571    0.000018
 ---------------------------------------------------------------------

 SCF Done:  E(RwB97XD) =  -1028.80966742     A.U. after    1 cycles

 Excitation energies and oscillator strengths:

 Excited state symmetry could not be determined.
 Excited State   1:      Singlet-?Sym    3.1815 eV  389.70 nm  f=0.4795  <S**2>=0.000
      59 -> 60         0.69402
 This state for optimization and/or second-order correction.
 Total Energy, E(TD-HF/TD-DFT) =  -1028.69274877
 Copying the excited state density for this state as the 1-particle RhoCI density.

 Excited state symmetry could not be determined.
 Excited State   2:      Singlet-?Sym    4.3604 eV  284.34 nm  f=0.3855  <S**2>=0.000
      57 -> 60        -0.10810
      58 -> 60         0.67105

 Excited state symmetry could not be determined.
 Excited State   3:      Singlet-?Sym    4.4516 eV  278.52 nm  f=0.0000  <S**2>=0.000
      56 -> 60         0.68773
      56 -> 64        -0.10793

 Alpha  occ. eigenvalues --  -89.10045 -19.24067 -14.49663 -10.41093 -10.36979
 Alpha  occ. eigenvalues --  -10.36398 -10.35728 -10.32922 -10.32207 -10.32002
 Alpha  occ. eigenvalues --  -10.31951 -10.31911 -10.31756 -10.31347 -10.29725
 Alpha  occ. eigenvalues --  -10.29205  -8.11976  -6.06843  -6.06488  -6.06012
 Alpha  occ. eigenvalues --   -1.13359  -1.09808  -0.97449  -0.95271  -0.92619
 Alpha  occ. eigenvalues --   -0.88990  -0.85771  -0.83850  -0.81999  -0.75908
 Alpha  occ. eigenvalues --   -0.71557  -0.71035  -0.68546  -0.68015  -0.63775
 Alpha  occ. eigenvalues --   -0.60860  -0.59319  -0.57548  -0.55351  -0.54863
 Alpha  occ. eigenvalues --   -0.54366  -0.53460  -0.52695  -0.51054  -0.49948
 Alpha  occ. eigenvalues --   -0.49365  -0.47506  -0.46453  -0.45432  -0.45066
 Alpha  occ. eigenvalues --   -0.44065  -0.43112  -0.41973  -0.40714  -0.36626
 Alpha  occ. eigenvalues --   -0.34554  -0.32956  -0.31223  -0.27140
 Alpha virt. eigenvalues --   -0.01864   0.04340   0.06486   0.06681   0.08271
 Alpha virt. eigenvalues --    0.10578   0.13303   0.14883   0.16122   0.17707
 Alpha virt. eigenvalues --    0.18837   0.20667   0.21422   0.21932   0.22733

 Mulliken charges:
               1
     1  C    0.014204
     2  C   -0.234880
     3  C    0.272149
     4  C   -0.013839
     5  C    0.010924
     6  C   -0.002681
     7  H    0.023006
     8  H    0.026305
     9  H    0.023649
    10  H    0.023997
    11  N   -0.274724
    12  S    0.185191
    13  C   -0.115635
    14  C   -0.020863
    15  C    0.124277
    16  C   -0.028975
    17  H    0.007114
    18  C   -0.008874
    19  C    0.029621
    20  H    0.005927
    21  H    0.009278
    22  H    0.018248
    23  C    0.070476
    24  O   -0.366104
    25  H    0.222207
 Sum of Mulliken charges =  -0.00000

 Dipole moment (field-independent basis, Debye):
    X=              0.6995    Y=             -3.9765    Z=             -0.0000  Tot=              4.0376
 Quadrupole moment (field-independent basis, Debye-Ang):
   XX=            -83.1233   YY=            -92.1394   ZZ=           -104.3104
   XY=             -6.9080   XZ=             -0.0001   YZ=              0.0001

  Exact polarizability:     358.957    -138.499     317.948      -0.002       0.003      63.328
 Approx polarizability:     274.798     -35.468     263.958      -0.001       0.002      82.296

 ******    1 imaginary frequencies (negative Signs) ******

                      1                      2                      3
                      A                      A                      A
 Frequencies --  -1042.8888                39.7971                54.1440
 Red. masses --      1.0949                 5.8378                 7.0029
 Frc consts  --      0.7016                 0.0054                 0.0121
 IR Inten    --   2017.4426                 1.0960                 0.6864

                      4                      5                      6
                      A                      A                      A
 Frequencies --    112.1034               134.2178               178.6159
 Red. masses --      4.9407                 5.7018                 5.9050
 Frc consts  --      0.0366                 0.0605                 0.1110
 IR Inten    --      0.0051                 1.9068                 0.4165

                      7                      8                      9
                      A                      A                      A
 Frequencies --    220.0607               269.5909               273.1767
 Red. masses --      5.3835                 4.7146                 7.3166
 Frc consts  --      0.1536                 0.2019                 0.3217
 IR Inten    --      0.1046                 0.1854                 9.1851

                     10                     11                     12
                      A                      A                      A
 Frequencies --    369.4423               377.0693               404.7867
 Red. masses --      5.0247                 6.3796                11.0526
 Frc consts  --      0.4041                 0.5344                 1.0670
 IR Inten    --      0.5952                11.2317                 3.4464

                     13                     14                     15
                      A                      A                      A
 Frequencies --    437.7574               472.1463               497.8469
 Red. masses --      3.2405                 4.7891                 3.1580
 Frc consts  --      0.3659                 0.6290                 0.4612
 IR Inten    --      4.9137                 0.3295                 0.4854

                     16                     17                     18
                      A                      A                      A
 Frequencies --    505.7562               543.4532               557.1113
 Red. masses --      8.8706                 8.5239                 3.8778
 Frc consts  --      1.3369                 1.4832                 0.7091
 IR Inten    --      1.7302                 0.5126                 0.3405

                     19                     20                     21
                      A                      A                      A
 Frequencies --    578.9791               598.0755               661.0473
 Red. masses --      7.5609                 7.1618                 6.7649
 Frc consts  --      1.4933                 1.5093                 1.7417
 IR Inten    --     17.1024                 9.8140                80.7840

                     22                     23                     24
                      A                      A                      A
 Frequencies --    695.2163               711.1987               741.3960
 Red. masses --      1.6159                 6.4125                 2.3723
 Frc consts  --      0.4601                 1.9110                 0.7683
 IR Inten    --     39.7142                10.0036                16.1951

                     25                     26                     27
                      A                      A                      A
 Frequencies --    755.0159               764.6145               768.2522
 Red. masses --      8.1661                 1.8834                 1.7443
 Frc consts  --      2.7427                 0.6488                 0.6066
 IR Inten    --     24.0592                 5.8276                84.6893

                     28                     29                     30
                      A                      A                      A
 Frequencies --    820.1860               826.9743               864.9800
 Red. masses --      6.2024                 1.6363                 1.3950
 Frc consts  --      2.4583                 0.6593                 0.6150
 IR Inten    --     14.1884                 0.0424                 0.9884

                     31                     32                     33
                      A                      A                      A
 Frequencies --    907.9159               920.8021               955.8263
 Red. masses --      1.3846                 6.6921                 1.3507
 Frc consts  --      0.6724                 3.3431                 0.7271
 IR Inten    --      5.5936                26.4022                 2.3572

                     34                     35                     36
                      A                      A                      A
 Frequencies --    956.1238               996.1307              1002.1298
 Red. masses --      1.3748                 7.3250                 1.2939
 Frc consts  --      0.7405                 4.2824                 0.7656
 IR Inten    --      0.1018                60.5030                 0.0012

                     37                     38                     39
                      A                      A                      A
 Frequencies --   1040.0178              1049.7307              1087.3728
 Red. masses --      2.1326                 2.1000                 4.2943
 Frc consts  --      1.3591                 1.3634                 2.9916
 IR Inten    --      0.2630                 2.3865                65.0970

                     40                     41                     42
                      A                      A                      A
 Frequencies --   1127.8706              1151.1895              1167.1008
 Red. masses --      1.4572                 1.3271                 1.1705
 Frc consts  --      1.0921                 1.0362                 0.9394
 IR Inten    --     25.7230                11.5579               110.5831

                     43                     44                     45
                      A                      A                      A
 Frequencies --   1179.1930              1228.6535              1253.5197
 Red. masses --      1.1545                 1.0531                 1.7797
 Frc consts  --      0.9459                 0.9367                 1.6476
 IR Inten    --     18.4651                64.9475                75.8995

                     46                     47                     48
                      A                      A                      A
 Frequencies --   1266.1494              1300.9249              1347.3615
 Red. masses --      2.7329                 2.1926                 4.2912
 Frc consts  --      2.5813                 2.1863                 4.5899
 IR Inten    --     29.7473                15.8238               137.9646

                     49                     50                     51
                      A                      A                      A
 Frequencies --   1364.6690              1390.4737              1405.2122
 Red. masses --      6.2901                 2.6151                 2.2672
 Frc consts  --      6.9017                 2.9790                 2.6377
 IR Inten    --    195.8157                 4.2873                 9.3139

                     52                     53                     54
                      A                      A                      A
 Frequencies --   1445.7651              1478.7026              1500.1626
 Red. masses --      2.9848                 3.8869                 3.9915
 Frc consts  --      3.6759                 5.0074                 5.2925
 IR Inten    --    538.3928               129.4486               207.2232

                     55                     56                     57
                      A                      A                      A
 Frequencies --   1525.9791              1542.1590              1565.3455
 Red. masses --      5.0297                 4.8041                 4.3538
 Frc consts  --      6.9007                 6.7317                 6.2855
 IR Inten    --     95.1283                83.6419               161.5843

                     58                     59                     60
                      A                      A                      A
 Frequencies --   1624.3107              1639.2257              1659.0594
 Red. masses --      6.0163                 5.9722                 6.4656
 Frc consts  --      9.3522                 9.4550                10.4854
 IR Inten    --     27.1744               822.2424                97.8865

                     61                     62                     63
                      A                      A                      A
 Frequencies --   1895.6221              3201.4982              3209.3554
 Red. masses --      1.1086                 1.0882                 1.0864
 Frc consts  --      2.3472                 6.5718                 6.5929
 IR Inten    --    225.4293                17.3660                 7.2268

                     64                     65                     66
                      A                      A                      A
 Frequencies --   3216.2532              3220.6772              3226.0989
 Red. masses --      1.0877                 1.0902                 1.0929
 Frc consts  --      6.6290                 6.6626                 6.7015
 IR Inten    --      2.1665                 3.3457                17.6099

                     67                     68                     69
                      A                      A                      A
 Frequencies --   3232.0652              3237.9204              3238.3290
 Red. masses --      1.0953                 1.0988                 1.0992
 Frc consts  --      6.7415                 6.7872                 6.7915
 IR Inten    --     10.1904                34.0327                 3.3140

 - Thermochemistry -
 -------------------
 Temperature   298.150 Kelvin.  Pressure   1.00000 Atm.
 Atom     1 has atomic number  6 and mass  12.00000

 Molecular mass:   227.04049 amu.
 Principal axes and moments of inertia in atomic units:
                           1         2         3
     Eigenvalues --  1319.488406322.836017642.32441
           X           -0.70257   0.71161   0.00000
           Y            0.71161   0.70257  -0.00001
           Z            0.00001   0.00001   1.00000
 This molecule is an asymmetric top.
 Rotational symmetry number  1.
 Warning -- assumption of classical behavior for rotation
           may cause significant error
 Rotational temperatures (Kelvin)      0.06564     0.01370     0.01133
 Rotational constants (GHZ):           1.36776     0.28543     0.23615
    1 imaginary frequencies ignored.
 Zero-point vibrational energy     478445.9 (Joules/Mol)
                                  114.35132 (Kcal/Mol)
 Warning -- explicit consideration of  19 degrees of freedom as
           vibrations may cause significant error
 Vibrational temperatures:     57.26    77.90   161.29   193.11   256.99
          (Kelvin)            316.62   387.88   393.04   531.55   542.52
                              582.40   629.84   679.31   716.29   727.67
                              781.91   801.56   833.02   860.50   951.10
                             1000.26  1023.26  1066.70  1086.30  1100.11
                             1105.34  1180.06  1189.83  1244.51  1306.29
                             1324.83  1375.22  1375.65  1433.21  1441.84
                             1496.35  1510.33  1564.49  1622.75  1656.30
                             1679.20  1696.60  1767.76  1803.54  1821.71
                             1871.74  1938.55  1963.45  2000.58  2021.79
                             2080.13  2127.52  2158.40  2195.54  2218.82
                             2252.18  2337.02  2358.48  2387.02  2727.38
                             4606.24  4617.55  4627.47  4633.84  4641.64
                             4650.22  4658.65  4659.23

 Zero-point correction=                           0.182230 (Hartree/Particle)
 Thermal correction to Energy=                    0.194302
 Thermal correction to Enthalpy=                  0.195246
 Thermal correction to Gibbs Free Energy=         0.142954
 Sum of electronic and zero-point Energies=          -1028.510518
 Sum of electronic and thermal Energies=             -1028.498447
 Sum of electronic and thermal Enthalpies=           -1028.497503
 Sum of electronic and thermal Free Energies=        -1028.549795

                     E (Thermal)             CV                S
                      KCal/Mol        Cal/Mol-Kelvin    Cal/Mol-Kelvin
 Total                  121.926             48.420            110.058
 Electronic               0.000              0.000              0.000
 Translational            0.889              2.981             42.162
 Rotational               0.889              2.981             32.522
 Vibrational            120.149             42.458             35.374
 Vibration     1          0.594              1.981              5.269
 Vibration     2          0.596              1.976              4.660
 Vibration     3          0.607              1.939              3.232
 Vibration     4          0.613              1.919              2.885
 Vibration     5          0.629              1.869              2.343
 Vibration     6          0.647              1.811              1.959
 Vibration     7          0.674              1.729              1.599
 Vibration     8          0.676              1.723              1.576
 Vibration     9          0.742              1.535              1.082
 Vibration    10          0.748              1.519              1.051
 Vibration    11          0.770              1.460              0.945
 Vibration    12          0.798              1.388              0.834
 Vibration    13          0.829              1.312              0.732
 Vibration    14          0.853              1.255              0.664
 Vibration    15          0.861              1.237              0.644
 Vibration    16          0.899              1.154              0.558
 Vibration    17          0.913              1.124              0.530
 Vibration    18          0.936              1.077              0.487
 Vibration    19          0.956              1.036              0.453

 Optimization completed.
    -- Stationary point found.
 Normal termination of Gaussian 16 at Mon Jul 13 15:35:23 2020.
