 Gaussian 16, Revision C.01,
 Gaussian 16:  ES64L-G16RevC.01  3-Jul-2019

 ----------------------------------------------------------------------
 #p opt=addgic freq td wb97xd/cc-pvdz nosymm int=ultrafine scrf=(solven
 t=CarbonTetraChloride)
 ----------------------------------------------------------------------

 ------------------------------------------------
 NM 2D-scan of HBT TD-WB97XD pVDZ in CTC Relaxed.
 ------------------------------------------------
 Symbolic Z-matrix:
 Charge =  0 Multiplicity = 1

 SCF Done:  E(RwB97XD) =  -1028.70326299     A.U. after   15 cycles
 Total Energy, E(TD-HF/TD-DFT) =  -1028.57205206
 SCF Done:  E(RwB97XD) =  -1028.80374336     A.U. after   13 cycles
 Total Energy, E(TD-HF/TD-DFT) =  -1028.67408544
 SCF Done:  E(RwB97XD) =  -1028.79754265     A.U. after   15 cycles
 Total Energy, E(TD-HF/TD-DFT) =  -1028.67214742
 SCF Done:  E(RwB97XD) =  -1028.81763491     A.U. after   12 cycles
 Total Energy, E(TD-HF/TD-DFT) =  -1028.69015807
 SCF Done:  E(RwB97XD) =  -1028.81850734     A.U. after   11 cycles
 Total Energy, E(TD-HF/TD-DFT) =  -1028.69037053
 SCF Done:  E(RwB97XD) =  -1028.81883194     A.U. after   10 cycles
 Total Energy, E(TD-HF/TD-DFT) =  -1028.69044745
 SCF Done:  E(RwB97XD) =  -1028.81881439     A.U. after    9 cycles
 Total Energy, E(TD-HF/TD-DFT) =  -1028.69044969
 Optimization completed.
    -- Stationary point found.
 Normal termination of Gaussian 16 at Tue Jul 14 15:18:34 2020.

 ----------------------------------------------------------------------
 #P Geom=AllCheck Guess=TCheck SCRF=Check GenChk RwB97XD TD(FC,Read)/CC
 -pVDZ Freq
 ----------------------------------------------------------------------

 Structure from the checkpoint file:  "config_1_18.chk"
 ------------------------------------------------
 NM 2D-scan of HBT TD-WB97XD pVDZ in CTC Relaxed.
 ------------------------------------------------
 Charge =  0 Multiplicity = 1

                          Input orientation:
 ---------------------------------------------------------------------
 Center     Atomic      Atomic             Coordinates (Angstroms)
 Number     Number       Type             X           Y           Z
 ---------------------------------------------------------------------
      1          6           0        1.525537   -3.290469   -0.000020
      2          6           0        0.968287   -2.014198   -0.000012
      3          6           0        1.770707   -0.816299   -0.000019
      4          6           0        3.185956   -0.975358   -0.000038
      5          6           0        3.724172   -2.247317   -0.000046
      6          6           0        2.910851   -3.404554   -0.000036
      7          1           0        0.887776   -4.175221   -0.000014
      8          1           0        3.821026   -0.088892   -0.000044
      9          1           0        4.809352   -2.365946   -0.000059
     10          1           0        3.374227   -4.392084   -0.000042
     11          7           0        1.091931    0.345030   -0.000002
     12         16           0       -0.716080   -1.606208    0.000007
     13          6           0       -1.267083    1.094059    0.000040
     14          6           0       -2.651764    0.737783    0.000042
     15          6           0       -0.947107    2.523519    0.000042
     16          6           0       -3.636188    1.704072    0.000022
     17          1           0       -2.931223   -0.316295    0.000052
     18          6           0       -1.969287    3.477261    0.000018
     19          6           0       -3.303536    3.078350    0.000004
     20          1           0       -4.684945    1.403432    0.000018
     21          1           0       -1.685406    4.530037    0.000016
     22          1           0       -4.094551    3.829160   -0.000015
     23          6           0       -0.255010    0.122477    0.000019
     24          8           0        0.312244    2.928436    0.000081
     25          1           0        0.906514    2.128125    0.000112
 ---------------------------------------------------------------------

 SCF Done:  E(RwB97XD) =  -1028.81881439     A.U. after    1 cycles

 Excitation energies and oscillator strengths:

 Excited state symmetry could not be determined.
 Excited State   1:      Singlet-?Sym    3.4930 eV  354.95 nm  f=0.7357  <S**2>=0.000
      59 -> 60         0.68895
 This state for optimization and/or second-order correction.
 Total Energy, E(TD-HF/TD-DFT) =  -1028.69044970
 Copying the excited state density for this state as the 1-particle RhoCI density.

 Excited state symmetry could not be determined.
 Excited State   2:      Singlet-?Sym    4.3754 eV  283.36 nm  f=0.0819  <S**2>=0.000
      57 -> 60         0.62984
      58 -> 60         0.19238
      59 -> 61         0.10677
      59 -> 62        -0.14501

 Excited state symmetry could not be determined.
 Excited State   3:      Singlet-?Sym    4.5465 eV  272.70 nm  f=0.1256  <S**2>=0.000
      57 -> 60         0.17257
      58 -> 60        -0.60707
      59 -> 61         0.19060
      59 -> 62         0.11766

 Alpha  occ. eigenvalues --  -89.08537 -19.29311 -14.47222 -10.39539 -10.38384
 Alpha  occ. eigenvalues --  -10.35003 -10.34453 -10.32684 -10.32416 -10.32195
 Alpha  occ. eigenvalues --  -10.31916 -10.31349 -10.31265 -10.31144 -10.30707
 Alpha  occ. eigenvalues --  -10.30694  -8.10562  -6.05397  -6.05063  -6.04627
 Alpha  occ. eigenvalues --   -1.17624  -1.07885  -0.96875  -0.95702  -0.91919
 Alpha  occ. eigenvalues --   -0.88765  -0.85239  -0.84530  -0.82113  -0.76009
 Alpha  occ. eigenvalues --   -0.71403  -0.70169  -0.69137  -0.68202  -0.63629
 Alpha  occ. eigenvalues --   -0.60257  -0.59091  -0.58578  -0.56194  -0.54514
 Alpha  occ. eigenvalues --   -0.53619  -0.53459  -0.52834  -0.50622  -0.50451
 Alpha  occ. eigenvalues --   -0.49163  -0.47765  -0.45971  -0.45564  -0.44829
 Alpha  occ. eigenvalues --   -0.44052  -0.43052  -0.41922  -0.39904  -0.37716
 Alpha  occ. eigenvalues --   -0.36428  -0.31874  -0.31744  -0.28095
 Alpha virt. eigenvalues --   -0.01906   0.05288   0.06830   0.07031   0.07845
 Alpha virt. eigenvalues --    0.11255   0.14230   0.15237   0.16872   0.18087
 Alpha virt. eigenvalues --    0.18486   0.20705   0.21517   0.22306   0.22697

 Mulliken charges:
               1
     1  C    0.019128
     2  C   -0.211562
     3  C    0.198427
     4  C   -0.019672
     5  C    0.004653
     6  C   -0.006401
     7  H    0.016012
     8  H    0.015255
     9  H    0.017599
    10  H    0.019429
    11  N   -0.355958
    12  S    0.147511
    13  C   -0.062497
    14  C   -0.027881
    15  C    0.073969
    16  C   -0.005290
    17  H    0.025608
    18  C    0.011596
    19  C    0.021589
    20  H    0.012427
    21  H    0.021346
    22  H    0.023994
    23  C    0.079501
    24  O   -0.188148
    25  H    0.169366
 Sum of Mulliken charges =  -0.00000

 Dipole moment (field-independent basis, Debye):
    X=             -0.8772    Y=             -1.7404    Z=              0.0000  Tot=              1.9489
 Quadrupole moment (field-independent basis, Debye-Ang):
   XX=            -83.1166   YY=            -89.2605   ZZ=           -104.3723
   XY=             -6.9452   XZ=              0.0000   YZ=             -0.0000

  Exact polarizability:     401.400    -197.098     395.189      -0.003       0.003      63.353
 Approx polarizability:     279.083     -37.173     261.631      -0.001       0.001      82.360

                      1                      2                      3
                      A                      A                      A
 Frequencies --     44.0024                68.2470               110.4842
 Red. masses --      6.1649                 4.9090                 5.1886
 Frc consts  --      0.0070                 0.0135                 0.0373
 IR Inten    --      1.2689                 0.0005                 0.2454

                      4                      5                      6
                      A                      A                      A
 Frequencies --    114.4848               182.0190               225.9451
 Red. masses --      5.7344                 6.8004                 5.3799
 Frc consts  --      0.0443                 0.1327                 0.1618
 IR Inten    --      1.5129                 1.4752                 0.0224

                      7                      8                      9
                      A                      A                      A
 Frequencies --    263.1553               273.0468               292.4748
 Red. masses --      7.9075                 4.8539                 6.7106
 Frc consts  --      0.3226                 0.2132                 0.3382
 IR Inten    --     13.4955                 0.0160                20.2721

                     10                     11                     12
                      A                      A                      A
 Frequencies --    393.1901               407.4702               442.1088
 Red. masses --      4.4626                 9.0426                 3.2711
 Frc consts  --      0.4065                 0.8846                 0.3767
 IR Inten    --      0.0553                12.7904                 3.8398

                     13                     14                     15
                      A                      A                      A
 Frequencies --    492.2195               498.3475               511.2137
 Red. masses --      4.3744                 7.4310                 3.1478
 Frc consts  --      0.6244                 1.0873                 0.4847
 IR Inten    --      0.2363                 5.8135                 0.2214

                     16                     17                     18
                      A                      A                      A
 Frequencies --    513.2119               524.4406               551.6145
 Red. masses --      5.2675                 8.4015                 3.9816
 Frc consts  --      0.8174                 1.3614                 0.7138
 IR Inten    --     20.2237                27.9732                 0.2255

                     19                     20                     21
                      A                      A                      A
 Frequencies --    576.6360               644.9533               687.0739
 Red. masses --      7.7203                 6.6371                10.5123
 Frc consts  --      1.5125                 1.6266                 2.9239
 IR Inten    --     51.1921                 4.2073                69.6452

                     22                     23                     24
                      A                      A                      A
 Frequencies --    716.6388               722.8318               734.3578
 Red. masses --      6.4585                 1.4195                 2.0334
 Frc consts  --      1.9543                 0.4370                 0.6461
 IR Inten    --      9.6619                80.7178                26.9478

                     25                     26                     27
                      A                      A                      A
 Frequencies --    738.4999               771.5006               813.1875
 Red. masses --      1.9567                 2.3491                 1.7378
 Frc consts  --      0.6288                 0.8238                 0.6771
 IR Inten    --      9.6507                44.9413                12.0091

                     28                     29                     30
                      A                      A                      A
 Frequencies --    818.5893               859.6277               864.8962
 Red. masses --      6.5752                 1.4038                 1.0963
 Frc consts  --      2.5959                 0.6112                 0.4832
 IR Inten    --     22.5429                 0.9136                63.7508

                     31                     32                     33
                      A                      A                      A
 Frequencies --    880.2177               922.3859               953.6266
 Red. masses --      6.3875                 1.3445                 1.3442
 Frc consts  --      2.9158                 0.6739                 0.7202
 IR Inten    --     69.2639                 1.0618                 2.1351

                     34                     35                     36
                      A                      A                      A
 Frequencies --    955.9546               968.5802               998.6349
 Red. masses --      7.3557                 1.3432                 1.3074
 Frc consts  --      3.9605                 0.7424                 0.7682
 IR Inten    --     13.8553                 0.1601                 0.0021

                     37                     38                     39
                      A                      A                      A
 Frequencies --   1039.2041              1049.3995              1088.0260
 Red. masses --      2.0994                 2.1721                 4.3633
 Frc consts  --      1.3358                 1.4093                 3.0433
 IR Inten    --      0.6022                 6.6148                40.1539

                     40                     41                     42
                      A                      A                      A
 Frequencies --   1141.1343              1152.6512              1176.6022
 Red. masses --      1.4919                 1.3470                 1.2277
 Frc consts  --      1.1447                 1.0545                 1.0014
 IR Inten    --     42.9460                14.5723                42.6136

                     43                     44                     45
                      A                      A                      A
 Frequencies --   1181.5056              1212.2339              1260.4698
 Red. masses --      1.4506                 3.7794                 1.5610
 Frc consts  --      1.1931                 3.2722                 1.4613
 IR Inten    --     10.2140                47.6089               136.9101

                     46                     47                     48
                      A                      A                      A
 Frequencies --   1276.8150              1321.4067              1354.2964
 Red. masses --      1.6466                 3.2934                 2.9662
 Frc consts  --      1.5816                 3.3882                 3.2054
 IR Inten    --      4.1954               258.3765                44.6656

                     49                     50                     51
                      A                      A                      A
 Frequencies --   1369.6519              1400.6711              1447.4759
 Red. masses --      5.2522                 2.1522                 2.1138
 Frc consts  --      5.8051                 2.4877                 2.6094
 IR Inten    --     60.3267                49.4022               160.1332

                     52                     53                     54
                      A                      A                      A
 Frequencies --   1471.1022              1496.1291              1510.9387
 Red. masses --      3.6129                 3.2873                 2.0471
 Frc consts  --      4.6067                 4.3354                 2.7535
 IR Inten    --     91.6579                48.9852               140.2058

                     55                     56                     57
                      A                      A                      A
 Frequencies --   1544.9396              1578.1321              1589.5466
 Red. masses --      5.1696                 5.9851                 2.7816
 Frc consts  --      7.2700                 8.7823                 4.1409
 IR Inten    --     92.5627                 3.1041               629.8307

                     58                     59                     60
                      A                      A                      A
 Frequencies --   1600.9856              1632.5409              1645.5565
 Red. masses --      5.0008                 5.0181                 5.2432
 Frc consts  --      7.5521                 7.8798                 8.3651
 IR Inten    --     49.6466               212.4911               329.7640

                     61                     62                     63
                      A                      A                      A
 Frequencies --   3188.3831              3205.2449              3213.7337
 Red. masses --      1.0725                 1.0862                 1.0860
 Frc consts  --      6.4238                 6.5751                 6.6084
 IR Inten    --      7.0165                 9.2426                 5.4320

                     64                     65                     66
                      A                      A                      A
 Frequencies --   3216.0291              3224.0406              3227.8048
 Red. masses --      1.0897                 1.0885                 1.0954
 Frc consts  --      6.6402                 6.6659                 6.7242
 IR Inten    --      2.5409                12.4526                10.0181

                     67                     68                     69
                      A                      A                      A
 Frequencies --   3233.7587              3233.7942              3240.8512
 Red. masses --      1.0990                 1.0946                 1.0987
 Frc consts  --      6.7713                 6.7445                 6.7988
 IR Inten    --     39.9213                 8.2681                27.5582

 - Thermochemistry -
 -------------------
 Temperature   298.150 Kelvin.  Pressure   1.00000 Atm.
 Atom     1 has atomic number  6 and mass  12.00000

 Molecular mass:   227.04049 amu.
 Principal axes and moments of inertia in atomic units:
                           1         2         3
     Eigenvalues --  1314.033636361.350817675.38444
           X           -0.69688   0.71719   0.00000
           Y            0.71719   0.69688  -0.00001
           Z            0.00001   0.00000   1.00000
 This molecule is an asymmetric top.
 Rotational symmetry number  1.
 Warning -- assumption of classical behavior for rotation
           may cause significant error
 Rotational temperatures (Kelvin)      0.06591     0.01362     0.01128
 Rotational constants (GHZ):           1.37344     0.28370     0.23513
 Zero-point vibrational energy     490833.3 (Joules/Mol)
                                  117.31198 (Kcal/Mol)
 Warning -- explicit consideration of  19 degrees of freedom as
           vibrations may cause significant error
 Vibrational temperatures:     63.31    98.19   158.96   164.72   261.88
          (Kelvin)            325.08   378.62   392.85   420.81   565.71
                              586.26   636.10   708.19   717.01   735.52
                              738.40   754.55   793.65   829.65   927.94
                              988.55  1031.08  1039.99  1056.58  1062.54
                             1110.02  1170.00  1177.77  1236.81  1244.39
                             1266.44  1327.11  1372.06  1375.41  1393.57
                             1436.81  1495.18  1509.85  1565.43  1641.84
                             1658.41  1692.87  1699.92  1744.13  1813.53
                             1837.05  1901.21  1948.53  1970.62  2015.25
                             2082.59  2116.59  2152.60  2173.90  2222.82
                             2270.58  2287.00  2303.46  2348.86  2367.59
                             4587.37  4611.63  4623.85  4627.15  4638.68
                             4644.09  4652.66  4652.71  4662.86

 Zero-point correction=                           0.186949 (Hartree/Particle)
 Thermal correction to Energy=                    0.199234
 Thermal correction to Enthalpy=                  0.200178
 Thermal correction to Gibbs Free Energy=         0.147708
 Sum of electronic and zero-point Energies=          -1028.503501
 Sum of electronic and thermal Energies=             -1028.491216
 Sum of electronic and thermal Enthalpies=           -1028.490272
 Sum of electronic and thermal Free Energies=        -1028.542741

                     E (Thermal)             CV                S
                      KCal/Mol        Cal/Mol-Kelvin    Cal/Mol-Kelvin
 Total                  125.021             49.432            110.432
 Electronic               0.000              0.000              0.000
 Translational            0.889              2.981             42.162
 Rotational               0.889              2.981             32.528
 Vibrational            123.244             43.470             35.741
 Vibration     1          0.595              1.980              5.070
 Vibration     2          0.598              1.969              4.203
 Vibration     3          0.606              1.941              3.260
 Vibration     4          0.607              1.937              3.191
 Vibration     5          0.630              1.864              2.308
 Vibration     6          0.650              1.802              1.911
 Vibration     7          0.670              1.740              1.641
 Vibration     8          0.676              1.723              1.577
 Vibration     9          0.688              1.688              1.460
 Vibration    10          0.760              1.485              0.988
 Vibration    11          0.772              1.454              0.936
 Vibration    12          0.802              1.378              0.820
 Vibration    13          0.848              1.267              0.678
 Vibration    14          0.854              1.254              0.662
 Vibration    15          0.866              1.225              0.631
 Vibration    16          0.868              1.221              0.626
 Vibration    17          0.879              1.196              0.600
 Vibration    18          0.907              1.136              0.541
 Vibration    19          0.933              1.082              0.492

 Optimization completed.
    -- Stationary point found.
 Normal termination of Gaussian 16 at Tue Jul 14 15:35:53 2020.
