 Gaussian 16, Revision C.01,
 Gaussian 16:  ES64L-G16RevC.01  3-Jul-2019

 ----------------------------------------------------------------------
 #p opt=addgic freq td wb97xd/cc-pvdz nosymm int=ultrafine scrf=(solven
 t=CarbonTetraChloride)
 ----------------------------------------------------------------------

 ------------------------------------------------
 NM 2D-scan of HBT TD-WB97XD pVDZ in CTC Relaxed.
 ------------------------------------------------
 Symbolic Z-matrix:
 Charge =  0 Multiplicity = 1

 SCF Done:  E(RwB97XD) =  -1028.80308268     A.U. after   16 cycles
 Total Energy, E(TD-HF/TD-DFT) =  -1028.68832098
 SCF Done:  E(RwB97XD) =  -1028.79733122     A.U. after   14 cycles
 Total Energy, E(TD-HF/TD-DFT) =  -1028.68982005
 SCF Done:  E(RwB97XD) =  -1028.80197897     A.U. after   13 cycles
 Total Energy, E(TD-HF/TD-DFT) =  -1028.69151885
 SCF Done:  E(RwB97XD) =  -1028.80222696     A.U. after   11 cycles
 Total Energy, E(TD-HF/TD-DFT) =  -1028.69157600
 SCF Done:  E(RwB97XD) =  -1028.80216604     A.U. after   10 cycles
 Total Energy, E(TD-HF/TD-DFT) =  -1028.69158436
 SCF Done:  E(RwB97XD) =  -1028.80214784     A.U. after    9 cycles
 Total Energy, E(TD-HF/TD-DFT) =  -1028.69158505
 SCF Done:  E(RwB97XD) =  -1028.80214144     A.U. after    9 cycles
 Total Energy, E(TD-HF/TD-DFT) =  -1028.69158532
 Optimization completed.
    -- Stationary point found.
 Normal termination of Gaussian 16 at Tue Jul 14 11:07:10 2020.

 ----------------------------------------------------------------------
 #P Geom=AllCheck Guess=TCheck SCRF=Check GenChk RwB97XD TD(FC,Read)/CC
 -pVDZ Freq
 ----------------------------------------------------------------------

 Structure from the checkpoint file:  "config_7_16.chk"
 ------------------------------------------------
 NM 2D-scan of HBT TD-WB97XD pVDZ in CTC Relaxed.
 ------------------------------------------------
 Charge =  0 Multiplicity = 1

                          Input orientation:
 ---------------------------------------------------------------------
 Center     Atomic      Atomic             Coordinates (Angstroms)
 Number     Number       Type             X           Y           Z
 ---------------------------------------------------------------------
      1          6           0        1.553682   -3.275464   -0.000235
      2          6           0        0.987290   -2.002792   -0.000087
      3          6           0        1.775917   -0.812115    0.000104
      4          6           0        3.176481   -0.943191    0.000164
      5          6           0        3.734381   -2.215599    0.000009
      6          6           0        2.941474   -3.375741   -0.000192
      7          1           0        0.922387   -4.165007   -0.000369
      8          1           0        3.805390   -0.052481    0.000323
      9          1           0        4.821205   -2.314501    0.000049
     10          1           0        3.414602   -4.358392   -0.000300
     11          7           0        1.036094    0.348644    0.000243
     12         16           0       -0.713599   -1.621228   -0.000051
     13          6           0       -1.309909    1.083828    0.000087
     14          6           0       -2.672157    0.752525    0.000191
     15          6           0       -0.917466    2.506714   -0.000112
     16          6           0       -3.650569    1.753975    0.000162
     17          1           0       -2.983109   -0.294102    0.000326
     18          6           0       -1.943099    3.482248   -0.000180
     19          6           0       -3.288122    3.110099   -0.000017
     20          1           0       -4.703974    1.470535    0.000265
     21          1           0       -1.635371    4.528718   -0.000383
     22          1           0       -4.062966    3.877498   -0.000068
     23          6           0       -0.301296    0.090843    0.000107
     24          8           0        0.326133    2.830883   -0.000470
     25          1           0        1.112334    1.489464    0.000536
 ---------------------------------------------------------------------

 SCF Done:  E(RwB97XD) =  -1028.80214144     A.U. after    1 cycles

 Excitation energies and oscillator strengths:

 Excited state symmetry could not be determined.
 Excited State   1:      Singlet-?Sym    3.0084 eV  412.13 nm  f=0.4445  <S**2>=0.000
      59 -> 60         0.69580
 This state for optimization and/or second-order correction.
 Total Energy, E(TD-HF/TD-DFT) =  -1028.69158533
 Copying the excited state density for this state as the 1-particle RhoCI density.

 Excited state symmetry could not be determined.
 Excited State   2:      Singlet-?Sym    4.0265 eV  307.92 nm  f=0.0000  <S**2>=0.000
      57 -> 60         0.68521
      57 -> 62         0.11248
      57 -> 64         0.11591

 Excited state symmetry could not be determined.
 Excited State   3:      Singlet-?Sym    4.2924 eV  288.85 nm  f=0.3204  <S**2>=0.000
      58 -> 60         0.68038

 Alpha  occ. eigenvalues --  -89.10008 -19.22335 -14.51943 -10.41403 -10.37528
 Alpha  occ. eigenvalues --  -10.36298 -10.36012 -10.33087 -10.32682 -10.32274
 Alpha  occ. eigenvalues --  -10.32179 -10.31723 -10.31216 -10.31053 -10.29529
 Alpha  occ. eigenvalues --  -10.28883  -8.12048  -6.06907  -6.06554  -6.06074
 Alpha  occ. eigenvalues --   -1.12076  -1.09336  -0.97951  -0.95588  -0.93145
 Alpha  occ. eigenvalues --   -0.89029  -0.86455  -0.83599  -0.81785  -0.75804
 Alpha  occ. eigenvalues --   -0.72121  -0.71881  -0.68492  -0.67506  -0.64460
 Alpha  occ. eigenvalues --   -0.60985  -0.59529  -0.57036  -0.55337  -0.55162
 Alpha  occ. eigenvalues --   -0.54715  -0.53873  -0.53005  -0.50421  -0.49541
 Alpha  occ. eigenvalues --   -0.48937  -0.48103  -0.46735  -0.45290  -0.45118
 Alpha  occ. eigenvalues --   -0.44135  -0.43144  -0.42037  -0.40460  -0.36703
 Alpha  occ. eigenvalues --   -0.33293  -0.33074  -0.31301  -0.26602
 Alpha virt. eigenvalues --   -0.01971   0.04023   0.05808   0.06665   0.08785
 Alpha virt. eigenvalues --    0.10609   0.14035   0.14866   0.16461   0.17610
 Alpha virt. eigenvalues --    0.18527   0.20384   0.20600   0.21456   0.22478

 Mulliken charges:
               1
     1  C    0.020601
     2  C   -0.223522
     3  C    0.261364
     4  C   -0.014376
     5  C    0.008666
     6  C    0.001176
     7  H    0.024229
     8  H    0.028831
     9  H    0.025448
    10  H    0.025444
    11  N   -0.231354
    12  S    0.194087
    13  C   -0.093897
    14  C   -0.033042
    15  C    0.125002
    16  C   -0.027808
    17  H    0.015719
    18  C   -0.015792
    19  C    0.030770
    20  H    0.003660
    21  H    0.006157
    22  H    0.016970
    23  C    0.062221
    24  O   -0.422138
    25  H    0.211584
 Sum of Mulliken charges =   0.00000

 Dipole moment (field-independent basis, Debye):
    X=              1.1056    Y=             -5.0728    Z=              0.0014  Tot=              5.1919
 Quadrupole moment (field-independent basis, Debye-Ang):
   XX=            -82.3373   YY=            -94.9901   ZZ=           -104.2523
   XY=             -6.8448   XZ=              0.0014   YZ=              0.0042

  Exact polarizability:     347.134    -125.799     304.408      -0.005       0.003      63.196
 Approx polarizability:     272.418     -34.654     264.707      -0.002      -0.000      82.096

 ******    1 imaginary frequencies (negative Signs) ******

                      1                      2                      3
                      A                      A                      A
 Frequencies --   -215.2354                30.5526                69.2728
 Red. masses --      2.8548                 6.3480                 4.6484
 Frc consts  --      0.0779                 0.0035                 0.0131
 IR Inten    --    467.0892                 1.5576                 0.2920

                      4                      5                      6
                      A                      A                      A
 Frequencies --    123.5636               179.8606               185.9381
 Red. masses --      6.0149                 5.2174                 6.3410
 Frc consts  --      0.0541                 0.0994                 0.1292
 IR Inten    --      0.7295                30.4310                 0.1601

                      7                      8                      9
                      A                      A                      A
 Frequencies --    218.0860               269.5461               294.0513
 Red. masses --      5.5932                 4.6178                 6.7413
 Frc consts  --      0.1567                 0.1977                 0.3434
 IR Inten    --      0.1209                 0.0618                16.7419

                     10                     11                     12
                      A                      A                      A
 Frequencies --    361.8326               404.6658               437.4066
 Red. masses --      5.0044                 9.5331                 3.3020
 Frc consts  --      0.3860                 0.9198                 0.3722
 IR Inten    --      0.7744                 8.6807                 3.4323

                     13                     14                     15
                      A                      A                      A
 Frequencies --    463.6754               467.4287               505.8460
 Red. masses --      4.5641                 3.3822                 3.1907
 Frc consts  --      0.5781                 0.4354                 0.4810
 IR Inten    --      1.8397               275.7157                 0.4009

                     16                     17                     18
                      A                      A                      A
 Frequencies --    508.0201               545.6099               559.0504
 Red. masses --      8.7054                 8.7247                 3.8725
 Frc consts  --      1.3237                 1.5303                 0.7131
 IR Inten    --      1.6468                 3.2188                 0.3331

                     19                     20                     21
                      A                      A                      A
 Frequencies --    570.2594               592.9373               679.5934
 Red. masses --      7.2440                 6.0391                 6.0846
 Frc consts  --      1.3880                 1.2509                 1.6557
 IR Inten    --     23.9861                53.6239                 2.6988

                     22                     23                     24
                      A                      A                      A
 Frequencies --    698.3709               723.0597               742.6874
 Red. masses --      1.5470                 6.2778                 2.6381
 Frc consts  --      0.4445                 1.9338                 0.8573
 IR Inten    --     41.7349                 5.4804                15.5632

                     25                     26                     27
                      A                      A                      A
 Frequencies --    760.3081               766.9880               779.9383
 Red. masses --      1.7344                 1.6634                 4.0813
 Frc consts  --      0.5907                 0.5765                 1.4627
 IR Inten    --      4.5163                85.6507                81.8550

                     28                     29                     30
                      A                      A                      A
 Frequencies --    823.4621               829.8736               869.5967
 Red. masses --      1.8355                 6.3212                 1.3809
 Frc consts  --      0.7333                 2.5649                 0.6152
 IR Inten    --      0.2292                21.0175                 0.9437

                     31                     32                     33
                      A                      A                      A
 Frequencies --    903.4208               937.2031               953.9911
 Red. masses --      1.4025                 5.3694                 1.3693
 Frc consts  --      0.6744                 2.7787                 0.7342
 IR Inten    --      5.6371                50.2700                 0.2972

                     34                     35                     36
                      A                      A                      A
 Frequencies --    957.6203              1003.4450              1044.5317
 Red. masses --      1.3513                 1.2987                 4.1202
 Frc consts  --      0.7301                 0.7705                 2.6486
 IR Inten    --      2.1469                 0.0000               213.8502

                     37                     38                     39
                      A                      A                      A
 Frequencies --   1050.4716              1053.0313              1109.8605
 Red. masses --      2.1302                 2.0264                 2.9523
 Frc consts  --      1.3849                 1.3239                 2.1426
 IR Inten    --      1.6118                 1.3645               152.3436

                     40                     41                     42
                      A                      A                      A
 Frequencies --   1118.8000              1133.6576              1157.4780
 Red. masses --      1.0572                 1.5018                 1.3911
 Frc consts  --      0.7797                 1.1372                 1.0981
 IR Inten    --     72.8686                16.7143                 3.2468

                     43                     44                     45
                      A                      A                      A
 Frequencies --   1173.1569              1178.8880              1260.1685
 Red. masses --      1.2507                 1.1937                 2.1039
 Frc consts  --      1.0142                 0.9774                 1.9685
 IR Inten    --     64.9589                 4.9224                53.2477

                     46                     47                     48
                      A                      A                      A
 Frequencies --   1272.9263              1305.6358              1336.6364
 Red. masses --      2.1176                 2.2990                 4.2789
 Frc consts  --      2.0217                 2.3090                 4.5041
 IR Inten    --     87.0450                11.1761                 4.5869

                     49                     50                     51
                      A                      A                      A
 Frequencies --   1351.8198              1383.0749              1405.7390
 Red. masses --      6.3092                 3.0788                 2.4762
 Frc consts  --      6.7930                 3.4700                 2.8830
 IR Inten    --    187.4542               153.9631                59.5023

                     52                     53                     54
                      A                      A                      A
 Frequencies --   1450.2283              1477.5810              1493.2763
 Red. masses --      2.6231                 3.2665                 3.7116
 Frc consts  --      3.2504                 4.2019                 4.8763
 IR Inten    --    403.2597                10.2463                83.5500

                     55                     56                     57
                      A                      A                      A
 Frequencies --   1511.8158              1548.9757              1569.6777
 Red. masses --      3.7246                 5.2563                 4.4301
 Frc consts  --      5.0157                 7.4305                 6.4311
 IR Inten    --    129.8918                73.3200                34.9255

                     58                     59                     60
                      A                      A                      A
 Frequencies --   1621.6044              1626.0380              1660.3246
 Red. masses --      5.7299                 5.7540                 6.5273
 Frc consts  --      8.8774                 8.9635                10.6016
 IR Inten    --    115.4658               429.7627                98.6704

                     61                     62                     63
                      A                      A                      A
 Frequencies --   2177.7403              3206.2727              3209.1079
 Red. masses --      1.1047                 1.0867                 1.0861
 Frc consts  --      3.0868                 6.5819                 6.5899
 IR Inten    --    937.4968                23.5907                 3.7805

                     64                     65                     66
                      A                      A                      A
 Frequencies --   3216.9571              3218.5929              3227.5866
 Red. masses --      1.0878                 1.0903                 1.0935
 Frc consts  --      6.6328                 6.6548                 6.7113
 IR Inten    --      8.5638                 3.2500                16.1337

                     67                     68                     69
                      A                      A                      A
 Frequencies --   3229.2033              3236.0771              3238.7252
 Red. masses --      1.0955                 1.0995                 1.0986
 Frc consts  --      6.7305                 6.7840                 6.7896
 IR Inten    --      7.7922                17.6915                19.1894

 - Thermochemistry -
 -------------------
 Temperature   298.150 Kelvin.  Pressure   1.00000 Atm.
 Atom     1 has atomic number  6 and mass  12.00000

 Molecular mass:   227.04049 amu.
 Principal axes and moments of inertia in atomic units:
                           1         2         3
     Eigenvalues --  1295.535666350.015947645.55155
           X           -0.70119   0.71298   0.00002
           Y            0.71298   0.70119   0.00002
           Z            0.00000  -0.00003   1.00000
 This molecule is an asymmetric top.
 Rotational symmetry number  1.
 Warning -- assumption of classical behavior for rotation
           may cause significant error
 Rotational temperatures (Kelvin)      0.06686     0.01364     0.01133
 Rotational constants (GHZ):           1.39305     0.28421     0.23605
    1 imaginary frequencies ignored.
 Zero-point vibrational energy     481334.4 (Joules/Mol)
                                  115.04168 (Kcal/Mol)
 Warning -- explicit consideration of  19 degrees of freedom as
           vibrations may cause significant error
 Vibrational temperatures:     43.96    99.67   177.78   258.78   267.52
          (Kelvin)            313.78   387.82   423.07   520.60   582.22
                              629.33   667.13   672.53   727.80   730.93
                              785.01   804.35   820.48   853.10   977.78
                             1004.80  1040.32  1068.56  1093.91  1103.52
                             1122.16  1184.78  1194.00  1251.16  1299.82
                             1348.43  1372.58  1377.80  1443.73  1502.85
                             1511.39  1515.08  1596.84  1609.70  1631.08
                             1665.35  1687.91  1696.16  1813.10  1831.46
                             1878.52  1923.12  1944.97  1989.94  2022.54
                             2086.56  2125.91  2148.49  2175.17  2228.63
                             2258.42  2333.13  2339.51  2388.84  3133.28
                             4613.11  4617.19  4628.48  4630.84  4643.78
                             4646.10  4655.99  4659.80

 Zero-point correction=                           0.183331 (Hartree/Particle)
 Thermal correction to Energy=                    0.195156
 Thermal correction to Enthalpy=                  0.196101
 Thermal correction to Gibbs Free Energy=         0.144399
 Sum of electronic and zero-point Energies=          -1028.508255
 Sum of electronic and thermal Energies=             -1028.496429
 Sum of electronic and thermal Enthalpies=           -1028.495485
 Sum of electronic and thermal Free Energies=        -1028.547186

                     E (Thermal)             CV                S
                      KCal/Mol        Cal/Mol-Kelvin    Cal/Mol-Kelvin
 Total                  122.462             47.988            108.815
 Electronic               0.000              0.000              0.000
 Translational            0.889              2.981             42.162
 Rotational               0.889              2.981             32.509
 Vibrational            120.685             42.026             34.144
 Vibration     1          0.594              1.984              5.793
 Vibration     2          0.598              1.969              4.174
 Vibration     3          0.610              1.929              3.044
 Vibration     4          0.629              1.867              2.330
 Vibration     5          0.632              1.859              2.268
 Vibration     6          0.646              1.814              1.975
 Vibration     7          0.674              1.729              1.599
 Vibration     8          0.689              1.685              1.451
 Vibration     9          0.736              1.551              1.114
 Vibration    10          0.770              1.460              0.946
 Vibration    11          0.798              1.389              0.835
 Vibration    12          0.821              1.331              0.755
 Vibration    13          0.825              1.322              0.745
 Vibration    14          0.861              1.237              0.644
 Vibration    15          0.863              1.232              0.638
 Vibration    16          0.901              1.149              0.553
 Vibration    17          0.915              1.120              0.526
 Vibration    18          0.926              1.096              0.504
 Vibration    19          0.950              1.047              0.462

 Optimization completed.
    -- Stationary point found.
 Normal termination of Gaussian 16 at Tue Jul 14 11:25:01 2020.
