 Gaussian 16, Revision C.01,
 Gaussian 16:  ES64L-G16RevC.01  3-Jul-2019

 ----------------------------------------------------------------------
 #p opt=addgic freq td wb97xd/cc-pvdz nosymm int=ultrafine scrf=(solven
 t=CarbonTetraChloride)
 ----------------------------------------------------------------------

 ------------------------------------------------
 NM 2D-scan of HBT TD-WB97XD pVDZ in CTC Relaxed.
 ------------------------------------------------
 Symbolic Z-matrix:
 Charge =  0 Multiplicity = 1

 SCF Done:  E(RwB97XD) =  -1028.79715493     A.U. after   15 cycles
 Total Energy, E(TD-HF/TD-DFT) =  -1028.66752303
 SCF Done:  E(RwB97XD) =  -1028.81338147     A.U. after   13 cycles
 Total Energy, E(TD-HF/TD-DFT) =  -1028.68511084
 SCF Done:  E(RwB97XD) =  -1028.81275899     A.U. after   13 cycles
 Total Energy, E(TD-HF/TD-DFT) =  -1028.68654461
 SCF Done:  E(RwB97XD) =  -1028.81341893     A.U. after   11 cycles
 Total Energy, E(TD-HF/TD-DFT) =  -1028.68702384
 SCF Done:  E(RwB97XD) =  -1028.81351170     A.U. after   10 cycles
 Total Energy, E(TD-HF/TD-DFT) =  -1028.68703726
 SCF Done:  E(RwB97XD) =  -1028.81351566     A.U. after    9 cycles
 Total Energy, E(TD-HF/TD-DFT) =  -1028.68703935
 SCF Done:  E(RwB97XD) =  -1028.81352746     A.U. after    7 cycles
 Total Energy, E(TD-HF/TD-DFT) =  -1028.68703950
 SCF Done:  E(RwB97XD) =  -1028.81353099     A.U. after    6 cycles
 Total Energy, E(TD-HF/TD-DFT) =  -1028.68703956
 Optimization completed.
    -- Stationary point found.
 Normal termination of Gaussian 16 at Mon Jul 13 14:21:08 2020.

 ----------------------------------------------------------------------
 #P Geom=AllCheck Guess=TCheck SCRF=Check GenChk RwB97XD TD(FC,Read)/CC
 -pVDZ Freq
 ----------------------------------------------------------------------

 Structure from the checkpoint file:  "config_4_2.chk"
 ------------------------------------------------
 NM 2D-scan of HBT TD-WB97XD pVDZ in CTC Relaxed.
 ------------------------------------------------
 Charge =  0 Multiplicity = 1

                          Input orientation:
 ---------------------------------------------------------------------
 Center     Atomic      Atomic             Coordinates (Angstroms)
 Number     Number       Type             X           Y           Z
 ---------------------------------------------------------------------
      1          6           0        1.749408   -3.289690   -0.000042
      2          6           0        0.984601   -2.121578   -0.000012
      3          6           0        1.640587   -0.849445    0.000012
      4          6           0        3.054916   -0.762123    0.000012
      5          6           0        3.790733   -1.924330   -0.000019
      6          6           0        3.145259   -3.179872   -0.000047
      7          1           0        1.278718   -4.273752   -0.000063
      8          1           0        3.518753    0.224809    0.000032
      9          1           0        4.881260   -1.880241   -0.000023
     10          1           0        3.746717   -4.090298   -0.000071
     11          7           0        0.851642    0.220158    0.000033
     12         16           0       -0.765540   -1.869435   -0.000002
     13          6           0       -1.403269    1.002720    0.000006
     14          6           0       -2.822379    0.899566   -0.000007
     15          6           0       -0.877101    2.399176    0.000012
     16          6           0       -3.636796    2.027245    0.000022
     17          1           0       -3.279156   -0.091670   -0.000030
     18          6           0       -1.734999    3.508240    0.000052
     19          6           0       -3.107867    3.340068    0.000060
     20          1           0       -4.719845    1.892733    0.000019
     21          1           0       -1.263953    4.491552    0.000066
     22          1           0       -3.773166    4.203554    0.000089
     23          6           0       -0.473330   -0.071790    0.000018
     24          8           0        0.405729    2.682373   -0.000025
     25          1           0        0.896190    1.792059   -0.000001
 ---------------------------------------------------------------------

 SCF Done:  E(RwB97XD) =  -1028.81353099     A.U. after    1 cycles

 Excitation energies and oscillator strengths:

 Excited state symmetry could not be determined.
 Excited State   1:      Singlet-?Sym    3.4420 eV  360.21 nm  f=0.6577  <S**2>=0.000
      59 -> 60         0.69032
 This state for optimization and/or second-order correction.
 Total Energy, E(TD-HF/TD-DFT) =  -1028.68703953
 Copying the excited state density for this state as the 1-particle RhoCI density.

 Excited state symmetry could not be determined.
 Excited State   2:      Singlet-?Sym    4.3816 eV  282.97 nm  f=0.2762  <S**2>=0.000
      57 -> 60         0.18829
      58 -> 60         0.63689
      59 -> 63         0.12239
      59 -> 64         0.11845

 Excited state symmetry could not be determined.
 Excited State   3:      Singlet-?Sym    4.5944 eV  269.86 nm  f=0.0392  <S**2>=0.000
      56 -> 61        -0.10116
      57 -> 60         0.58168
      57 -> 63        -0.14112
      58 -> 60        -0.17816
      58 -> 61        -0.14156
      59 -> 61         0.24782

 Alpha  occ. eigenvalues --  -89.09384 -19.27974 -14.46933 -10.40191 -10.38110
 Alpha  occ. eigenvalues --  -10.35086 -10.34865 -10.33012 -10.32426 -10.32272
 Alpha  occ. eigenvalues --  -10.31789 -10.31540 -10.31404 -10.31339 -10.30344
 Alpha  occ. eigenvalues --  -10.30050  -8.11202  -6.06071  -6.05727  -6.05247
 Alpha  occ. eigenvalues --   -1.16958  -1.08493  -0.96635  -0.95482  -0.91419
 Alpha  occ. eigenvalues --   -0.88808  -0.84821  -0.84309  -0.82349  -0.75970
 Alpha  occ. eigenvalues --   -0.70960  -0.70179  -0.69017  -0.68310  -0.63249
 Alpha  occ. eigenvalues --   -0.60354  -0.58781  -0.58537  -0.55730  -0.54360
 Alpha  occ. eigenvalues --   -0.53736  -0.53017  -0.52661  -0.51118  -0.50284
 Alpha  occ. eigenvalues --   -0.49376  -0.47886  -0.45875  -0.45507  -0.44696
 Alpha  occ. eigenvalues --   -0.43667  -0.42772  -0.42392  -0.39997  -0.37023
 Alpha  occ. eigenvalues --   -0.36442  -0.32297  -0.31312  -0.27866
 Alpha virt. eigenvalues --   -0.01823   0.05032   0.07008   0.07051   0.07203
 Alpha virt. eigenvalues --    0.11065   0.12578   0.15094   0.15810   0.17876
 Alpha virt. eigenvalues --    0.18649   0.20809   0.21705   0.22322   0.22647

 Mulliken charges:
               1
     1  C    0.005730
     2  C   -0.225945
     3  C    0.248919
     4  C   -0.015695
     5  C    0.010500
     6  C   -0.008677
     7  H    0.020178
     8  H    0.017899
     9  H    0.019151
    10  H    0.021153
    11  N   -0.349979
    12  S    0.154044
    13  C   -0.106156
    14  C   -0.014437
    15  C    0.093501
    16  C   -0.017837
    17  H    0.009358
    18  C    0.011395
    19  C    0.022860
    20  H    0.011158
    21  H    0.017635
    22  H    0.021668
    23  C    0.081458
    24  O   -0.205030
    25  H    0.177148
 Sum of Mulliken charges =  -0.00000

 Dipole moment (field-independent basis, Debye):
    X=             -0.1108    Y=             -1.9986    Z=              0.0000  Tot=              2.0017
 Quadrupole moment (field-independent basis, Debye-Ang):
   XX=            -83.2725   YY=            -89.1906   ZZ=           -104.5103
   XY=             -6.8785   XZ=             -0.0001   YZ=              0.0005

  Exact polarizability:     401.364    -187.522     379.968      -0.002       0.004      63.562
 Approx polarizability:     280.265     -36.370     263.437      -0.001       0.003      82.523

                      1                      2                      3
                      A                      A                      A
 Frequencies --     32.1584                45.1657               105.8581
 Red. masses --      5.7985                 6.9751                 4.4942
 Frc consts  --      0.0035                 0.0084                 0.0297
 IR Inten    --      1.4150                 0.0567                 0.2795

                      4                      5                      6
                      A                      A                      A
 Frequencies --    112.3114               179.1571               223.2516
 Red. masses --      5.6264                 6.3189                 5.3437
 Frc consts  --      0.0418                 0.1195                 0.1569
 IR Inten    --      1.8478                 0.7966                 0.0072

                      7                      8                      9
                      A                      A                      A
 Frequencies --    264.8765               266.8564               304.2285
 Red. masses --      7.7456                 4.8148                 6.7073
 Frc consts  --      0.3202                 0.2020                 0.3658
 IR Inten    --     23.1825                 0.2206                 6.2867

                     10                     11                     12
                      A                      A                      A
 Frequencies --    390.7444               390.9123               437.0623
 Red. masses --      4.7520                 8.9660                 3.2342
 Frc consts  --      0.4275                 0.8073                 0.3640
 IR Inten    --      0.2715                12.0798                 4.7958

                     13                     14                     15
                      A                      A                      A
 Frequencies --    490.5781               496.1609               499.9424
 Red. masses --      4.6009                 6.3613                 3.1419
 Frc consts  --      0.6524                 0.9227                 0.4627
 IR Inten    --      0.2233                15.2393                 0.0054

                     16                     17                     18
                      A                      A                      A
 Frequencies --    506.8306               526.0399               549.8683
 Red. masses --      5.8015                 7.9675                 3.9447
 Frc consts  --      0.8780                 1.2990                 0.7027
 IR Inten    --     16.5843                18.1443                 0.1506

                     19                     20                     21
                      A                      A                      A
 Frequencies --    579.6622               635.6382               675.0217
 Red. masses --      7.6521                 6.9430                 8.1912
 Frc consts  --      1.5149                 1.6528                 2.1990
 IR Inten    --     35.5110                63.6808                 9.6257

                     22                     23                     24
                      A                      A                      A
 Frequencies --    708.7005               711.2572               733.7185
 Red. masses --      7.4577                 1.8468                 1.8915
 Frc consts  --      2.2069                 0.5505                 0.6000
 IR Inten    --     11.9359                39.0768                27.5578

                     25                     26                     27
                      A                      A                      A
 Frequencies --    753.7650               769.5571               801.0891
 Red. masses --      1.8415                 2.0299                 6.5649
 Frc consts  --      0.6164                 0.7083                 2.4822
 IR Inten    --     31.8279                53.4926                13.4502

                     28                     29                     30
                      A                      A                      A
 Frequencies --    826.3024               856.6938               893.7625
 Red. masses --      1.5885                 1.4302                 6.3969
 Frc consts  --      0.6390                 0.6184                 3.0107
 IR Inten    --      0.4866                 0.7232                42.9253

                     31                     32                     33
                      A                      A                      A
 Frequencies --    921.1426               951.2432               954.1331
 Red. masses --      1.3462                 1.3448                 7.0560
 Frc consts  --      0.6730                 0.7170                 3.7847
 IR Inten    --      7.8577                 1.4573                10.5241

                     34                     35                     36
                      A                      A                      A
 Frequencies --    964.3191               994.5457               998.7286
 Red. masses --      1.3579                 1.0949                 1.2654
 Frc consts  --      0.7440                 0.6381                 0.7436
 IR Inten    --      0.5026                57.8530                 7.4147

                     37                     38                     39
                      A                      A                      A
 Frequencies --   1037.4300              1038.9925              1066.9603
 Red. masses --      2.2649                 2.1649                 4.6755
 Frc consts  --      1.4362                 1.3770                 3.1360
 IR Inten    --      3.0270                 0.5788                39.2934

                     40                     41                     42
                      A                      A                      A
 Frequencies --   1131.8069              1146.1058              1173.8074
 Red. masses --      1.4931                 1.3047                 1.1343
 Frc consts  --      1.1269                 1.0097                 0.9208
 IR Inten    --     58.1944                14.3936                 3.3692

                     43                     44                     45
                      A                      A                      A
 Frequencies --   1175.8636              1230.9798              1242.0265
 Red. masses --      1.1798                 3.8774                 1.9887
 Frc consts  --      0.9611                 3.4617                 1.8075
 IR Inten    --     41.9075               159.2876                84.8605

                     46                     47                     48
                      A                      A                      A
 Frequencies --   1277.7619              1291.9251              1363.8438
 Red. masses --      1.6796                 2.9600                 3.0642
 Frc consts  --      1.6157                 2.9109                 3.3581
 IR Inten    --     25.3417               266.1123                62.1017

                     49                     50                     51
                      A                      A                      A
 Frequencies --   1375.1188              1402.9506              1440.2936
 Red. masses --      4.5226                 2.0345                 2.5230
 Frc consts  --      5.0387                 2.3593                 3.0837
 IR Inten    --     35.4617                 4.3236               149.1476

                     52                     53                     54
                      A                      A                      A
 Frequencies --   1475.3269              1503.9645              1515.8790
 Red. masses --      3.1308                 2.9470                 4.6926
 Frc consts  --      4.0149                 3.9275                 6.3532
 IR Inten    --    104.7748               263.0980               259.4955

                     55                     56                     57
                      A                      A                      A
 Frequencies --   1522.1776              1548.9751              1587.2628
 Red. masses --      5.0248                 4.9695                 2.9317
 Frc consts  --      6.8596                 7.0250                 4.3517
 IR Inten    --    194.7409               396.1531               213.0147

                     58                     59                     60
                      A                      A                      A
 Frequencies --   1614.9997              1628.9215              1654.6693
 Red. masses --      3.1615                 4.9363                 5.5277
 Frc consts  --      4.8584                 7.7171                 8.9170
 IR Inten    --     44.2073               530.1949               131.7510

                     61                     62                     63
                      A                      A                      A
 Frequencies --   2749.1625              3203.9942              3207.3442
 Red. masses --      1.0786                 1.0868                 1.0857
 Frc consts  --      4.8029                 6.5731                 6.5804
 IR Inten    --    167.5401                 6.1171                 6.4455

                     64                     65                     66
                      A                      A                      A
 Frequencies --   3216.0176              3217.6427              3226.0325
 Red. masses --      1.0898                 1.0901                 1.0926
 Frc consts  --      6.6409                 6.6496                 6.6997
 IR Inten    --      3.3839                 2.9686                20.4046

                     67                     68                     69
                      A                      A                      A
 Frequencies --   3226.9171              3234.4760              3239.3742
 Red. masses --      1.0953                 1.0996                 1.0989
 Frc consts  --      6.7201                 6.7779                 6.7943
 IR Inten    --     12.0959                38.2044                22.2995

 - Thermochemistry -
 -------------------
 Temperature   298.150 Kelvin.  Pressure   1.00000 Atm.
 Atom     1 has atomic number  6 and mass  12.00000

 Molecular mass:   227.04049 amu.
 Principal axes and moments of inertia in atomic units:
                           1         2         3
     Eigenvalues --  1363.095876343.250197706.34607
           X           -0.69717   0.71690   0.00000
           Y            0.71690   0.69717  -0.00001
           Z            0.00001   0.00000   1.00000
 This molecule is an asymmetric top.
 Rotational symmetry number  1.
 Warning -- assumption of classical behavior for rotation
           may cause significant error
 Rotational temperatures (Kelvin)      0.06354     0.01365     0.01124
 Rotational constants (GHZ):           1.32400     0.28451     0.23419
 Zero-point vibrational energy     487599.6 (Joules/Mol)
                                  116.53910 (Kcal/Mol)
 Warning -- explicit consideration of  19 degrees of freedom as
           vibrations may cause significant error
 Vibrational temperatures:     46.27    64.98   152.31   161.59   257.77
          (Kelvin)            321.21   381.10   383.95   437.72   562.19
                              562.44   628.84   705.83   713.86   719.31
                              729.22   756.85   791.14   834.00   914.54
                              971.21  1019.66  1023.34  1055.66  1084.50
                             1107.22  1152.59  1188.86  1232.59  1285.92
                             1325.32  1368.63  1372.78  1387.44  1430.93
                             1436.95  1492.63  1494.88  1535.12  1628.42
                             1648.99  1688.85  1691.81  1771.11  1787.00
                             1838.41  1858.79  1962.27  1978.49  2018.53
                             2072.26  2122.67  2163.87  2181.01  2190.07
                             2228.63  2283.72  2323.62  2343.65  2380.70
                             3955.43  4609.83  4614.65  4627.13  4629.47
                             4641.54  4642.81  4653.69  4660.74

 Zero-point correction=                           0.185717 (Hartree/Particle)
 Thermal correction to Energy=                    0.198121
 Thermal correction to Enthalpy=                  0.199065
 Thermal correction to Gibbs Free Energy=         0.145772
 Sum of electronic and zero-point Energies=          -1028.501323
 Sum of electronic and thermal Energies=             -1028.488918
 Sum of electronic and thermal Enthalpies=           -1028.487974
 Sum of electronic and thermal Free Energies=        -1028.541268

                     E (Thermal)             CV                S
                      KCal/Mol        Cal/Mol-Kelvin    Cal/Mol-Kelvin
 Total                  124.323             49.494            112.166
 Electronic               0.000              0.000              0.000
 Translational            0.889              2.981             42.162
 Rotational               0.889              2.981             32.566
 Vibrational            122.545             43.532             37.438
 Vibration     1          0.594              1.983              5.692
 Vibration     2          0.595              1.979              5.019
 Vibration     3          0.605              1.945              3.343
 Vibration     4          0.607              1.939              3.229
 Vibration     5          0.629              1.868              2.337
 Vibration     6          0.649              1.806              1.933
 Vibration     7          0.671              1.737              1.629
 Vibration     8          0.672              1.734              1.616
 Vibration     9          0.695              1.666              1.394
 Vibration    10          0.758              1.490              0.997
 Vibration    11          0.759              1.490              0.997
 Vibration    12          0.797              1.389              0.836
 Vibration    13          0.846              1.271              0.682
 Vibration    14          0.852              1.259              0.668
 Vibration    15          0.855              1.250              0.658
 Vibration    16          0.862              1.235              0.641
 Vibration    17          0.881              1.192              0.596
 Vibration    18          0.905              1.140              0.544
 Vibration    19          0.936              1.075              0.486

 Optimization completed.
    -- Stationary point found.
 Normal termination of Gaussian 16 at Mon Jul 13 14:39:35 2020.
