 Gaussian 16, Revision C.01,
 Gaussian 16:  ES64L-G16RevC.01  3-Jul-2019

 ----------------------------------------------------------------------
 #p opt=addgic freq td wb97xd/cc-pvdz nosymm int=ultrafine scrf=(solven
 t=CarbonTetraChloride)
 ----------------------------------------------------------------------

 ------------------------------------------------
 NM 2D-scan of HBT TD-WB97XD pVDZ in CTC Relaxed.
 ------------------------------------------------
 Symbolic Z-matrix:
 Charge =  0 Multiplicity = 1

 SCF Done:  E(RwB97XD) =  -1028.80796198     A.U. after   15 cycles
 Total Energy, E(TD-HF/TD-DFT) =  -1028.69435986
 SCF Done:  E(RwB97XD) =  -1028.79948551     A.U. after   14 cycles
 Total Energy, E(TD-HF/TD-DFT) =  -1028.69252773
 SCF Done:  E(RwB97XD) =  -1028.80656112     A.U. after   11 cycles
 Total Energy, E(TD-HF/TD-DFT) =  -1028.69551151
 SCF Done:  E(RwB97XD) =  -1028.80681797     A.U. after    9 cycles
 Total Energy, E(TD-HF/TD-DFT) =  -1028.69552624
 Optimization completed.
    -- Stationary point found.
 Normal termination of Gaussian 16 at Mon Jul 13 15:46:15 2020.

 ----------------------------------------------------------------------
 #P Geom=AllCheck Guess=TCheck SCRF=Check GenChk RwB97XD TD(FC,Read)/CC
 -pVDZ Freq
 ----------------------------------------------------------------------

 Structure from the checkpoint file:  "config_8_5.chk"
 ------------------------------------------------
 NM 2D-scan of HBT TD-WB97XD pVDZ in CTC Relaxed.
 ------------------------------------------------
 Charge =  0 Multiplicity = 1

                          Input orientation:
 ---------------------------------------------------------------------
 Center     Atomic      Atomic             Coordinates (Angstroms)
 Number     Number       Type             X           Y           Z
 ---------------------------------------------------------------------
      1          6           0        1.711043   -3.279247   -0.000063
      2          6           0        1.000160   -2.078972   -0.000031
      3          6           0        1.690341   -0.837965    0.000005
      4          6           0        3.094336   -0.797913    0.000018
      5          6           0        3.787696   -1.995636   -0.000012
      6          6           0        3.107373   -3.225203   -0.000055
      7          1           0        1.193475   -4.239288   -0.000090
      8          1           0        3.606027    0.164879    0.000049
      9          1           0        4.878843   -1.984547   -0.000005
     10          1           0        3.676393   -4.155749   -0.000078
     11          7           0        0.877131    0.243499    0.000023
     12         16           0       -0.745537   -1.799552   -0.000014
     13          6           0       -1.396617    1.027624    0.000014
     14          6           0       -2.786560    0.868749    0.000024
     15          6           0       -0.866061    2.423526    0.000007
     16          6           0       -3.650247    1.982519    0.000040
     17          1           0       -3.217484   -0.134996    0.000025
     18          6           0       -1.781321    3.505571    0.000020
     19          6           0       -3.156276    3.294608    0.000044
     20          1           0       -4.727657    1.809952    0.000053
     21          1           0       -1.345668    4.505514    0.000009
     22          1           0       -3.844511    4.140293    0.000056
     23          6           0       -0.450194   -0.043706    0.000002
     24          8           0        0.389510    2.670429   -0.000048
     25          1           0        0.997726    1.363001    0.000090
 ---------------------------------------------------------------------

 SCF Done:  E(RwB97XD) =  -1028.80681797     A.U. after    1 cycles

 Excitation energies and oscillator strengths:

 Excited state symmetry could not be determined.
 Excited State   1:      Singlet-?Sym    3.0284 eV  409.40 nm  f=0.4501  <S**2>=0.000
      59 -> 60         0.69522
 This state for optimization and/or second-order correction.
 Total Energy, E(TD-HF/TD-DFT) =  -1028.69552615
 Copying the excited state density for this state as the 1-particle RhoCI density.

 Excited state symmetry could not be determined.
 Excited State   2:      Singlet-?Sym    4.0803 eV  303.86 nm  f=0.0000  <S**2>=0.000
      57 -> 60         0.68532
      57 -> 62         0.11102
      57 -> 64         0.11667

 Excited state symmetry could not be determined.
 Excited State   3:      Singlet-?Sym    4.3400 eV  285.68 nm  f=0.4130  <S**2>=0.000
      58 -> 60         0.67707

 Alpha  occ. eigenvalues --  -89.10463 -19.22596 -14.50916 -10.41677 -10.36912
 Alpha  occ. eigenvalues --  -10.36538 -10.36144 -10.33251 -10.32494 -10.32268
 Alpha  occ. eigenvalues --  -10.32192 -10.31751 -10.31621 -10.31049 -10.29462
 Alpha  occ. eigenvalues --  -10.28741  -8.12365  -6.07243  -6.06881  -6.06389
 Alpha  occ. eigenvalues --   -1.12711  -1.09908  -0.97864  -0.95079  -0.92914
 Alpha  occ. eigenvalues --   -0.89092  -0.86115  -0.83881  -0.81595  -0.75960
 Alpha  occ. eigenvalues --   -0.72096  -0.71488  -0.68636  -0.67798  -0.64373
 Alpha  occ. eigenvalues --   -0.60891  -0.59508  -0.57054  -0.55359  -0.55254
 Alpha  occ. eigenvalues --   -0.54619  -0.53564  -0.52909  -0.50975  -0.49643
 Alpha  occ. eigenvalues --   -0.49006  -0.48003  -0.46671  -0.45260  -0.45138
 Alpha  occ. eigenvalues --   -0.44185  -0.43104  -0.41901  -0.40603  -0.36721
 Alpha  occ. eigenvalues --   -0.33320  -0.33270  -0.31309  -0.26555
 Alpha virt. eigenvalues --   -0.01988   0.04016   0.06199   0.06319   0.08724
 Alpha virt. eigenvalues --    0.10499   0.12726   0.14745   0.16074   0.17522
 Alpha virt. eigenvalues --    0.18901   0.20436   0.21186   0.21606   0.22911

 Mulliken charges:
               1
     1  C    0.012827
     2  C   -0.238641
     3  C    0.274046
     4  C   -0.012200
     5  C    0.012731
     6  C   -0.002166
     7  H    0.025326
     8  H    0.029863
     9  H    0.025551
    10  H    0.025474
    11  N   -0.203959
    12  S    0.193853
    13  C   -0.120328
    14  C   -0.020761
    15  C    0.124674
    16  C   -0.033459
    17  H    0.004691
    18  C   -0.011280
    19  C    0.031420
    20  H    0.004173
    21  H    0.005587
    22  H    0.016210
    23  C    0.062954
    24  O   -0.402247
    25  H    0.195659
 Sum of Mulliken charges =  -0.00000

 Dipole moment (field-independent basis, Debye):
    X=              1.1758    Y=             -4.7324    Z=              0.0002  Tot=              4.8763
 Quadrupole moment (field-independent basis, Debye-Ang):
   XX=            -82.9035   YY=            -93.5486   ZZ=           -104.3159
   XY=             -6.8760   XZ=              0.0001   YZ=              0.0007

  Exact polarizability:     352.044    -128.781     307.669      -0.002       0.003      63.340
 Approx polarizability:     274.375     -35.937     266.432      -0.001       0.002      82.236

                      1                      2                      3
                      A                      A                      A
 Frequencies --     33.2620                39.3761               109.8796
 Red. masses --      5.6935                 7.4868                 5.5504
 Frc consts  --      0.0037                 0.0068                 0.0395
 IR Inten    --      0.0530                 2.3291                45.5349

                      4                      5                      6
                      A                      A                      A
 Frequencies --    110.7748               178.2669               219.4774
 Red. masses --      4.8812                 5.6578                 5.3699
 Frc consts  --      0.0353                 0.1059                 0.1524
 IR Inten    --      0.0716                 0.2123                 0.1737

                      7                      8                      9
                      A                      A                      A
 Frequencies --    245.8061               268.5275               295.9997
 Red. masses --      6.3844                 4.6863                 5.6240
 Frc consts  --      0.2273                 0.1991                 0.2903
 IR Inten    --     71.6027                 0.2728                72.6184

                     10                     11                     12
                      A                      A                      A
 Frequencies --    363.3812               398.0371               436.8437
 Red. masses --      5.0925                10.2293                 3.2709
 Frc consts  --      0.3962                 0.9549                 0.3678
 IR Inten    --      0.8979                 2.5978                 4.8444

                     13                     14                     15
                      A                      A                      A
 Frequencies --    465.4693               501.1064               504.3100
 Red. masses --      4.7196                 3.1640                 8.7414
 Frc consts  --      0.6025                 0.4681                 1.3099
 IR Inten    --      1.0047                 0.5310                26.6847

                     16                     17                     18
                      A                      A                      A
 Frequencies --    521.8708               548.9205               556.6699
 Red. masses --      4.4494                 6.6507                 3.8592
 Frc consts  --      0.7140                 1.1807                 0.7046
 IR Inten    --    180.0997                55.7543                 0.4911

                     19                     20                     21
                      A                      A                      A
 Frequencies --    580.1053               604.0934               674.5035
 Red. masses --      7.8005                 5.2706                 6.8264
 Frc consts  --      1.5466                 1.1332                 1.8298
 IR Inten    --     63.7877               126.9656                 6.1326

                     22                     23                     24
                      A                      A                      A
 Frequencies --    693.6218               708.9896               741.4165
 Red. masses --      1.6021                 6.1873                 2.5466
 Frc consts  --      0.4541                 1.8325                 0.8248
 IR Inten    --     37.2166                 7.0190                13.8311

                     25                     26                     27
                      A                      A                      A
 Frequencies --    764.8223               768.4034               808.2128
 Red. masses --      1.7641                 1.7335                 5.6545
 Frc consts  --      0.6080                 0.6031                 2.1762
 IR Inten    --      0.0945                91.3277                 9.7201

                     28                     29                     30
                      A                      A                      A
 Frequencies --    831.4288               834.2551               865.8226
 Red. masses --      3.8277                 1.6634                 1.3907
 Frc consts  --      1.5590                 0.6821                 0.6143
 IR Inten    --    105.8293                 0.0001                 0.8973

                     31                     32                     33
                      A                      A                      A
 Frequencies --    908.1175               940.0469               954.6250
 Red. masses --      1.4026                 5.7560                 1.3724
 Frc consts  --      0.6815                 2.9969                 0.7369
 IR Inten    --      6.2132                23.3115                 0.7182

                     34                     35                     36
                      A                      A                      A
 Frequencies --    956.9221              1003.2095              1044.1058
 Red. masses --      1.3470                 1.2945                 2.2147
 Frc consts  --      0.7267                 0.7676                 1.4225
 IR Inten    --      1.6126                 0.0075                 4.5468

                     37                     38                     39
                      A                      A                      A
 Frequencies --   1050.1886              1066.9586              1118.5847
 Red. masses --      2.2243                 3.7896                 1.5949
 Frc consts  --      1.4454                 2.5418                 1.1757
 IR Inten    --     12.3190                53.8501               159.5693

                     40                     41                     42
                      A                      A                      A
 Frequencies --   1138.9551              1142.2002              1157.8788
 Red. masses --      1.0593                 1.7322                 1.4127
 Frc consts  --      0.8096                 1.3315                 1.1159
 IR Inten    --     66.8745               163.0053                16.6197

                     43                     44                     45
                      A                      A                      A
 Frequencies --   1167.1081              1180.7302              1259.4031
 Red. masses --      1.2179                 1.1828                 1.7747
 Frc consts  --      0.9774                 0.9715                 1.6585
 IR Inten    --    249.0854                 3.4415                99.0739

                     46                     47                     48
                      A                      A                      A
 Frequencies --   1264.9871              1307.4765              1339.3085
 Red. masses --      2.6270                 2.0959                 4.7587
 Frc consts  --      2.4767                 2.1110                 5.0292
 IR Inten    --     38.6349                45.1948                50.3509

                     49                     50                     51
                      A                      A                      A
 Frequencies --   1362.2114              1392.2694              1406.0673
 Red. masses --      6.3148                 2.7228                 2.1259
 Frc consts  --      6.9039                 3.1096                 2.4763
 IR Inten    --    168.8548                 1.1544                 5.1524

                     52                     53                     54
                      A                      A                      A
 Frequencies --   1439.3948              1482.2022              1496.9349
 Red. masses --      3.4925                 3.0741                 3.2103
 Frc consts  --      4.2633                 3.9791                 4.2383
 IR Inten    --    665.1821                 1.7360                40.2995

                     55                     56                     57
                      A                      A                      A
 Frequencies --   1537.3160              1545.0157              1576.2517
 Red. masses --      5.1590                 4.6609                 4.5829
 Frc consts  --      7.1836                 6.5551                 6.7088
 IR Inten    --     78.9311               131.7921                59.3490

                     58                     59                     60
                      A                      A                      A
 Frequencies --   1626.0859              1637.7909              1663.5867
 Red. masses --      5.7110                 5.5034                 6.7371
 Frc consts  --      8.8971                 8.6976                10.9854
 IR Inten    --    155.7059               434.6466               158.3081

                     61                     62                     63
                      A                      A                      A
 Frequencies --   2202.4343              3196.1154              3211.0015
 Red. masses --      1.1237                 1.0887                 1.0863
 Frc consts  --      3.2116                 6.5527                 6.5990
 IR Inten    --   1113.3701                20.3754                 5.6564

                     64                     65                     66
                      A                      A                      A
 Frequencies --   3213.7763              3221.5209              3224.9013
 Red. masses --      1.0870                 1.0903                 1.0925
 Frc consts  --      6.6148                 6.6666                 6.6945
 IR Inten    --      1.5582                 3.2290                18.4816

                     67                     68                     69
                      A                      A                      A
 Frequencies --   3232.2996              3236.3562              3238.8110
 Red. masses --      1.0955                 1.0989                 1.0994
 Frc consts  --      6.7433                 6.7814                 6.7950
 IR Inten    --      9.2784                20.8726                13.7320

 - Thermochemistry -
 -------------------
 Temperature   298.150 Kelvin.  Pressure   1.00000 Atm.
 Atom     1 has atomic number  6 and mass  12.00000

 Molecular mass:   227.04049 amu.
 Principal axes and moments of inertia in atomic units:
                           1         2         3
     Eigenvalues --  1327.621476354.691017682.31248
           X           -0.70108   0.71308   0.00000
           Y            0.71308   0.70108  -0.00001
           Z            0.00001   0.00000   1.00000
 This molecule is an asymmetric top.
 Rotational symmetry number  1.
 Warning -- assumption of classical behavior for rotation
           may cause significant error
 Rotational temperatures (Kelvin)      0.06524     0.01363     0.01127
 Rotational constants (GHZ):           1.35938     0.28400     0.23492
 Zero-point vibrational energy     483391.8 (Joules/Mol)
                                  115.53342 (Kcal/Mol)
 Warning -- explicit consideration of  20 degrees of freedom as
           vibrations may cause significant error
 Vibrational temperatures:     47.86    56.65   158.09   159.38   256.49
          (Kelvin)            315.78   353.66   386.35   425.88   522.82
                              572.69   628.52   669.71   720.98   725.59
                              750.86   789.77   800.92   834.64   869.16
                              970.46   997.97  1020.08  1066.73  1100.41
                             1105.56  1162.84  1196.24  1200.31  1245.73
                             1306.58  1352.52  1373.49  1376.80  1443.39
                             1502.24  1510.99  1535.12  1609.39  1638.70
                             1643.37  1665.93  1679.21  1698.81  1812.00
                             1820.03  1881.17  1926.97  1959.92  2003.17
                             2023.02  2070.97  2132.56  2153.76  2211.85
                             2222.93  2267.87  2339.57  2356.42  2393.53
                             3168.81  4598.50  4619.91  4623.91  4635.05
                             4639.91  4650.56  4656.39  4659.93

 Zero-point correction=                           0.184114 (Hartree/Particle)
 Thermal correction to Energy=                    0.196591
 Thermal correction to Enthalpy=                  0.197535
 Thermal correction to Gibbs Free Energy=         0.144036
 Sum of electronic and zero-point Energies=          -1028.511412
 Sum of electronic and thermal Energies=             -1028.498935
 Sum of electronic and thermal Enthalpies=           -1028.497991
 Sum of electronic and thermal Free Energies=        -1028.551490

                     E (Thermal)             CV                S
                      KCal/Mol        Cal/Mol-Kelvin    Cal/Mol-Kelvin
 Total                  123.363             49.633            112.599
 Electronic               0.000              0.000              0.000
 Translational            0.889              2.981             42.162
 Rotational               0.889              2.981             32.538
 Vibrational            121.585             43.672             37.899
 Vibration     1          0.594              1.983              5.625
 Vibration     2          0.594              1.981              5.290
 Vibration     3          0.606              1.941              3.271
 Vibration     4          0.607              1.941              3.255
 Vibration     5          0.629              1.869              2.346
 Vibration     6          0.647              1.811              1.963
 Vibration     7          0.660              1.770              1.760
 Vibration     8          0.673              1.731              1.606
 Vibration     9          0.690              1.681              1.439
 Vibration    10          0.737              1.548              1.108
 Vibration    11          0.764              1.474              0.970
 Vibration    12          0.797              1.390              0.837
 Vibration    13          0.823              1.327              0.750
 Vibration    14          0.856              1.248              0.655
 Vibration    15          0.860              1.240              0.647
 Vibration    16          0.877              1.202              0.606
 Vibration    17          0.904              1.142              0.546
 Vibration    18          0.912              1.125              0.531
 Vibration    19          0.937              1.074              0.485
 Vibration    20          0.963              1.023              0.443

 Optimization completed.
    -- Stationary point found.
 Normal termination of Gaussian 16 at Mon Jul 13 16:04:14 2020.
