 Gaussian 16, Revision C.01,
 Gaussian 16:  ES64L-G16RevC.01  3-Jul-2019

 ----------------------------------------------------------------------
 #p opt=addgic freq td wb97xd/cc-pvdz nosymm int=ultrafine scrf=(solven
 t=CarbonTetraChloride)
 ----------------------------------------------------------------------

 ------------------------------------------------
 NM 2D-scan of HBT TD-WB97XD pVDZ in CTC Relaxed.
 ------------------------------------------------
 Symbolic Z-matrix:
 Charge =  0 Multiplicity = 1

 SCF Done:  E(RwB97XD) =  -1028.72288320     A.U. after   16 cycles
 Total Energy, E(TD-HF/TD-DFT) =  -1028.61677078
 SCF Done:  E(RwB97XD) =  -1028.78299143     A.U. after   14 cycles
 Total Energy, E(TD-HF/TD-DFT) =  -1028.68111790
 SCF Done:  E(RwB97XD) =  -1028.79767202     A.U. after   13 cycles
 Total Energy, E(TD-HF/TD-DFT) =  -1028.69628782
 SCF Done:  E(RwB97XD) =  -1028.79973022     A.U. after   12 cycles
 Total Energy, E(TD-HF/TD-DFT) =  -1028.69771689
 SCF Done:  E(RwB97XD) =  -1028.79955407     A.U. after   11 cycles
 Total Energy, E(TD-HF/TD-DFT) =  -1028.69779335
 SCF Done:  E(RwB97XD) =  -1028.79949423     A.U. after   10 cycles
 Total Energy, E(TD-HF/TD-DFT) =  -1028.69780330
 SCF Done:  E(RwB97XD) =  -1028.79946627     A.U. after    9 cycles
 Total Energy, E(TD-HF/TD-DFT) =  -1028.69780408
 Optimization completed.
    -- Stationary point found.
 Normal termination of Gaussian 16 at Tue Jul 14 15:16:06 2020.

 ----------------------------------------------------------------------
 #P Geom=AllCheck Guess=TCheck SCRF=Check GenChk RwB97XD TD(FC,Read)/CC
 -pVDZ Freq
 ----------------------------------------------------------------------

 Structure from the checkpoint file:  "config_10_18.chk"
 ------------------------------------------------
 NM 2D-scan of HBT TD-WB97XD pVDZ in CTC Relaxed.
 ------------------------------------------------
 Charge =  0 Multiplicity = 1

                          Input orientation:
 ---------------------------------------------------------------------
 Center     Atomic      Atomic             Coordinates (Angstroms)
 Number     Number       Type             X           Y           Z
 ---------------------------------------------------------------------
      1          6           0        1.546921   -3.291189   -0.000012
      2          6           0        1.006310   -2.011605   -0.000009
      3          6           0        1.816008   -0.863416   -0.000018
      4          6           0        3.212350   -0.995238   -0.000028
      5          6           0        3.749003   -2.280887   -0.000030
      6          6           0        2.933581   -3.420106   -0.000022
      7          1           0        0.898595   -4.167751   -0.000006
      8          1           0        3.854634   -0.114020   -0.000034
      9          1           0        4.833698   -2.399018   -0.000038
     10          1           0        3.384768   -4.412732   -0.000025
     11          7           0        1.056705    0.279981   -0.000016
     12         16           0       -0.691592   -1.576421    0.000005
     13          6           0       -1.322931    1.127715    0.000015
     14          6           0       -2.664037    0.770828    0.000013
     15          6           0       -0.943972    2.552470    0.000024
     16          6           0       -3.693007    1.749793    0.000024
     17          1           0       -2.955331   -0.282224    0.000002
     18          6           0       -2.022831    3.497473    0.000041
     19          6           0       -3.370661    3.101495    0.000037
     20          1           0       -4.733815    1.422942    0.000024
     21          1           0       -1.748108    4.554073    0.000062
     22          1           0       -4.161682    3.853108    0.000048
     23          6           0       -0.299782    0.118875    0.000002
     24          8           0        0.273212    2.866614    0.000056
     25          1           0        1.447153    1.212251   -0.000016
 ---------------------------------------------------------------------

 SCF Done:  E(RwB97XD) =  -1028.79946627     A.U. after    1 cycles

 Excitation energies and oscillator strengths:

 Excited state symmetry could not be determined.
 Excited State   1:      Singlet-?Sym    2.7664 eV  448.18 nm  f=0.4431  <S**2>=0.000
      59 -> 60         0.69769
 This state for optimization and/or second-order correction.
 Total Energy, E(TD-HF/TD-DFT) =  -1028.69780409
 Copying the excited state density for this state as the 1-particle RhoCI density.

 Excited state symmetry could not be determined.
 Excited State   2:      Singlet-?Sym    3.4057 eV  364.05 nm  f=0.0000  <S**2>=0.000
      58 -> 60         0.68367
      58 -> 62         0.11575
      58 -> 64         0.10718

 Excited state symmetry could not be determined.
 Excited State   3:      Singlet-?Sym    4.2639 eV  290.78 nm  f=0.3776  <S**2>=0.000
      57 -> 60         0.68435

 Alpha  occ. eigenvalues --  -89.10295 -19.20308 -14.53336 -10.42325 -10.37746
 Alpha  occ. eigenvalues --  -10.36164 -10.35379 -10.33439 -10.33337 -10.32782
 Alpha  occ. eigenvalues --  -10.32515 -10.31372 -10.30771 -10.30671 -10.29087
 Alpha  occ. eigenvalues --  -10.28229  -8.12366  -6.07237  -6.06856  -6.06386
 Alpha  occ. eigenvalues --   -1.13080  -1.08771  -0.98619  -0.95781  -0.93299
 Alpha  occ. eigenvalues --   -0.89064  -0.86940  -0.83815  -0.80951  -0.75848
 Alpha  occ. eigenvalues --   -0.74026  -0.72264  -0.69114  -0.67590  -0.65174
 Alpha  occ. eigenvalues --   -0.61080  -0.59730  -0.56566  -0.56160  -0.56021
 Alpha  occ. eigenvalues --   -0.55102  -0.53879  -0.53055  -0.50309  -0.48672
 Alpha  occ. eigenvalues --   -0.48642  -0.48436  -0.47071  -0.45593  -0.44895
 Alpha  occ. eigenvalues --   -0.44008  -0.42817  -0.42300  -0.39859  -0.36891
 Alpha  occ. eigenvalues --   -0.33790  -0.31466  -0.30878  -0.25507
 Alpha virt. eigenvalues --   -0.02167   0.03606   0.05517   0.06777   0.09601
 Alpha virt. eigenvalues --    0.10892   0.13850   0.14687   0.16112   0.17008
 Alpha virt. eigenvalues --    0.17878   0.19810   0.20672   0.21198   0.22536

 Mulliken charges:
               1
     1  C    0.020604
     2  C   -0.235257
     3  C    0.231585
     4  C   -0.010418
     5  C    0.010731
     6  C    0.004125
     7  H    0.025346
     8  H    0.031364
     9  H    0.028625
    10  H    0.027525
    11  N   -0.120432
    12  S    0.199663
    13  C   -0.065042
    14  C   -0.041746
    15  C    0.099513
    16  C   -0.034952
    17  H    0.013077
    18  C   -0.045839
    19  C    0.034304
    20  H    0.000759
    21  H   -0.000101
    22  H    0.014051
    23  C    0.072520
    24  O   -0.390023
    25  H    0.130020
 Sum of Mulliken charges =  -0.00000

 Dipole moment (field-independent basis, Debye):
    X=              2.3952    Y=             -6.1890    Z=             -0.0001  Tot=              6.6363
 Quadrupole moment (field-independent basis, Debye-Ang):
   XX=            -81.2756   YY=            -97.6216   ZZ=           -104.1412
   XY=             -5.9738   XZ=             -0.0002   YZ=             -0.0002

  Exact polarizability:     346.553    -119.357     293.762      -0.002       0.002      63.212
 Approx polarizability:     273.989     -37.795     264.317      -0.001       0.001      81.934

 ******    1 imaginary frequencies (negative Signs) ******

                      1                      2                      3
                      A                      A                      A
 Frequencies --    -52.2245                48.9156               111.6917
 Red. masses --      4.9933                 6.2081                 5.8095
 Frc consts  --      0.0080                 0.0088                 0.0427
 IR Inten    --      1.8026                 1.0444                 1.2095

                      4                      5                      6
                      A                      A                      A
 Frequencies --    118.6961               181.2676               226.4756
 Red. masses --      5.7658                 5.5753                 5.5907
 Frc consts  --      0.0479                 0.1079                 0.1689
 IR Inten    --      6.0453                 0.0312                 0.3939

                      7                      8                      9
                      A                      A                      A
 Frequencies --    266.8194               274.5336               288.4062
 Red. masses --      8.4814                 4.4779                 7.9229
 Frc consts  --      0.3558                 0.1988                 0.3883
 IR Inten    --      1.1775                 1.0951                 1.9895

                     10                     11                     12
                      A                      A                      A
 Frequencies --    345.3824               388.6777               427.6791
 Red. masses --      4.5218                 7.4538                 3.8160
 Frc consts  --      0.3178                 0.6634                 0.4112
 IR Inten    --      1.1985                 6.4839                 2.7829

                     13                     14                     15
                      A                      A                      A
 Frequencies --    447.1430               506.5891               513.9700
 Red. masses --      3.9976                 8.5072                 3.2273
 Frc consts  --      0.4709                 1.2863                 0.5023
 IR Inten    --      5.3757                 9.6527                 0.2136

                     16                     17                     18
                      A                      A                      A
 Frequencies --    542.9997               544.4042               559.5208
 Red. masses --      7.1296                 7.7735                 3.7960
 Frc consts  --      1.2386                 1.3574                 0.7002
 IR Inten    --      2.5172                43.8394                 1.1692

                     19                     20                     21
                      A                      A                      A
 Frequencies --    567.6428               639.1491               657.7807
 Red. masses --      7.2899                 6.4370                 1.0936
 Frc consts  --      1.3840                 1.5493                 0.2788
 IR Inten    --      7.4551                20.8200                82.7244

                     22                     23                     24
                      A                      A                      A
 Frequencies --    694.6412               719.9917               736.6715
 Red. masses --      1.4646                 6.0064                 7.6869
 Frc consts  --      0.4164                 1.8345                 2.4578
 IR Inten    --     20.0117                 2.2516                 5.2986

                     25                     26                     27
                      A                      A                      A
 Frequencies --    746.3897               756.9920               766.6738
 Red. masses --      2.4772                 1.6821                 1.6946
 Frc consts  --      0.8131                 0.5679                 0.5869
 IR Inten    --     26.4622                12.6489                77.6286

                     28                     29                     30
                      A                      A                      A
 Frequencies --    824.4115               833.6963               869.3361
 Red. masses --      6.2347                 2.0492                 1.3759
 Frc consts  --      2.4966                 0.8392                 0.6126
 IR Inten    --     17.1482                 1.5604                 0.9187

                     31                     32                     33
                      A                      A                      A
 Frequencies --    883.3279               898.5096               951.8008
 Red. masses --      5.3739                 1.4536                 1.3590
 Frc consts  --      2.4705                 0.6914                 0.7254
 IR Inten    --      2.2750                 8.8422                 0.3469

                     34                     35                     36
                      A                      A                      A
 Frequencies --    958.3360               968.9822              1003.7605
 Red. masses --      1.3529                 5.5450                 1.2981
 Frc consts  --      0.7321                 3.0675                 0.7706
 IR Inten    --      1.7075                 1.3169                 0.0063

                     37                     38                     39
                      A                      A                      A
 Frequencies --   1049.8288              1056.2870              1094.7576
 Red. masses --      2.1155                 2.1294                 3.5390
 Frc consts  --      1.3737                 1.3998                 2.4990
 IR Inten    --      2.0019                 8.9530                 3.4221

                     40                     41                     42
                      A                      A                      A
 Frequencies --   1109.6195              1156.2666              1163.2263
 Red. masses --      1.6393                 1.2783                 1.3042
 Frc consts  --      1.1892                 1.0069                 1.0398
 IR Inten    --     16.9270                17.3321                32.9037

                     43                     44                     45
                      A                      A                      A
 Frequencies --   1178.6786              1217.4991              1240.1153
 Red. masses --      1.1378                 1.8666                 2.2101
 Frc consts  --      0.9313                 1.6302                 2.0026
 IR Inten    --     20.9399                37.9505                19.3396

                     46                     47                     48
                      A                      A                      A
 Frequencies --   1273.6416              1297.6355              1337.3137
 Red. masses --      1.9036                 1.7282                 4.3693
 Frc consts  --      1.8193                 1.7146                 4.6040
 IR Inten    --     51.9502                 2.8494                 1.1579

                     49                     50                     51
                      A                      A                      A
 Frequencies --   1361.3651              1395.9213              1404.0043
 Red. masses --      3.3025                 3.8718                 2.5467
 Frc consts  --      3.6061                 4.4451                 2.9578
 IR Inten    --    118.0824                36.8744                19.2452

                     52                     53                     54
                      A                      A                      A
 Frequencies --   1436.1466              1476.2436              1511.8509
 Red. masses --      2.8216                 3.1247                 2.9462
 Frc consts  --      3.4289                 4.0122                 3.9676
 IR Inten    --    176.3624                 3.9146                43.5391

                     55                     56                     57
                      A                      A                      A
 Frequencies --   1522.1327              1550.9481              1593.3972
 Red. masses --      3.8035                 4.2688                 5.0921
 Frc consts  --      5.1921                 6.0500                 7.6172
 IR Inten    --     43.6585               203.2496               106.6944

                     58                     59                     60
                      A                      A                      A
 Frequencies --   1620.8580              1659.8641              1668.4134
 Red. masses --      7.4846                 6.7569                 6.7844
 Frc consts  --     11.5853                10.9684                11.1267
 IR Inten    --    152.3700                19.2542               130.5919

                     61                     62                     63
                      A                      A                      A
 Frequencies --   3195.6168              3208.7432              3211.2225
 Red. masses --      1.0883                 1.0866                 1.0863
 Frc consts  --      6.5480                 6.5917                 6.5999
 IR Inten    --     28.5976                 4.4065                 4.0955

                     64                     65                     66
                      A                      A                      A
 Frequencies --   3220.6325              3221.8142              3230.0383
 Red. masses --      1.0919                 1.0901                 1.0959
 Frc consts  --      6.6730                 6.6666                 6.7364
 IR Inten    --     14.1837                 2.5957                 6.8123

                     67                     68                     69
                      A                      A                      A
 Frequencies --   3234.1914              3238.3010              3661.5668
 Red. masses --      1.0989                 1.0997                 1.0797
 Frc consts  --      6.7722                 6.7943                 8.5288
 IR Inten    --     28.6262                12.3728               324.4280

 - Thermochemistry -
 -------------------
 Temperature   298.150 Kelvin.  Pressure   1.00000 Atm.
 Atom     1 has atomic number  6 and mass  12.00000

 Molecular mass:   227.04049 amu.
 Principal axes and moments of inertia in atomic units:
                           1         2         3
     Eigenvalues --  1267.947836504.521767772.46960
           X           -0.70323   0.71096   0.00000
           Y            0.71096   0.70323  -0.00001
           Z            0.00001   0.00000   1.00000
 This molecule is an asymmetric top.
 Rotational symmetry number  1.
 Warning -- assumption of classical behavior for rotation
           may cause significant error
 Rotational temperatures (Kelvin)      0.06831     0.01332     0.01114
 Rotational constants (GHZ):           1.42336     0.27746     0.23220
    1 imaginary frequencies ignored.
 Zero-point vibrational energy     490884.1 (Joules/Mol)
                                  117.32411 (Kcal/Mol)
 Warning -- explicit consideration of  18 degrees of freedom as
           vibrations may cause significant error
 Vibrational temperatures:     70.38   160.70   170.78   260.80   325.85
          (Kelvin)            383.89   394.99   414.95   496.93   559.22
                              615.33   643.34   728.87   739.49   781.26
                              783.28   805.03   816.71   919.59   946.40
                              999.43  1035.91  1059.91  1073.89  1089.14
                             1103.07  1186.14  1199.50  1250.78  1270.91
                             1292.75  1369.43  1378.83  1394.15  1444.19
                             1510.47  1519.76  1575.11  1596.49  1663.61
                             1673.62  1695.86  1751.71  1784.25  1832.49
                             1867.01  1924.10  1958.70  2008.42  2020.05
                             2066.29  2123.99  2175.22  2190.01  2231.47
                             2292.54  2332.05  2388.17  2400.47  4597.78
                             4616.67  4620.23  4633.77  4635.47  4647.30
                             4653.28  4659.19  5268.18

 Zero-point correction=                           0.186968 (Hartree/Particle)
 Thermal correction to Energy=                    0.198565
 Thermal correction to Enthalpy=                  0.199509
 Thermal correction to Gibbs Free Energy=         0.148965
 Sum of electronic and zero-point Energies=          -1028.510836
 Sum of electronic and thermal Energies=             -1028.499239
 Sum of electronic and thermal Enthalpies=           -1028.498295
 Sum of electronic and thermal Free Energies=        -1028.548839

                     E (Thermal)             CV                S
                      KCal/Mol        Cal/Mol-Kelvin    Cal/Mol-Kelvin
 Total                  124.601             47.914            106.379
 Electronic               0.000              0.000              0.000
 Translational            0.889              2.981             42.162
 Rotational               0.889              2.981             32.527
 Vibrational            122.824             41.953             31.689
 Vibration     1          0.595              1.978              4.861
 Vibration     2          0.607              1.940              3.239
 Vibration     3          0.609              1.934              3.121
 Vibration     4          0.630              1.865              2.315
 Vibration     5          0.650              1.801              1.907
 Vibration     6          0.672              1.734              1.617
 Vibration     7          0.677              1.720              1.567
 Vibration     8          0.685              1.695              1.483
 Vibration     9          0.724              1.585              1.187
 Vibration    10          0.757              1.494              1.005
 Vibration    11          0.789              1.410              0.866
 Vibration    12          0.806              1.367              0.804
 Vibration    13          0.862              1.235              0.642
 Vibration    14          0.869              1.219              0.624
 Vibration    15          0.898              1.155              0.559
 Vibration    16          0.900              1.152              0.556
 Vibration    17          0.915              1.119              0.525
 Vibration    18          0.924              1.101              0.509

 Optimization completed.
    -- Stationary point found.
 Normal termination of Gaussian 16 at Tue Jul 14 15:33:39 2020.
