 Gaussian 16, Revision C.01,
 Gaussian 16:  ES64L-G16RevC.01  3-Jul-2019

 ----------------------------------------------------------------------
 #p opt=addgic freq td wb97xd/cc-pvdz nosymm int=ultrafine scrf=(solven
 t=CarbonTetraChloride)
 ----------------------------------------------------------------------

 ------------------------------------------------
 NM 2D-scan of HBT TD-WB97XD pVDZ in CTC Relaxed.
 ------------------------------------------------
 Symbolic Z-matrix:
 Charge =  0 Multiplicity = 1

 SCF Done:  E(RwB97XD) =  -1028.80198364     A.U. after   15 cycles
 Total Energy, E(TD-HF/TD-DFT) =  -1028.69194340
 SCF Done:  E(RwB97XD) =  -1028.79729955     A.U. after   14 cycles
 Total Energy, E(TD-HF/TD-DFT) =  -1028.69473235
 SCF Done:  E(RwB97XD) =  -1028.80616174     A.U. after   13 cycles
 Total Energy, E(TD-HF/TD-DFT) =  -1028.69944953
 SCF Done:  E(RwB97XD) =  -1028.80672018     A.U. after   11 cycles
 Total Energy, E(TD-HF/TD-DFT) =  -1028.69951244
 SCF Done:  E(RwB97XD) =  -1028.80668600     A.U. after    9 cycles
 Total Energy, E(TD-HF/TD-DFT) =  -1028.69951508
 Optimization completed.
    -- Stationary point found.
 Normal termination of Gaussian 16 at Mon Jul 13 16:28:56 2020.

 ----------------------------------------------------------------------
 #P Geom=AllCheck Guess=TCheck SCRF=Check GenChk RwB97XD TD(FC,Read)/CC
 -pVDZ Freq
 ----------------------------------------------------------------------

 Structure from the checkpoint file:  "config_9_7.chk"
 ------------------------------------------------
 NM 2D-scan of HBT TD-WB97XD pVDZ in CTC Relaxed.
 ------------------------------------------------
 Charge =  0 Multiplicity = 1

                          Input orientation:
 ---------------------------------------------------------------------
 Center     Atomic      Atomic             Coordinates (Angstroms)
 Number     Number       Type             X           Y           Z
 ---------------------------------------------------------------------
      1          6           0        1.689393   -3.285195   -0.000048
      2          6           0        1.005342   -2.071349   -0.000029
      3          6           0        1.716154   -0.849837   -0.000007
      4          6           0        3.118612   -0.831357    0.000002
      5          6           0        3.788061   -2.045335   -0.000018
      6          6           0        3.085854   -3.260407   -0.000044
      7          1           0        1.150406   -4.233236   -0.000064
      8          1           0        3.651494    0.119794    0.000023
      9          1           0        4.879113   -2.054753   -0.000013
     10          1           0        3.636030   -4.202083   -0.000059
     11          7           0        0.899606    0.232919    0.000008
     12         16           0       -0.736541   -1.763354   -0.000017
     13          6           0       -1.387843    1.051017    0.000019
     14          6           0       -2.767839    0.859892    0.000019
     15          6           0       -0.873804    2.450903    0.000029
     16          6           0       -3.667256    1.953583    0.000039
     17          1           0       -3.174636   -0.154349    0.000006
     18          6           0       -1.826672    3.509267    0.000033
     19          6           0       -3.201314    3.269777    0.000048
     20          1           0       -4.739437    1.751822    0.000042
     21          1           0       -1.418635    4.521288    0.000027
     22          1           0       -3.905406    4.102700    0.000056
     23          6           0       -0.435258   -0.021207    0.000001
     24          8           0        0.369018    2.707393   -0.000031
     25          1           0        1.109425    1.270676    0.000062
 ---------------------------------------------------------------------

 SCF Done:  E(RwB97XD) =  -1028.80668600     A.U. after    1 cycles

 Excitation energies and oscillator strengths:

 Excited state symmetry could not be determined.
 Excited State   1:      Singlet-?Sym    2.9163 eV  425.15 nm  f=0.4404  <S**2>=0.000
      59 -> 60         0.69611
 This state for optimization and/or second-order correction.
 Total Energy, E(TD-HF/TD-DFT) =  -1028.69951511
 Copying the excited state density for this state as the 1-particle RhoCI density.

 Excited state symmetry could not be determined.
 Excited State   2:      Singlet-?Sym    3.7774 eV  328.22 nm  f=0.0000  <S**2>=0.000
      57 -> 60         0.68381
      57 -> 62         0.11675
      57 -> 64         0.11687

 Excited state symmetry could not be determined.
 Excited State   3:      Singlet-?Sym    4.3303 eV  286.32 nm  f=0.4295  <S**2>=0.000
      58 -> 60         0.67997

 Alpha  occ. eigenvalues --  -89.10618 -19.21535 -14.51864 -10.42023 -10.37282
 Alpha  occ. eigenvalues --  -10.36305 -10.36115 -10.33431 -10.32836 -10.32518
 Alpha  occ. eigenvalues --  -10.32368 -10.31589 -10.31352 -10.30821 -10.29265
 Alpha  occ. eigenvalues --  -10.28435  -8.12550  -6.07430  -6.07061  -6.06570
 Alpha  occ. eigenvalues --   -1.12898  -1.09549  -0.98245  -0.95130  -0.93164
 Alpha  occ. eigenvalues --   -0.89157  -0.86459  -0.83945  -0.81260  -0.76013
 Alpha  occ. eigenvalues --   -0.72840  -0.71863  -0.68824  -0.67674  -0.64876
 Alpha  occ. eigenvalues --   -0.60956  -0.59680  -0.56759  -0.55802  -0.55461
 Alpha  occ. eigenvalues --   -0.54909  -0.53666  -0.53069  -0.50825  -0.49219
 Alpha  occ. eigenvalues --   -0.48818  -0.48275  -0.46873  -0.45433  -0.44893
 Alpha  occ. eigenvalues --   -0.44326  -0.43011  -0.42058  -0.40320  -0.36814
 Alpha  occ. eigenvalues --   -0.33581  -0.32183  -0.31416  -0.26069
 Alpha virt. eigenvalues --   -0.02063   0.03781   0.05950   0.06299   0.09117
 Alpha virt. eigenvalues --    0.10604   0.12753   0.14643   0.16112   0.17334
 Alpha virt. eigenvalues --    0.18818   0.20179   0.21001   0.21399   0.23064

 Mulliken charges:
               1
     1  C    0.014443
     2  C   -0.242913
     3  C    0.265659
     4  C   -0.010486
     5  C    0.013280
     6  C   -0.000372
     7  H    0.026221
     8  H    0.031819
     9  H    0.027194
    10  H    0.026584
    11  N   -0.144633
    12  S    0.199025
    13  C   -0.110083
    14  C   -0.024206
    15  C    0.119923
    16  C   -0.035766
    17  H    0.004157
    18  C   -0.021493
    19  C    0.032763
    20  H    0.002713
    21  H    0.002521
    22  H    0.014848
    23  C    0.060639
    24  O   -0.409206
    25  H    0.157371
 Sum of Mulliken charges =  -0.00000

 Dipole moment (field-independent basis, Debye):
    X=              1.6550    Y=             -5.3850    Z=              0.0001  Tot=              5.6336
 Quadrupole moment (field-independent basis, Debye-Ang):
   XX=            -82.5072   YY=            -94.9408   ZZ=           -104.2615
   XY=             -6.7218   XZ=              0.0001   YZ=              0.0006

  Exact polarizability:     349.489    -124.185     301.293      -0.002       0.003      63.304
 Approx polarizability:     274.129     -36.832     266.217      -0.001       0.002      82.126

 ******    1 imaginary frequencies (negative Signs) ******

                      1                      2                      3
                      A                      A                      A
 Frequencies --    -29.2587                39.6369               110.9570
 Red. masses --      6.3829                 6.4590                 4.9919
 Frc consts  --      0.0032                 0.0060                 0.0362
 IR Inten    --      1.1118                 1.8536                 0.2089

                      4                      5                      6
                      A                      A                      A
 Frequencies --    116.3427               177.7178               222.1570
 Red. masses --      5.7305                 5.4785                 5.3979
 Frc consts  --      0.0457                 0.1019                 0.1570
 IR Inten    --      9.6683                 0.1285                 0.2124

                      7                      8                      9
                      A                      A                      A
 Frequencies --    265.2411               270.2153               317.9555
 Red. masses --      7.7101                 4.6541                 7.0878
 Frc consts  --      0.3196                 0.2002                 0.4222
 IR Inten    --      1.6670                 0.4660                 9.8259

                     10                     11                     12
                      A                      A                      A
 Frequencies --    356.3952               391.4147               434.1805
 Red. masses --      4.9572                 9.3217                 3.3415
 Frc consts  --      0.3710                 0.8414                 0.3711
 IR Inten    --      0.9748                 4.2492                 4.1494

                     13                     14                     15
                      A                      A                      A
 Frequencies --    458.0293               504.1293               506.6523
 Red. masses --      4.6609                 8.7110                 3.1882
 Frc consts  --      0.5761                 1.3044                 0.4822
 IR Inten    --      2.1102                 7.7484                 0.5329

                     16                     17                     18
                      A                      A                      A
 Frequencies --    540.7415               557.0355               565.7050
 Red. masses --      8.7347                 3.8445                 6.6235
 Frc consts  --      1.5048                 0.7028                 1.2489
 IR Inten    --      5.1224                 0.6612                20.5020

                     19                     20                     21
                      A                      A                      A
 Frequencies --    571.2912               633.7859               691.7319
 Red. masses --      7.5304                 5.9399                 1.5732
 Frc consts  --      1.4480                 1.4058                 0.4435
 IR Inten    --     30.9647                87.6057                37.1537

                     22                     23                     24
                      A                      A                      A
 Frequencies --    705.9095               719.0553               742.6045
 Red. masses --      6.8854                 7.4810                 2.6384
 Frc consts  --      2.0215                 2.2789                 0.8573
 IR Inten    --      1.6676                 5.1728                13.0352

                     25                     26                     27
                      A                      A                      A
 Frequencies --    763.6001               768.4765               814.2511
 Red. masses --      1.7566                 1.6635                 6.4018
 Frc consts  --      0.6035                 0.5788                 2.5007
 IR Inten    --      2.3120                87.2026                15.6491

                     28                     29                     30
                      A                      A                      A
 Frequencies --    838.4063               866.6025               874.2574
 Red. masses --      1.7119                 1.3840                 4.3804
 Frc consts  --      0.7090                 0.6124                 1.9726
 IR Inten    --      0.0142                 0.4452                15.1803

                     31                     32                     33
                      A                      A                      A
 Frequencies --    906.4625               952.9992               953.4973
 Red. masses --      1.4165                 5.5332                 1.3599
 Frc consts  --      0.6857                 2.9608                 0.7284
 IR Inten    --      6.2126                 3.3769                 0.0903

                     34                     35                     36
                      A                      A                      A
 Frequencies --    958.1735               973.5670              1004.4797
 Red. masses --      1.3477                 1.0771                 1.2936
 Frc consts  --      0.7290                 0.6015                 0.7690
 IR Inten    --      1.6055                73.0772                 0.2492

                     37                     38                     39
                      A                      A                      A
 Frequencies --   1045.7980              1052.9776              1081.4042
 Red. masses --      2.1696                 2.1867                 4.1164
 Frc consts  --      1.3980                 1.4285                 2.8362
 IR Inten    --      0.8357                 8.3111                 2.2783

                     40                     41                     42
                      A                      A                      A
 Frequencies --   1115.1217              1152.6966              1162.0491
 Red. masses --      1.5337                 1.3184                 1.2075
 Frc consts  --      1.1237                 1.0321                 0.9607
 IR Inten    --     41.7812                18.2409                65.1513

                     43                     44                     45
                      A                      A                      A
 Frequencies --   1180.0213              1222.6068              1255.5227
 Red. masses --      1.1403                 1.9110                 2.1873
 Frc consts  --      0.9355                 1.6830                 2.0315
 IR Inten    --     34.0113               102.9138                46.4049

                     46                     47                     48
                      A                      A                      A
 Frequencies --   1281.9157              1311.0024              1339.1489
 Red. masses --      1.6618                 1.9641                 5.4899
 Frc consts  --      1.6090                 1.9889                 5.8006
 IR Inten    --    107.7335                74.6909                16.5535

                     49                     50                     51
                      A                      A                      A
 Frequencies --   1367.3091              1394.7002              1401.2145
 Red. masses --      5.5022                 2.6855                 2.3064
 Frc consts  --      6.0606                 3.0778                 2.6680
 IR Inten    --    139.1111                17.5715                 2.4501

                     52                     53                     54
                      A                      A                      A
 Frequencies --   1436.3860              1483.2497              1505.3957
 Red. masses --      3.4344                 2.7310                 3.0523
 Frc consts  --      4.1748                 3.5400                 4.0754
 IR Inten    --    410.3607                 2.1190                29.4365

                     55                     56                     57
                      A                      A                      A
 Frequencies --   1533.7955              1560.9396              1582.6243
 Red. masses --      4.2518                 5.1752                 4.1432
 Frc consts  --      5.8933                 7.4293                 6.1143
 IR Inten    --     45.8448               185.9848                68.5025

                     58                     59                     60
                      A                      A                      A
 Frequencies --   1621.9144              1647.1108              1668.5854
 Red. masses --      6.2291                 6.1001                 6.7951
 Frc consts  --      9.6545                 9.7506                11.1467
 IR Inten    --    244.3414                61.2242               180.9663

                     61                     62                     63
                      A                      A                      A
 Frequencies --   2924.8320              3191.7288              3211.1373
 Red. masses --      1.0950                 1.0891                 1.0864
 Frc consts  --      5.5192                 6.5368                 6.6000
 IR Inten    --   1191.6425                25.6031                 1.4155

                     64                     65                     66
                      A                      A                      A
 Frequencies --   3212.3223              3222.7712              3223.0007
 Red. masses --      1.0864                 1.0922                 1.0904
 Frc consts  --      6.6050                 6.6837                 6.6733
 IR Inten    --      5.2955                13.2466                 3.7481

                     67                     68                     69
                      A                      A                      A
 Frequencies --   3233.2115              3234.7329              3239.8354
 Red. masses --      1.0957                 1.0989                 1.0996
 Frc consts  --      6.7486                 6.7747                 6.8001
 IR Inten    --      7.9501                24.7939                12.3759

 - Thermochemistry -
 -------------------
 Temperature   298.150 Kelvin.  Pressure   1.00000 Atm.
 Atom     1 has atomic number  6 and mass  12.00000

 Molecular mass:   227.04049 amu.
 Principal axes and moments of inertia in atomic units:
                           1         2         3
     Eigenvalues --  1314.734056405.254977719.98902
           X           -0.70175   0.71242   0.00000
           Y            0.71242   0.70175  -0.00001
           Z            0.00001   0.00000   1.00000
 This molecule is an asymmetric top.
 Rotational symmetry number  1.
 Warning -- assumption of classical behavior for rotation
           may cause significant error
 Rotational temperatures (Kelvin)      0.06588     0.01352     0.01122
 Rotational constants (GHZ):           1.37270     0.28176     0.23378
    1 imaginary frequencies ignored.
 Zero-point vibrational energy     488499.4 (Joules/Mol)
                                  116.75416 (Kcal/Mol)
 Warning -- explicit consideration of  18 degrees of freedom as
           vibrations may cause significant error
 Vibrational temperatures:     57.03   159.64   167.39   255.70   319.63
          (Kelvin)            381.62   388.78   457.47   512.77   563.16
                              624.69   659.00   725.33   728.96   778.01
                              801.45   813.92   821.96   911.88   995.25
                             1015.65  1034.56  1068.44  1098.65  1105.67
                             1171.53  1206.28  1246.85  1257.86  1304.20
                             1371.15  1371.87  1378.60  1400.75  1445.22
                             1504.67  1515.00  1555.90  1604.41  1658.47
                             1671.93  1697.79  1759.06  1806.42  1844.39
                             1886.24  1926.74  1967.25  2006.66  2016.04
                             2066.64  2134.07  2165.93  2206.79  2245.84
                             2277.04  2333.57  2369.83  2400.72  4208.18
                             4592.19  4620.11  4621.82  4636.85  4637.18
                             4651.87  4654.06  4661.40

 Zero-point correction=                           0.186060 (Hartree/Particle)
 Thermal correction to Energy=                    0.197558
 Thermal correction to Enthalpy=                  0.198503
 Thermal correction to Gibbs Free Energy=         0.147913
 Sum of electronic and zero-point Energies=          -1028.513456
 Sum of electronic and thermal Energies=             -1028.501957
 Sum of electronic and thermal Enthalpies=           -1028.501013
 Sum of electronic and thermal Free Energies=        -1028.551602

                     E (Thermal)             CV                S
                      KCal/Mol        Cal/Mol-Kelvin    Cal/Mol-Kelvin
 Total                  123.970             47.382            106.475
 Electronic               0.000              0.000              0.000
 Translational            0.889              2.981             42.162
 Rotational               0.889              2.981             32.541
 Vibrational            122.192             41.421             31.772
 Vibration     1          0.594              1.981              5.277
 Vibration     2          0.607              1.940              3.252
 Vibration     3          0.608              1.936              3.160
 Vibration     4          0.628              1.870              2.352
 Vibration     5          0.648              1.807              1.941
 Vibration     6          0.671              1.737              1.627
 Vibration     7          0.674              1.728              1.595
 Vibration     8          0.704              1.639              1.321
 Vibration     9          0.732              1.562              1.138
 Vibration    10          0.759              1.489              0.995
 Vibration    11          0.795              1.396              0.845
 Vibration    12          0.816              1.343              0.772
 Vibration    13          0.859              1.241              0.648
 Vibration    14          0.862              1.235              0.642
 Vibration    15          0.896              1.160              0.564
 Vibration    16          0.913              1.124              0.530
 Vibration    17          0.922              1.105              0.513
 Vibration    18          0.927              1.093              0.502

 Optimization completed.
    -- Stationary point found.
 Normal termination of Gaussian 16 at Mon Jul 13 16:46:47 2020.
