 Gaussian 16, Revision C.01,
 Gaussian 16:  ES64L-G16RevC.01  3-Jul-2019

 ----------------------------------------------------------------------
 #p opt=addgic freq td wb97xd/cc-pvdz nosymm int=ultrafine scrf=(solven
 t=CarbonTetraChloride)
 ----------------------------------------------------------------------

 ------------------------------------------------
 NM 2D-scan of HBT TD-WB97XD pVDZ in CTC Relaxed.
 ------------------------------------------------
 Symbolic Z-matrix:
 Charge =  0 Multiplicity = 1

 SCF Done:  E(RwB97XD) =  -1028.81348400     A.U. after   15 cycles
 Total Energy, E(TD-HF/TD-DFT) =  -1028.69166052
 Optimization completed.
    -- Stationary point found.
 Normal termination of Gaussian 16 at Mon Jul 13 14:23:40 2020.

 ----------------------------------------------------------------------
 #P Geom=AllCheck Guess=TCheck SCRF=Check GenChk RwB97XD TD(FC,Read)/CC
 -pVDZ Freq
 ----------------------------------------------------------------------

 Structure from the checkpoint file:  "config_6_10.chk"
 ------------------------------------------------
 NM 2D-scan of HBT TD-WB97XD pVDZ in CTC Relaxed.
 ------------------------------------------------
 Charge =  0 Multiplicity = 1

                          Input orientation:
 ---------------------------------------------------------------------
 Center     Atomic      Atomic             Coordinates (Angstroms)
 Number     Number       Type             X           Y           Z
 ---------------------------------------------------------------------
      1          6           0        1.633453   -3.261563   -0.000020
      2          6           0        0.999864   -2.022608   -0.000022
      3          6           0        1.732052   -0.799540   -0.000023
      4          6           0        3.142964   -0.855091   -0.000025
      5          6           0        3.764606   -2.095182   -0.000023
      6          6           0        3.026362   -3.292258   -0.000020
      7          1           0        1.051552   -4.184341   -0.000018
      8          1           0        3.720718    0.070126   -0.000027
      9          1           0        4.855283   -2.142646   -0.000023
     10          1           0        3.545783   -4.251548   -0.000018
     11          7           0        0.951522    0.309603   -0.000024
     12         16           0       -0.723277   -1.706874   -0.000022
     13          6           0       -1.361218    1.036910    0.000006
     14          6           0       -2.746006    0.802017    0.000007
     15          6           0       -0.890000    2.436629    0.000033
     16          6           0       -3.648848    1.871073    0.000027
     17          1           0       -3.121557   -0.223027   -0.000010
     18          6           0       -1.837054    3.486088    0.000051
     19          6           0       -3.203306    3.207712    0.000048
     20          1           0       -4.719753    1.660659    0.000026
     21          1           0       -1.456491    4.508374    0.000072
     22          1           0       -3.928217    4.022245    0.000064
     23          6           0       -0.377783    0.019990   -0.000018
     24          8           0        0.381364    2.672037    0.000044
     25          1           0        0.925385    1.619500    0.000013
 ---------------------------------------------------------------------

 SCF Done:  E(RwB97XD) =  -1028.81348400     A.U. after    1 cycles

 Excitation energies and oscillator strengths:

 Excited state symmetry could not be determined.
 Excited State   1:      Singlet-?Sym    3.3150 eV  374.01 nm  f=0.5233  <S**2>=0.000
      59 -> 60         0.69277
 This state for optimization and/or second-order correction.
 Total Energy, E(TD-HF/TD-DFT) =  -1028.69166044
 Copying the excited state density for this state as the 1-particle RhoCI density.

 Excited state symmetry could not be determined.
 Excited State   2:      Singlet-?Sym    4.3773 eV  283.24 nm  f=0.3339  <S**2>=0.000
      57 -> 60         0.13697
      58 -> 60         0.66165
      59 -> 64        -0.10138

 Excited state symmetry could not be determined.
 Excited State   3:      Singlet-?Sym    4.7353 eV  261.83 nm  f=0.0557  <S**2>=0.000
      55 -> 61        -0.10985
      57 -> 60         0.57986
      57 -> 62        -0.15519
      58 -> 60        -0.14065
      58 -> 61        -0.19176
      59 -> 61        -0.23096

 Alpha  occ. eigenvalues --  -89.09554 -19.25403 -14.48766 -10.40487 -10.37341
 Alpha  occ. eigenvalues --  -10.36057 -10.35281 -10.32591 -10.32049 -10.32038
 Alpha  occ. eigenvalues --  -10.31801 -10.31752 -10.31747 -10.31633 -10.29993
 Alpha  occ. eigenvalues --  -10.29700  -8.11558  -6.06409  -6.06060  -6.05606
 Alpha  occ. eigenvalues --   -1.14436  -1.09313  -0.97147  -0.95560  -0.92478
 Alpha  occ. eigenvalues --   -0.88905  -0.85545  -0.83892  -0.82302  -0.75877
 Alpha  occ. eigenvalues --   -0.71316  -0.70788  -0.68728  -0.68000  -0.63555
 Alpha  occ. eigenvalues --   -0.60796  -0.59185  -0.58029  -0.55529  -0.54513
 Alpha  occ. eigenvalues --   -0.54333  -0.53370  -0.52816  -0.50965  -0.49852
 Alpha  occ. eigenvalues --   -0.49725  -0.47125  -0.46294  -0.45596  -0.44939
 Alpha  occ. eigenvalues --   -0.44137  -0.42929  -0.42299  -0.40554  -0.36554
 Alpha  occ. eigenvalues --   -0.35590  -0.32611  -0.31230  -0.27614
 Alpha virt. eigenvalues --   -0.01760   0.04613   0.06635   0.07141   0.07885
 Alpha virt. eigenvalues --    0.10735   0.14111   0.14997   0.16391   0.17858
 Alpha virt. eigenvalues --    0.18730   0.20868   0.21563   0.22192   0.22568

 Mulliken charges:
               1
     1  C    0.017491
     2  C   -0.230171
     3  C    0.261017
     4  C   -0.016913
     5  C    0.008228
     6  C   -0.002217
     7  H    0.020680
     8  H    0.023571
     9  H    0.022314
    10  H    0.022825
    11  N   -0.322600
    12  S    0.178037
    13  C   -0.102262
    14  C   -0.024099
    15  C    0.119422
    16  C   -0.023746
    17  H    0.012160
    18  C   -0.009354
    19  C    0.027453
    20  H    0.007589
    21  H    0.012835
    22  H    0.020332
    23  C    0.076740
    24  O   -0.322038
    25  H    0.222706
 Sum of Mulliken charges =  -0.00000

 Dipole moment (field-independent basis, Debye):
    X=              0.2567    Y=             -3.4176    Z=             -0.0000  Tot=              3.4273
 Quadrupole moment (field-independent basis, Debye-Ang):
   XX=            -83.1579   YY=            -91.2382   ZZ=           -104.2762
   XY=             -6.9584   XZ=             -0.0001   YZ=              0.0000

  Exact polarizability:     368.006    -150.776     331.252      -0.002       0.003      63.289
 Approx polarizability:     274.824     -35.069     260.838      -0.001       0.002      82.306

 ******    1 imaginary frequencies (negative Signs) ******

                      1                      2                      3
                      A                      A                      A
 Frequencies --  -1104.6294                44.9500                57.7229
 Red. masses --      1.0831                 5.7899                 6.6155
 Frc consts  --      0.7787                 0.0069                 0.0130
 IR Inten    --   1244.9705                 1.1681                 0.3814

                      4                      5                      6
                      A                      A                      A
 Frequencies --    112.4342               140.8719               177.5880
 Red. masses --      5.1340                 5.7103                 6.0712
 Frc consts  --      0.0382                 0.0668                 0.1128
 IR Inten    --      0.0014                 4.3667                 0.7304

                      7                      8                      9
                      A                      A                      A
 Frequencies --    221.6293               272.1096               274.7973
 Red. masses --      5.3842                 4.7374                 7.4197
 Frc consts  --      0.1558                 0.2067                 0.3301
 IR Inten    --      0.0513                 0.1096                13.8627

                     10                     11                     12
                      A                      A                      A
 Frequencies --    373.9252               380.2673               413.1464
 Red. masses --      4.8725                 6.1243                11.5376
 Frc consts  --      0.4014                 0.5218                 1.1603
 IR Inten    --      0.2847                 3.0183                 5.0379

                     13                     14                     15
                      A                      A                      A
 Frequencies --    438.5926               476.6269               498.6495
 Red. masses --      3.2285                 4.8234                 3.1706
 Frc consts  --      0.3659                 0.6456                 0.4645
 IR Inten    --      4.5216                 0.1031                 0.3693

                     16                     17                     18
                      A                      A                      A
 Frequencies --    506.2096               540.9510               558.3938
 Red. masses --      8.8607                 8.3728                 3.8953
 Frc consts  --      1.3378                 1.4436                 0.7156
 IR Inten    --      1.2369                 8.4296                 0.2345

                     19                     20                     21
                      A                      A                      A
 Frequencies --    577.4726               614.2231               676.8208
 Red. masses --      7.5918                 7.1716                 6.8862
 Frc consts  --      1.4916                 1.5941                 1.8586
 IR Inten    --      2.3114                 5.9194               128.7938

                     22                     23                     24
                      A                      A                      A
 Frequencies --    699.5420               721.8645               742.3889
 Red. masses --      1.6238                 6.4296                 2.2127
 Frc consts  --      0.4682                 1.9740                 0.7185
 IR Inten    --     43.0224                29.4614                20.2104

                     25                     26                     27
                      A                      A                      A
 Frequencies --    748.1946               761.2443               768.5530
 Red. masses --      9.4259                 1.9069                 1.7986
 Frc consts  --      3.1089                 0.6511                 0.6260
 IR Inten    --     23.2952                21.1483                67.1060

                     28                     29                     30
                      A                      A                      A
 Frequencies --    818.4017               826.8254               864.7569
 Red. masses --      1.6687                 6.2757                 1.3982
 Frc consts  --      0.6585                 2.5278                 0.6160
 IR Inten    --      0.0012                 5.0482                 0.9920

                     31                     32                     33
                      A                      A                      A
 Frequencies --    907.5409               914.8769               954.7556
 Red. masses --      1.3696                 6.8061                 1.3466
 Frc consts  --      0.6646                 3.3564                 0.7232
 IR Inten    --      5.0199                21.8451                 1.8425

                     34                     35                     36
                      A                      A                      A
 Frequencies --    958.7184               990.3702              1001.2901
 Red. masses --      1.3811                 7.5410                 1.2953
 Frc consts  --      0.7479                 4.3578                 0.7652
 IR Inten    --      0.4231                 9.3672                 0.0001

                     37                     38                     39
                      A                      A                      A
 Frequencies --   1039.6565              1048.8939              1088.0266
 Red. masses --      2.1240                 2.0605                 4.2899
 Frc consts  --      1.3527                 1.3356                 2.9921
 IR Inten    --      0.9514                 2.2663                65.3959

                     40                     41                     42
                      A                      A                      A
 Frequencies --   1131.3148              1151.8127              1171.0801
 Red. masses --      1.4505                 1.3538                 1.1600
 Frc consts  --      1.0938                 1.0582                 0.9373
 IR Inten    --     39.2582                19.4803                81.5875

                     43                     44                     45
                      A                      A                      A
 Frequencies --   1179.5863              1230.6738              1252.7712
 Red. masses --      1.1701                 1.0513                 1.8269
 Frc consts  --      0.9593                 0.9382                 1.6893
 IR Inten    --     29.9965                65.2278               101.6258

                     46                     47                     48
                      A                      A                      A
 Frequencies --   1265.4137              1296.9788              1357.0319
 Red. masses --      2.7043                 2.2401                 4.1105
 Frc consts  --      2.5513                 2.2201                 4.4599
 IR Inten    --     30.4672                13.3476               110.6523

                     49                     50                     51
                      A                      A                      A
 Frequencies --   1368.2738              1388.9326              1404.6523
 Red. masses --      5.5974                 2.5622                 2.4261
 Frc consts  --      6.1743                 2.9122                 2.8203
 IR Inten    --    334.9953                 4.8404                10.5430

                     52                     53                     54
                      A                      A                      A
 Frequencies --   1444.7361              1478.0694              1511.8474
 Red. masses --      3.0437                 3.2655                 4.1932
 Frc consts  --      3.7430                 4.2033                 5.6469
 IR Inten    --    335.9445                77.3335                58.2431

                     55                     56                     57
                      A                      A                      A
 Frequencies --   1520.8132              1543.9068              1567.5836
 Red. masses --      4.6544                 4.8952                 4.8509
 Frc consts  --      6.3426                 6.8749                 7.0232
 IR Inten    --    345.0970                74.5168               328.6047

                     58                     59                     60
                      A                      A                      A
 Frequencies --   1619.9631              1641.2704              1653.1740
 Red. masses --      5.9967                 6.1704                 6.3479
 Frc consts  --      9.2720                 9.7932                10.2216
 IR Inten    --    113.9552              1003.4357                88.2806

                     61                     62                     63
                      A                      A                      A
 Frequencies --   1834.1923              3204.8757              3206.8501
 Red. masses --      1.0926                 1.0875                 1.0862
 Frc consts  --      2.1658                 6.5810                 6.5814
 IR Inten    --     96.8694                14.6541                 7.3473

                     64                     65                     66
                      A                      A                      A
 Frequencies --   3217.1681              3217.6045              3225.4017
 Red. masses --      1.0882                 1.0901                 1.0934
 Frc consts  --      6.6362                 6.6493                 6.7016
 IR Inten    --      3.0133                 2.8312                15.7904

                     67                     68                     69
                      A                      A                      A
 Frequencies --   3228.6698              3235.4282              3237.8775
 Red. masses --      1.0952                 1.0992                 1.0984
 Frc consts  --      6.7265                 6.7797                 6.7846
 IR Inten    --      9.9327                29.1047                17.7172

 - Thermochemistry -
 -------------------
 Temperature   298.150 Kelvin.  Pressure   1.00000 Atm.
 Atom     1 has atomic number  6 and mass  12.00000

 Molecular mass:   227.04049 amu.
 Principal axes and moments of inertia in atomic units:
                           1         2         3
     Eigenvalues --  1300.583776307.527317608.11108
           X           -0.70441   0.70979   0.00000
           Y            0.70979   0.70441  -0.00001
           Z            0.00001   0.00001   1.00000
 This molecule is an asymmetric top.
 Rotational symmetry number  1.
 Warning -- assumption of classical behavior for rotation
           may cause significant error
 Rotational temperatures (Kelvin)      0.06660     0.01373     0.01138
 Rotational constants (GHZ):           1.38764     0.28612     0.23721
    1 imaginary frequencies ignored.
 Zero-point vibrational energy     478513.7 (Joules/Mol)
                                  114.36751 (Kcal/Mol)
 Warning -- explicit consideration of  19 degrees of freedom as
           vibrations may cause significant error
 Vibrational temperatures:     64.67    83.05   161.77   202.68   255.51
          (Kelvin)            318.88   391.51   395.37   537.99   547.12
                              594.43   631.04   685.76   717.45   728.32
                              778.31   803.40   830.85   883.73   973.79
                             1006.48  1038.60  1068.13  1076.49  1095.26
                             1105.78  1177.50  1189.62  1244.19  1305.75
                             1316.30  1373.68  1379.38  1424.92  1440.63
                             1495.83  1509.12  1565.43  1627.71  1657.20
                             1684.92  1697.16  1770.67  1802.46  1820.65
                             1866.06  1952.47  1968.64  1998.36  2020.98
                             2078.65  2126.61  2175.21  2188.11  2221.34
                             2255.40  2330.77  2361.42  2378.55  2638.99
                             4611.10  4613.94  4628.79  4629.42  4640.63
                             4645.34  4655.06  4658.58

 Zero-point correction=                           0.182256 (Hartree/Particle)
 Thermal correction to Energy=                    0.194254
 Thermal correction to Enthalpy=                  0.195199
 Thermal correction to Gibbs Free Energy=         0.143211
 Sum of electronic and zero-point Energies=          -1028.509404
 Sum of electronic and thermal Energies=             -1028.497406
 Sum of electronic and thermal Enthalpies=           -1028.496462
 Sum of electronic and thermal Free Energies=        -1028.548450

                     E (Thermal)             CV                S
                      KCal/Mol        Cal/Mol-Kelvin    Cal/Mol-Kelvin
 Total                  121.896             48.292            109.418
 Electronic               0.000              0.000              0.000
 Translational            0.889              2.981             42.162
 Rotational               0.889              2.981             32.501
 Vibrational            120.119             42.330             34.755
 Vibration     1          0.595              1.979              5.028
 Vibration     2          0.596              1.974              4.534
 Vibration     3          0.607              1.939              3.226
 Vibration     4          0.615              1.912              2.792
 Vibration     5          0.628              1.870              2.354
 Vibration     6          0.648              1.808              1.946
 Vibration     7          0.675              1.725              1.583
 Vibration     8          0.677              1.720              1.566
 Vibration     9          0.745              1.526              1.064
 Vibration    10          0.750              1.512              1.038
 Vibration    11          0.777              1.442              0.916
 Vibration    12          0.799              1.386              0.831
 Vibration    13          0.833              1.302              0.719
 Vibration    14          0.854              1.253              0.662
 Vibration    15          0.861              1.236              0.643
 Vibration    16          0.896              1.160              0.563
 Vibration    17          0.914              1.121              0.527
 Vibration    18          0.934              1.080              0.490
 Vibration    19          0.974              1.002              0.426

                           ! Non-Optimized Parameters !
 Normal termination of Gaussian 16 at Mon Jul 13 14:41:38 2020.
