 Gaussian 16, Revision C.01,
 Gaussian 16:  ES64L-G16RevC.01  3-Jul-2019

 ----------------------------------------------------------------------
 #p opt=addgic freq td wb97xd/cc-pvdz nosymm int=ultrafine scrf=(solven
 t=CarbonTetraChloride)
 ----------------------------------------------------------------------

 ------------------------------------------------
 NM 2D-scan of HBT TD-WB97XD pVDZ in CTC Relaxed.
 ------------------------------------------------
 Symbolic Z-matrix:
 Charge =  0 Multiplicity = 1

 SCF Done:  E(RwB97XD) =  -1028.80797012     A.U. after   15 cycles
 Total Energy, E(TD-HF/TD-DFT) =  -1028.68176506
 SCF Done:  E(RwB97XD) =  -1028.81009480     A.U. after   12 cycles
 Total Energy, E(TD-HF/TD-DFT) =  -1028.68297512
 SCF Done:  E(RwB97XD) =  -1028.81090814     A.U. after   11 cycles
 Total Energy, E(TD-HF/TD-DFT) =  -1028.68313498
 SCF Done:  E(RwB97XD) =  -1028.81057223     A.U. after   11 cycles
 Total Energy, E(TD-HF/TD-DFT) =  -1028.68345399
 SCF Done:  E(RwB97XD) =  -1028.81052243     A.U. after    9 cycles
 Total Energy, E(TD-HF/TD-DFT) =  -1028.68345830
 SCF Done:  E(RwB97XD) =  -1028.81046029     A.U. after   10 cycles
 Total Energy, E(TD-HF/TD-DFT) =  -1028.68345843
 SCF Done:  E(RwB97XD) =  -1028.81046714     A.U. after    8 cycles
 Total Energy, E(TD-HF/TD-DFT) =  -1028.68345950
 Optimization completed.
    -- Stationary point found.
 Normal termination of Gaussian 16 at Tue Jul 14 16:53:27 2020.

 ----------------------------------------------------------------------
 #P Geom=AllCheck Guess=TCheck SCRF=Check GenChk RwB97XD TD(FC,Read)/CC
 -pVDZ Freq
 ----------------------------------------------------------------------

 Structure from the checkpoint file:  "config_4_20.chk"
 ------------------------------------------------
 NM 2D-scan of HBT TD-WB97XD pVDZ in CTC Relaxed.
 ------------------------------------------------
 Charge =  0 Multiplicity = 1

                          Input orientation:
 ---------------------------------------------------------------------
 Center     Atomic      Atomic             Coordinates (Angstroms)
 Number     Number       Type             X           Y           Z
 ---------------------------------------------------------------------
      1          6           0        1.492553   -3.241952   -0.000091
      2          6           0        1.001903   -1.942630   -0.000080
      3          6           0        1.819446   -0.768096   -0.000008
      4          6           0        3.223218   -0.989189    0.000046
      5          6           0        3.709885   -2.293765    0.000036
      6          6           0        2.866936   -3.422275   -0.000030
      7          1           0        0.803974   -4.087870   -0.000141
      8          1           0        3.910621   -0.142354    0.000100
      9          1           0        4.790959   -2.446435    0.000083
     10          1           0        3.291729   -4.426683   -0.000030
     11          7           0        1.100639    0.395304    0.000007
     12         16           0       -0.677828   -1.540702   -0.000134
     13          6           0       -1.282773    1.086157    0.000019
     14          6           0       -2.640183    0.698140    0.000090
     15          6           0       -0.935510    2.501477   -0.000001
     16          6           0       -3.639572    1.661915    0.000097
     17          1           0       -2.907015   -0.358594    0.000143
     18          6           0       -1.977374    3.455136    0.000010
     19          6           0       -3.313572    3.034858    0.000049
     20          1           0       -4.685896    1.352496    0.000142
     21          1           0       -1.718555    4.514472   -0.000020
     22          1           0       -4.112348    3.777437    0.000047
     23          6           0       -0.242000    0.143636   -0.000035
     24          8           0        0.336937    2.785553   -0.000053
     25          1           0        0.909684    1.860514   -0.000125
 ---------------------------------------------------------------------

 SCF Done:  E(RwB97XD) =  -1028.81046714     A.U. after    1 cycles

 Excitation energies and oscillator strengths:

 Excited state symmetry could not be determined.
 Excited State   1:      Singlet-?Sym    3.4561 eV  358.75 nm  f=0.6052  <S**2>=0.000
      59 -> 60         0.68995
 This state for optimization and/or second-order correction.
 Total Energy, E(TD-HF/TD-DFT) =  -1028.68345953
 Copying the excited state density for this state as the 1-particle RhoCI density.

 Excited state symmetry could not be determined.
 Excited State   2:      Singlet-?Sym    4.3694 eV  283.76 nm  f=0.1763  <S**2>=0.000
      57 -> 60         0.20229
      58 -> 60         0.63632
      59 -> 63         0.10248

 Excited state symmetry could not be determined.
 Excited State   3:      Singlet-?Sym    4.6643 eV  265.82 nm  f=0.1144  <S**2>=0.000
      57 -> 60         0.59404
      57 -> 62        -0.14558
      58 -> 60        -0.20637
      58 -> 61        -0.12790
      59 -> 61         0.19093

 Alpha  occ. eigenvalues --  -89.08693 -19.27393 -14.48068 -10.39707 -10.37864
 Alpha  occ. eigenvalues --  -10.35805 -10.34561 -10.32194 -10.32073 -10.32066
 Alpha  occ. eigenvalues --  -10.31941 -10.31789 -10.31533 -10.31459 -10.30528
 Alpha  occ. eigenvalues --  -10.30418  -8.10858  -6.05684  -6.05340  -6.04921
 Alpha  occ. eigenvalues --   -1.16054  -1.08501  -0.96931  -0.96037  -0.92504
 Alpha  occ. eigenvalues --   -0.88827  -0.85333  -0.84352  -0.82354  -0.75906
 Alpha  occ. eigenvalues --   -0.71441  -0.70623  -0.69055  -0.67784  -0.63712
 Alpha  occ. eigenvalues --   -0.60663  -0.59060  -0.58716  -0.55913  -0.54453
 Alpha  occ. eigenvalues --   -0.54175  -0.53621  -0.53015  -0.50591  -0.50255
 Alpha  occ. eigenvalues --   -0.49355  -0.46874  -0.46083  -0.45767  -0.44873
 Alpha  occ. eigenvalues --   -0.44290  -0.42844  -0.42358  -0.40239  -0.36957
 Alpha  occ. eigenvalues --   -0.36477  -0.32083  -0.31478  -0.28169
 Alpha virt. eigenvalues --   -0.01756   0.04962   0.06674   0.07357   0.08016
 Alpha virt. eigenvalues --    0.10930   0.14672   0.15213   0.17391   0.17931
 Alpha virt. eigenvalues --    0.18775   0.21192   0.21471   0.22412   0.22467

 Mulliken charges:
               1
     1  C    0.024525
     2  C   -0.217828
     3  C    0.226716
     4  C   -0.024699
     5  C    0.002552
     6  C   -0.000647
     7  H    0.017721
     8  H    0.021077
     9  H    0.020304
    10  H    0.020821
    11  N   -0.371090
    12  S    0.166072
    13  C   -0.080658
    14  C   -0.031933
    15  C    0.110494
    16  C   -0.013363
    17  H    0.026403
    18  C   -0.009824
    19  C    0.024570
    20  H    0.009992
    21  H    0.018235
    22  H    0.023048
    23  C    0.088975
    24  O   -0.259597
    25  H    0.208135
 Sum of Mulliken charges =  -0.00000

 Dipole moment (field-independent basis, Debye):
    X=             -0.5376    Y=             -2.7631    Z=             -0.0001  Tot=              2.8149
 Quadrupole moment (field-independent basis, Debye-Ang):
   XX=            -83.1086   YY=            -90.3974   ZZ=           -104.2063
   XY=             -7.1716   XZ=             -0.0001   YZ=              0.0000

  Exact polarizability:     381.927    -173.270     359.537      -0.002       0.004      63.237
 Approx polarizability:     274.691     -34.776     257.684       0.001       0.002      82.333

 ******    1 imaginary frequencies (negative Signs) ******

                      1                      2                      3
                      A                      A                      A
 Frequencies --    -92.9250                28.9187                50.0665
 Red. masses --      4.5135                 5.1092                 6.8157
 Frc consts  --      0.0230                 0.0025                 0.0101
 IR Inten    --      1.9218                 0.0489                 1.4853

                      4                      5                      6
                      A                      A                      A
 Frequencies --    111.5776               174.3887               223.4507
 Red. masses --      5.3338                 6.2322                 5.2507
 Frc consts  --      0.0391                 0.1117                 0.1545
 IR Inten    --      0.0190                 1.3866                 0.0069

                      7                      8                      9
                      A                      A                      A
 Frequencies --    242.0633               274.8240               275.2920
 Red. masses --      5.1754                 4.7953                 7.1826
 Frc consts  --      0.1787                 0.2134                 0.3207
 IR Inten    --     16.2879                 0.0063                24.3454

                     10                     11                     12
                      A                      A                      A
 Frequencies --    379.2356               419.7645               441.5175
 Red. masses --      4.6321                 8.7538                 3.1953
 Frc consts  --      0.3925                 0.9088                 0.3670
 IR Inten    --      0.0470                13.9180                 3.8810

                     13                     14                     15
                      A                      A                      A
 Frequencies --    473.2998               479.0152               504.0890
 Red. masses --      4.6109                 4.6624                 3.1583
 Frc consts  --      0.6086                 0.6303                 0.4728
 IR Inten    --      7.5381                 0.0052                 0.0557

                     16                     17                     18
                      A                      A                      A
 Frequencies --    507.5156               537.7722               559.1851
 Red. masses --      8.5851                 7.7287                 3.8888
 Frc consts  --      1.3029                 1.3169                 0.7164
 IR Inten    --      0.2348                47.9847                 0.1679

                     19                     20                     21
                      A                      A                      A
 Frequencies --    574.5324               640.0214               710.7903
 Red. masses --      7.6838                 6.6919                 1.5311
 Frc consts  --      1.4944                 1.6151                 0.4558
 IR Inten    --      5.9033                22.4460                61.5951

                     22                     23                     24
                      A                      A                      A
 Frequencies --    728.1176               740.0666               740.5427
 Red. masses --      6.4482                 1.8755                10.2180
 Frc consts  --      2.0141                 0.6052                 3.3015
 IR Inten    --      0.5302                41.7281                33.5654

                     25                     26                     27
                      A                      A                      A
 Frequencies --    743.8634               768.4738               802.2185
 Red. masses --      1.8193                 2.1747                 1.9234
 Frc consts  --      0.5931                 0.7567                 0.7293
 IR Inten    --      4.3383                49.1774                 3.1962

                     28                     29                     30
                      A                      A                      A
 Frequencies --    832.7521               862.0252               887.0840
 Red. masses --      6.0101                 1.4152                 6.3825
 Frc consts  --      2.4556                 0.6196                 2.9592
 IR Inten    --      5.6580                 0.9743                80.2641

                     31                     32                     33
                      A                      A                      A
 Frequencies --    909.0036               953.0079               960.8876
 Red. masses --      1.3565                 1.3483                 1.3725
 Frc consts  --      0.6604                 0.7215                 0.7466
 IR Inten    --      4.6083                 1.9181                 0.0127

                     34                     35                     36
                      A                      A                      A
 Frequencies --    980.2995               999.2205              1034.5151
 Red. masses --      7.1105                 1.3040                 2.0516
 Frc consts  --      4.0260                 0.7671                 1.2936
 IR Inten    --      9.4541                 0.0009                 3.5616

                     37                     38                     39
                      A                      A                      A
 Frequencies --   1045.7681              1091.0202              1124.5441
 Red. masses --      2.1877                 2.8394                 1.8394
 Frc consts  --      1.4097                 1.9913                 1.3705
 IR Inten    --      0.7477                97.8814                21.6460

                     40                     41                     42
                      A                      A                      A
 Frequencies --   1144.4600              1147.7193              1172.6269
 Red. masses --      1.0529                 1.4611                 1.1254
 Frc consts  --      0.8125                 1.1340                 0.9117
 IR Inten    --     66.6404                 9.6113                 6.5891

                     43                     44                     45
                      A                      A                      A
 Frequencies --   1179.4866              1211.7636              1233.5749
 Red. masses --      1.3694                 2.1915                 1.9603
 Frc consts  --      1.1225                 1.8959                 1.7576
 IR Inten    --     11.3185                 9.5028                82.2093

                     46                     47                     48
                      A                      A                      A
 Frequencies --   1252.7129              1289.0789              1361.1518
 Red. masses --      2.9390                 1.8796                 4.5032
 Frc consts  --      2.7174                 1.8403                 4.9157
 IR Inten    --     66.1732                 4.0207                93.7534

                     49                     50                     51
                      A                      A                      A
 Frequencies --   1376.2880              1404.8580              1432.5696
 Red. masses --      2.5000                 2.8291                 2.3639
 Frc consts  --      2.7901                 3.2898                 2.8583
 IR Inten    --    105.3848                31.1724                82.5298

                     52                     53                     54
                      A                      A                      A
 Frequencies --   1454.1605              1482.9279              1531.4739
 Red. masses --      3.8728                 2.7603                 4.3555
 Frc consts  --      4.8250                 3.5765                 6.0187
 IR Inten    --    119.9867               178.2075               194.8690

                     55                     56                     57
                      A                      A                      A
 Frequencies --   1548.1702              1555.0781              1589.9083
 Red. masses --      3.7274                 4.1060                 7.1258
 Frc consts  --      5.2637                 5.8502                10.6127
 IR Inten    --     32.1987                73.7096               194.3139

                     58                     59                     60
                      A                      A                      A
 Frequencies --   1609.9402              1643.8875              1688.5067
 Red. masses --      6.1303                 5.9946                 2.2027
 Frc consts  --      9.3617                 9.5445                 3.7001
 IR Inten    --    618.5473               489.3617               820.2533

                     61                     62                     63
                      A                      A                      A
 Frequencies --   1795.4018              3204.8007              3213.7829
 Red. masses --      1.1633                 1.0862                 1.0862
 Frc consts  --      2.2093                 6.5729                 6.6096
 IR Inten    --    144.8075                 7.8458                 4.5955

                     64                     65                     66
                      A                      A                      A
 Frequencies --   3214.4198              3222.9513              3225.2218
 Red. masses --      1.0901                 1.0886                 1.0950
 Frc consts  --      6.6361                 6.6626                 6.7107
 IR Inten    --      1.7635                18.0524                11.6865

                     67                     68                     69
                      A                      A                      A
 Frequencies --   3231.6831              3233.6891              3239.6650
 Red. masses --      1.0946                 1.0994                 1.0983
 Frc consts  --      6.7357                 6.7736                 6.7917
 IR Inten    --      7.6882                35.5777                22.5129

 - Thermochemistry -
 -------------------
 Temperature   298.150 Kelvin.  Pressure   1.00000 Atm.
 Atom     1 has atomic number  6 and mass  12.00000

 Molecular mass:   227.04049 amu.
 Principal axes and moments of inertia in atomic units:
                           1         2         3
     Eigenvalues --  1271.156506284.053637555.21012
           X           -0.70531   0.70890  -0.00000
           Y            0.70890   0.70531  -0.00002
           Z            0.00001   0.00001   1.00000
 This molecule is an asymmetric top.
 Rotational symmetry number  1.
 Warning -- assumption of classical behavior for rotation
           may cause significant error
 Rotational temperatures (Kelvin)      0.06814     0.01378     0.01146
 Rotational constants (GHZ):           1.41976     0.28719     0.23887
    1 imaginary frequencies ignored.
 Zero-point vibrational energy     482709.3 (Joules/Mol)
                                  115.37029 (Kcal/Mol)
 Warning -- explicit consideration of  18 degrees of freedom as
           vibrations may cause significant error
 Vibrational temperatures:     41.61    72.03   160.54   250.91   321.50
          (Kelvin)            348.28   395.41   396.08   545.64   603.95
                              635.25   680.97   689.20   725.27   730.20
                              773.73   804.54   826.62   920.85  1022.67
                             1047.60  1064.79  1065.48  1070.25  1105.66
                             1154.21  1198.14  1240.26  1276.32  1307.85
                             1371.17  1382.50  1410.43  1437.66  1488.44
                             1504.63  1569.73  1617.97  1646.62  1651.31
                             1687.15  1697.02  1743.46  1774.84  1802.37
                             1854.70  1958.39  1980.17  2021.28  2061.15
                             2092.21  2133.60  2203.45  2227.47  2237.41
                             2287.52  2316.34  2365.19  2429.38  2583.18
                             4610.99  4623.92  4624.83  4637.11  4640.37
                             4649.67  4652.56  4661.16

 Zero-point correction=                           0.183854 (Hartree/Particle)
 Thermal correction to Energy=                    0.195539
 Thermal correction to Enthalpy=                  0.196483
 Thermal correction to Gibbs Free Energy=         0.144745
 Sum of electronic and zero-point Energies=          -1028.499605
 Sum of electronic and thermal Energies=             -1028.487920
 Sum of electronic and thermal Enthalpies=           -1028.486976
 Sum of electronic and thermal Free Energies=        -1028.538714

                     E (Thermal)             CV                S
                      KCal/Mol        Cal/Mol-Kelvin    Cal/Mol-Kelvin
 Total                  122.703             47.322            108.891
 Electronic               0.000              0.000              0.000
 Translational            0.889              2.981             42.162
 Rotational               0.889              2.981             32.468
 Vibrational            120.925             41.360             34.262
 Vibration     1          0.593              1.984              5.902
 Vibration     2          0.595              1.978              4.815
 Vibration     3          0.607              1.940              3.241
 Vibration     4          0.627              1.874              2.388
 Vibration     5          0.649              1.805              1.931
 Vibration     6          0.658              1.776              1.788
 Vibration     7          0.677              1.720              1.566
 Vibration     8          0.677              1.719              1.563
 Vibration     9          0.749              1.514              1.042
 Vibration    10          0.782              1.427              0.893
 Vibration    11          0.801              1.380              0.822
 Vibration    12          0.830              1.309              0.728
 Vibration    13          0.835              1.297              0.713
 Vibration    14          0.859              1.241              0.648
 Vibration    15          0.863              1.233              0.640
 Vibration    16          0.893              1.167              0.570
 Vibration    17          0.915              1.120              0.525
 Vibration    18          0.931              1.086              0.496

 Optimization completed.
    -- Stationary point found.
 Normal termination of Gaussian 16 at Tue Jul 14 17:11:04 2020.
