 Gaussian 16, Revision C.01,
 Gaussian 16:  ES64L-G16RevC.01  3-Jul-2019

 ----------------------------------------------------------------------
 #p opt=addgic freq td wb97xd/cc-pvdz nosymm int=ultrafine scrf=(solven
 t=CarbonTetraChloride)
 ----------------------------------------------------------------------

 ------------------------------------------------
 NM 2D-scan of HBT TD-WB97XD pVDZ in CTC Relaxed.
 ------------------------------------------------
 Symbolic Z-matrix:
 Charge =  0 Multiplicity = 1

 SCF Done:  E(RwB97XD) =  -1028.49322946     A.U. after   16 cycles
 Total Energy, E(TD-HF/TD-DFT) =  -1028.38878731
 SCF Done:  E(RwB97XD) =  -1028.70610401     A.U. after   14 cycles
 Total Energy, E(TD-HF/TD-DFT) =  -1028.60442155
 SCF Done:  E(RwB97XD) =  -1028.77061365     A.U. after   15 cycles
 Total Energy, E(TD-HF/TD-DFT) =  -1028.67414106
 SCF Done:  E(RwB97XD) =  -1028.78295233     A.U. after   14 cycles
 Total Energy, E(TD-HF/TD-DFT) =  -1028.68531683
 SCF Done:  E(RwB97XD) =  -1028.78458658     A.U. after   12 cycles
 Total Energy, E(TD-HF/TD-DFT) =  -1028.68606560
 SCF Done:  E(RwB97XD) =  -1028.78536419     A.U. after   12 cycles
 Total Energy, E(TD-HF/TD-DFT) =  -1028.68617402
 SCF Done:  E(RwB97XD) =  -1028.78520781     A.U. after   10 cycles
 Total Energy, E(TD-HF/TD-DFT) =  -1028.68618779
 SCF Done:  E(RwB97XD) =  -1028.78522853     A.U. after   10 cycles
 Total Energy, E(TD-HF/TD-DFT) =  -1028.68618932
 SCF Done:  E(RwB97XD) =  -1028.78523325     A.U. after   10 cycles
 Total Energy, E(TD-HF/TD-DFT) =  -1028.68618972
 SCF Done:  E(RwB97XD) =  -1028.74325454     A.U. after   15 cycles
 Total Energy, E(TD-HF/TD-DFT) =  -1028.65109042
 Total Energy, E(TD-HF/TD-DFT) =  -1028.68854598
 Total Energy, E(TD-HF/TD-DFT) =  -1028.68923177
 Total Energy, E(TD-HF/TD-DFT) =  -1028.69326707
 Total Energy, E(TD-HF/TD-DFT) =  -1028.69482000
 Total Energy, E(TD-HF/TD-DFT) =  -1028.69610727
 Total Energy, E(TD-HF/TD-DFT) =  -1028.69680267
 Total Energy, E(TD-HF/TD-DFT) =  -1028.69730423
 Total Energy, E(TD-HF/TD-DFT) =  -1028.69792190
 Total Energy, E(TD-HF/TD-DFT) =  -1028.69836653
 Total Energy, E(TD-HF/TD-DFT) =  -1028.69837847
 Total Energy, E(TD-HF/TD-DFT) =  -1028.69847043
 Total Energy, E(TD-HF/TD-DFT) =  -1028.69854326
 Total Energy, E(TD-HF/TD-DFT) =  -1028.69857235
 Total Energy, E(TD-HF/TD-DFT) =  -1028.69870224
 Total Energy, E(TD-HF/TD-DFT) =  -1028.69856441
 Total Energy, E(TD-HF/TD-DFT) =  -1028.69891517
 Total Energy, E(TD-HF/TD-DFT) =  -1028.69922449
 Total Energy, E(TD-HF/TD-DFT) =  -1028.69953869
 SCF Done:  E(RwB97XD) =  -1028.73731211     A.U. after   17 cycles
 Total Energy, E(TD-HF/TD-DFT) =  -1028.70049375
 SCF Done:  E(RwB97XD) =  -1028.72943802     A.U. after   19 cycles
 Total Energy, E(TD-HF/TD-DFT) =  -1028.69863651
 SCF Done:  E(RwB97XD) =  -1028.74173627     A.U. after   17 cycles
 Total Energy, E(TD-HF/TD-DFT) =  -1028.70025500
 SCF Done:  E(RwB97XD) =  -1028.73986696     A.U. after   14 cycles
 Total Energy, E(TD-HF/TD-DFT) =  -1028.70095526
 SCF Done:  E(RwB97XD) =  -1028.73897410     A.U. after   16 cycles
 Total Energy, E(TD-HF/TD-DFT) =  -1028.70101767
 SCF Done:  E(RwB97XD) =  -1028.73807830     A.U. after   14 cycles
 Total Energy, E(TD-HF/TD-DFT) =  -1028.70103694
 SCF Done:  E(RwB97XD) =  -1028.73754845     A.U. after   14 cycles
 Total Energy, E(TD-HF/TD-DFT) =  -1028.70104113
 SCF Done:  E(RwB97XD) =  -1028.73731259     A.U. after   13 cycles
 Total Energy, E(TD-HF/TD-DFT) =  -1028.70104384
 SCF Done:  E(RwB97XD) =  -1028.73721145     A.U. after   13 cycles
 Total Energy, E(TD-HF/TD-DFT) =  -1028.70104442
 Optimization completed.
    -- Stationary point found.
 Normal termination of Gaussian 16 at Tue Jul 14 00:54:23 2020.

 ----------------------------------------------------------------------
 #P Geom=AllCheck Guess=TCheck SCRF=Check GenChk RwB97XD TD(FC,Read)/CC
 -pVDZ Freq
 ----------------------------------------------------------------------

 Structure from the checkpoint file:  "config_12_12.chk"
 ------------------------------------------------
 NM 2D-scan of HBT TD-WB97XD pVDZ in CTC Relaxed.
 ------------------------------------------------
 Charge =  0 Multiplicity = 1

                          Input orientation:
 ---------------------------------------------------------------------
 Center     Atomic      Atomic             Coordinates (Angstroms)
 Number     Number       Type             X           Y           Z
 ---------------------------------------------------------------------
      1          6           0        1.824032   -3.159782    0.747380
      2          6           0        1.070587   -2.007995    0.538158
      3          6           0        1.562795   -0.969448   -0.272633
      4          6           0        2.804534   -1.082017   -0.896230
      5          6           0        3.557223   -2.232681   -0.679110
      6          6           0        3.075079   -3.262905    0.132997
      7          1           0        1.457629   -3.955340    1.397565
      8          1           0        3.179659   -0.269199   -1.519680
      9          1           0        4.539430   -2.324574   -1.144911
     10          1           0        3.683099   -4.152487    0.301474
     11          7           0        0.719432    0.124625   -0.325817
     12         16           0       -0.506456   -1.572293    1.235966
     13          6           0       -1.363893    1.072790    0.412245
     14          6           0       -2.348287    0.921469   -0.571170
     15          6           0       -1.211773    2.369145    1.073660
     16          6           0       -3.228308    1.951071   -0.865311
     17          1           0       -2.431284   -0.033254   -1.093569
     18          6           0       -2.160660    3.410804    0.737825
     19          6           0       -3.113626    3.211530   -0.219976
     20          1           0       -4.022125    1.794373   -1.597100
     21          1           0       -2.041044    4.367667    1.247415
     22          1           0       -3.798235    4.015873   -0.494310
     23          6           0       -0.302414    0.078441    0.626639
     24          8           0       -0.213376    2.621899    1.784924
     25          1           0        1.051097    1.062930   -0.556348
 ---------------------------------------------------------------------

 SCF Done:  E(RwB97XD) =  -1028.73721145     A.U. after    1 cycles

 Excitation energies and oscillator strengths:

 Excited state symmetry could not be determined.
 Excited State   1:      Singlet-?Sym    0.9842 eV 1259.80 nm  f=0.0042  <S**2>=0.000
      57 -> 60        -0.11889
      59 -> 60         0.68695
 This state for optimization and/or second-order correction.
 Total Energy, E(TD-HF/TD-DFT) =  -1028.70104443
 Copying the excited state density for this state as the 1-particle RhoCI density.

 Excited state symmetry could not be determined.
 Excited State   2:      Singlet-?Sym    2.1476 eV  577.33 nm  f=0.0020  <S**2>=0.000
      58 -> 60         0.69767

 Excited state symmetry could not be determined.
 Excited State   3:      Singlet-?Sym    3.4798 eV  356.29 nm  f=0.0089  <S**2>=0.000
      57 -> 60         0.67303
      59 -> 60         0.13191

 Alpha  occ. eigenvalues --  -89.13425 -19.16327 -14.56626 -10.45403 -10.39253
 Alpha  occ. eigenvalues --  -10.38262 -10.34995 -10.34698 -10.34197 -10.34063
 Alpha  occ. eigenvalues --  -10.32566 -10.29559 -10.28347 -10.28154 -10.26505
 Alpha  occ. eigenvalues --  -10.25748  -8.15232  -6.10071  -6.09718  -6.09333
 Alpha  occ. eigenvalues --   -1.14454  -1.05738  -1.00198  -0.96112  -0.92382
 Alpha  occ. eigenvalues --   -0.89422  -0.87895  -0.83337  -0.79309  -0.76226
 Alpha  occ. eigenvalues --   -0.74904  -0.73178  -0.68524  -0.66407  -0.65183
 Alpha  occ. eigenvalues --   -0.61629  -0.59686  -0.58008  -0.57159  -0.56183
 Alpha  occ. eigenvalues --   -0.55411  -0.52694  -0.52000  -0.50920  -0.49031
 Alpha  occ. eigenvalues --   -0.48622  -0.47214  -0.46304  -0.45668  -0.44877
 Alpha  occ. eigenvalues --   -0.43630  -0.42076  -0.40844  -0.37540  -0.35640
 Alpha  occ. eigenvalues --   -0.35325  -0.31659  -0.27478  -0.22989
 Alpha virt. eigenvalues --   -0.04574   0.02068   0.03435   0.04620   0.07167
 Alpha virt. eigenvalues --    0.11889   0.12281   0.13372   0.15400   0.16647
 Alpha virt. eigenvalues --    0.16818   0.19412   0.19742   0.20073   0.21225

 Mulliken charges:
               1
     1  C    0.029094
     2  C   -0.231294
     3  C    0.230815
     4  C    0.009195
     5  C    0.017591
     6  C    0.010709
     7  H    0.037493
     8  H    0.039287
     9  H    0.037629
    10  H    0.037595
    11  N   -0.087097
    12  S    0.314199
    13  C   -0.212999
    14  C    0.045443
    15  C    0.075192
    16  C   -0.070556
    17  H   -0.021501
    18  C   -0.055553
    19  C    0.018333
    20  H   -0.015294
    21  H   -0.016599
    22  H   -0.004443
    23  C    0.033977
    24  O   -0.397932
    25  H    0.176717
 Sum of Mulliken charges =  -0.00000

 Dipole moment (field-independent basis, Debye):
    X=              6.2155    Y=             -9.4754    Z=             -3.6999  Tot=             11.9208
 Quadrupole moment (field-independent basis, Debye-Ang):
   XX=            -89.0285   YY=            -99.4052   ZZ=           -104.7128
   XY=             -3.0974   XZ=             -3.3207   YZ=            -15.0695

  Exact polarizability:     183.214     -21.207     158.410       0.540      -9.489     125.035
 Approx polarizability:     211.597     -37.646     222.745      -0.877      -9.169     150.839

                      1                      2                      3
                      A                      A                      A
 Frequencies --     29.9514                63.3365                72.9369
 Red. masses --      6.2998                 5.7728                 6.0372
 Frc consts  --      0.0033                 0.0136                 0.0189
 IR Inten    --      3.1610                 8.9606                 2.9276

                      4                      5                      6
                      A                      A                      A
 Frequencies --    140.9588               174.3694               210.1193
 Red. masses --      7.4787                 4.5513                 4.5031
 Frc consts  --      0.0876                 0.0815                 0.1171
 IR Inten    --      5.7807                 1.8829                29.2732

                      7                      8                      9
                      A                      A                      A
 Frequencies --    234.8765               276.5126               284.9518
 Red. masses --      8.2155                 5.3839                 5.0577
 Frc consts  --      0.2670                 0.2425                 0.2420
 IR Inten    --      2.7957                 1.5488                 6.0027

                     10                     11                     12
                      A                      A                      A
 Frequencies --    373.4706               433.9628               454.3968
 Red. masses --      5.9251                 3.0414                 2.2232
 Frc consts  --      0.4869                 0.3375                 0.2705
 IR Inten    --      4.0928                 2.8123                62.5522

                     13                     14                     15
                      A                      A                      A
 Frequencies --    481.2191               494.4244               514.7799
 Red. masses --      3.7895                 5.0057                 5.3104
 Frc consts  --      0.5170                 0.7210                 0.8291
 IR Inten    --     13.0053                12.2693                 3.1774

                     16                     17                     18
                      A                      A                      A
 Frequencies --    530.1717               555.5746               575.2119
 Red. masses --      4.2384                 3.3982                 5.2984
 Frc consts  --      0.7019                 0.6180                 1.0329
 IR Inten    --     23.1827                33.2081                37.2934

                     19                     20                     21
                      A                      A                      A
 Frequencies --    583.7120               607.8652               658.0358
 Red. masses --      4.3390                 3.9527                 4.7152
 Frc consts  --      0.8710                 0.8605                 1.2029
 IR Inten    --     83.1231                56.3000                12.8271

                     22                     23                     24
                      A                      A                      A
 Frequencies --    703.8516               716.4457               745.3608
 Red. masses --      5.0979                 6.4477                 2.7337
 Frc consts  --      1.4880                 1.9499                 0.8948
 IR Inten    --     33.9883                42.4348                11.5264

                     25                     26                     27
                      A                      A                      A
 Frequencies --    764.3870               773.8489               832.4579
 Red. masses --      1.5801                 2.1295                 5.4489
 Frc consts  --      0.5440                 0.7514                 2.2248
 IR Inten    --     68.7049                73.7899                 1.4696

                     28                     29                     30
                      A                      A                      A
 Frequencies --    870.3730               875.0638               884.8805
 Red. masses --      1.4417                 2.3184                 3.2792
 Frc consts  --      0.6435                 1.0459                 1.5128
 IR Inten    --     65.3457               329.8569               115.8347

                     31                     32                     33
                      A                      A                      A
 Frequencies --    905.6202               956.9127               971.3179
 Red. masses --      1.7115                 1.3687                 5.3339
 Frc consts  --      0.8270                 0.7384                 2.9650
 IR Inten    --     85.7009                 3.1291                 9.5789

                     34                     35                     36
                      A                      A                      A
 Frequencies --   1002.0768              1002.5325              1030.9689
 Red. masses --      1.3309                 1.4068                 1.3645
 Frc consts  --      0.7874                 0.8331                 0.8545
 IR Inten    --      8.4875                32.5684                23.3119

                     37                     38                     39
                      A                      A                      A
 Frequencies --   1040.4819              1057.5601              1088.9540
 Red. masses --      2.0217                 2.1594                 3.9840
 Frc consts  --      1.2896                 1.4230                 2.7835
 IR Inten    --     15.9997                 9.6315                18.8104

                     40                     41                     42
                      A                      A                      A
 Frequencies --   1143.7778              1154.5803              1171.6527
 Red. masses --      1.5761                 1.4083                 1.1620
 Frc consts  --      1.2149                 1.1061                 0.9399
 IR Inten    --     29.1128                22.0510                47.6095

                     43                     44                     45
                      A                      A                      A
 Frequencies --   1177.0360              1217.3857              1265.9302
 Red. masses --      1.1243                 2.1296                 2.4453
 Frc consts  --      0.9177                 1.8595                 2.3089
 IR Inten    --      1.3104                21.1232                43.3278

                     46                     47                     48
                      A                      A                      A
 Frequencies --   1289.0781              1306.0284              1318.6429
 Red. masses --      1.7503                 2.2484                 3.4288
 Frc consts  --      1.7136                 2.2596                 3.5127
 IR Inten    --     27.0312                17.1373               216.5923

                     49                     50                     51
                      A                      A                      A
 Frequencies --   1341.7202              1391.7066              1424.5188
 Red. masses --      4.0938                 2.5237                 2.1035
 Frc consts  --      4.3421                 2.8799                 2.5149
 IR Inten    --    110.6933               105.7424                19.8881

                     52                     53                     54
                      A                      A                      A
 Frequencies --   1454.1198              1511.1353              1519.9851
 Red. masses --      2.0102                 2.6688                 3.7036
 Frc consts  --      2.5043                 3.5907                 5.0415
 IR Inten    --     96.4195                11.1460               499.8436

                     55                     56                     57
                      A                      A                      A
 Frequencies --   1539.6600              1564.6396              1589.7623
 Red. masses --      4.8423                 4.8472                 7.3332
 Frc consts  --      6.7632                 6.9915                10.9197
 IR Inten    --     49.0759               204.0604                93.5800

                     58                     59                     60
                      A                      A                      A
 Frequencies --   1658.8229              1661.9012              1681.2229
 Red. masses --      5.7187                 6.5876                 6.7279
 Frc consts  --      9.2715                10.7199                11.2041
 IR Inten    --     83.2645                10.2990                11.7332

                     61                     62                     63
                      A                      A                      A
 Frequencies --   3209.1037              3209.5571              3216.0836
 Red. masses --      1.0865                 1.0857                 1.0901
 Frc consts  --      6.5928                 6.5897                 6.6432
 IR Inten    --      3.5575                 0.6834                 9.6664

                     64                     65                     66
                      A                      A                      A
 Frequencies --   3216.6807              3225.8809              3229.9025
 Red. masses --      1.0902                 1.0954                 1.0950
 Frc consts  --      6.6463                 6.7161                 6.7306
 IR Inten    --      3.5712                13.5568                11.2852

                     67                     68                     69
                      A                      A                      A
 Frequencies --   3236.8241              3238.2125              3550.8915
 Red. masses --      1.0997                 1.0999                 1.0792
 Frc consts  --      6.7882                 6.7953                 8.0173
 IR Inten    --     15.5689                 4.6169               119.7899

 - Thermochemistry -
 -------------------
 Temperature   298.150 Kelvin.  Pressure   1.00000 Atm.
 Atom     1 has atomic number  6 and mass  12.00000

 Molecular mass:   227.04049 amu.
 Principal axes and moments of inertia in atomic units:
                           1         2         3
     Eigenvalues --  1369.058396893.122147167.57075
           X           -0.68449   0.70513   0.18514
           Y            0.72829   0.67281   0.13007
           Z            0.03285  -0.22387   0.97407
 This molecule is an asymmetric top.
 Rotational symmetry number  1.
 Warning -- assumption of classical behavior for rotation
           may cause significant error
 Rotational temperatures (Kelvin)      0.06327     0.01257     0.01208
 Rotational constants (GHZ):           1.31824     0.26182     0.25179
 Zero-point vibrational energy     494598.3 (Joules/Mol)
                                  118.21183 (Kcal/Mol)
 Warning -- explicit consideration of  20 degrees of freedom as
           vibrations may cause significant error
 Vibrational temperatures:     43.09    91.13   104.94   202.81   250.88
          (Kelvin)            302.31   337.93   397.84   409.98   537.34
                              624.38   653.78   692.37   711.37   740.65
                              762.80   799.35   827.60   839.83   874.58
                              946.77  1012.69  1030.81  1072.41  1099.78
                             1113.40  1197.72  1252.27  1259.02  1273.15
                             1302.99  1376.78  1397.51  1441.77  1442.42
                             1483.33  1497.02  1521.59  1566.76  1645.64
                             1661.18  1685.75  1693.49  1751.55  1821.39
                             1854.70  1879.08  1897.23  1930.44  2002.36
                             2049.56  2092.15  2174.19  2186.92  2215.23
                             2251.17  2287.31  2386.68  2391.11  2418.90
                             4617.18  4617.84  4627.23  4628.09  4641.32
                             4647.11  4657.07  4659.07  5108.94

 Zero-point correction=                           0.188383 (Hartree/Particle)
 Thermal correction to Energy=                    0.200727
 Thermal correction to Enthalpy=                  0.201671
 Thermal correction to Gibbs Free Energy=         0.148465
 Sum of electronic and zero-point Energies=          -1028.512662
 Sum of electronic and thermal Energies=             -1028.500318
 Sum of electronic and thermal Enthalpies=           -1028.499374
 Sum of electronic and thermal Free Energies=        -1028.552580

                     E (Thermal)             CV                S
                      KCal/Mol        Cal/Mol-Kelvin    Cal/Mol-Kelvin
 Total                  125.958             49.060            111.981
 Electronic               0.000              0.000              0.000
 Translational            0.889              2.981             42.162
 Rotational               0.889              2.981             32.581
 Vibrational            124.180             43.099             37.238
 Vibration     1          0.594              1.984              5.833
 Vibration     2          0.597              1.972              4.350
 Vibration     3          0.599              1.967              4.072
 Vibration     4          0.615              1.912              2.791
 Vibration     5          0.627              1.874              2.388
 Vibration     6          0.642              1.825              2.043
 Vibration     7          0.655              1.787              1.841
 Vibration     8          0.678              1.717              1.555
 Vibration     9          0.683              1.702              1.504
 Vibration    10          0.745              1.527              1.066
 Vibration    11          0.795              1.396              0.846
 Vibration    12          0.813              1.351              0.783
 Vibration    13          0.838              1.292              0.707
 Vibration    14          0.850              1.262              0.672
 Vibration    15          0.870              1.217              0.622
 Vibration    16          0.885              1.183              0.587
 Vibration    17          0.911              1.128              0.533
 Vibration    18          0.932              1.085              0.494
 Vibration    19          0.941              1.067              0.479
 Vibration    20          0.967              1.015              0.436

 Optimization completed.
    -- Stationary point found.
 Normal termination of Gaussian 16 at Tue Jul 14 01:11:49 2020.
