 Gaussian 16, Revision C.01,
 Gaussian 16:  ES64L-G16RevC.01  3-Jul-2019

 ----------------------------------------------------------------------
 #p opt=addgic freq td wb97xd/cc-pvdz nosymm int=ultrafine scrf=(solven
 t=CarbonTetraChloride)
 ----------------------------------------------------------------------

 ------------------------------------------------
 NM 2D-scan of HBT TD-WB97XD pVDZ in CTC Relaxed.
 ------------------------------------------------
 Symbolic Z-matrix:
 Charge =  0 Multiplicity = 1

 SCF Done:  E(RwB97XD) =  -1028.71467695     A.U. after   16 cycles
 Total Energy, E(TD-HF/TD-DFT) =  -1028.60883145
 SCF Done:  E(RwB97XD) =  -1028.77932682     A.U. after   14 cycles
 Total Energy, E(TD-HF/TD-DFT) =  -1028.67759530
 SCF Done:  E(RwB97XD) =  -1028.79604459     A.U. after   13 cycles
 Total Energy, E(TD-HF/TD-DFT) =  -1028.69499518
 SCF Done:  E(RwB97XD) =  -1028.79870120     A.U. after   13 cycles
 Total Energy, E(TD-HF/TD-DFT) =  -1028.69698926
 SCF Done:  E(RwB97XD) =  -1028.79859255     A.U. after   11 cycles
 Total Energy, E(TD-HF/TD-DFT) =  -1028.69707629
 SCF Done:  E(RwB97XD) =  -1028.79851867     A.U. after   10 cycles
 Total Energy, E(TD-HF/TD-DFT) =  -1028.69708894
 SCF Done:  E(RwB97XD) =  -1028.79848438     A.U. after    9 cycles
 Total Energy, E(TD-HF/TD-DFT) =  -1028.69708992
 Optimization completed.
    -- Stationary point found.
 Normal termination of Gaussian 16 at Tue Jul 14 16:43:19 2020.

 ----------------------------------------------------------------------
 #P Geom=AllCheck Guess=TCheck SCRF=Check GenChk RwB97XD TD(FC,Read)/CC
 -pVDZ Freq
 ----------------------------------------------------------------------

 Structure from the checkpoint file:  "config_10_19.chk"
 ------------------------------------------------
 NM 2D-scan of HBT TD-WB97XD pVDZ in CTC Relaxed.
 ------------------------------------------------
 Charge =  0 Multiplicity = 1

                          Input orientation:
 ---------------------------------------------------------------------
 Center     Atomic      Atomic             Coordinates (Angstroms)
 Number     Number       Type             X           Y           Z
 ---------------------------------------------------------------------
      1          6           0        1.533543   -3.290972   -0.000024
      2          6           0        1.005730   -2.006237   -0.000016
      3          6           0        1.823849   -0.864104   -0.000014
      4          6           0        3.219014   -1.009863   -0.000020
      5          6           0        3.743605   -2.300987   -0.000026
      6          6           0        2.918516   -3.433230   -0.000028
      7          1           0        0.876003   -4.160614   -0.000025
      8          1           0        3.870412   -0.135332   -0.000017
      9          1           0        4.827214   -2.428740   -0.000029
     10          1           0        3.360778   -4.429856   -0.000034
     11          7           0        1.071378    0.285610   -0.000008
     12         16           0       -0.687489   -1.560665   -0.000006
     13          6           0       -1.315740    1.134065    0.000017
     14          6           0       -2.653136    0.762728    0.000028
     15          6           0       -0.950775    2.561369    0.000013
     16          6           0       -3.692508    1.730036    0.000032
     17          1           0       -2.933379   -0.293238    0.000032
     18          6           0       -2.039925    3.495150    0.000029
     19          6           0       -3.383808    3.084841    0.000032
     20          1           0       -4.729763    1.392099    0.000039
     21          1           0       -1.777127    4.554805    0.000040
     22          1           0       -4.182527    3.828313    0.000038
     23          6           0       -0.286476    0.131281    0.000004
     24          8           0        0.263876    2.884456    0.000048
     25          1           0        1.470522    1.213570   -0.000005
 ---------------------------------------------------------------------

 SCF Done:  E(RwB97XD) =  -1028.79848438     A.U. after    1 cycles

 Excitation energies and oscillator strengths:

 Excited state symmetry could not be determined.
 Excited State   1:      Singlet-?Sym    2.7591 eV  449.37 nm  f=0.4439  <S**2>=0.000
      59 -> 60         0.69779
 This state for optimization and/or second-order correction.
 Total Energy, E(TD-HF/TD-DFT) =  -1028.69708993
 Copying the excited state density for this state as the 1-particle RhoCI density.

 Excited state symmetry could not be determined.
 Excited State   2:      Singlet-?Sym    3.3897 eV  365.77 nm  f=0.0000  <S**2>=0.000
      58 -> 60         0.68371
      58 -> 62         0.11551
      58 -> 64         0.10644

 Excited state symmetry could not be determined.
 Excited State   3:      Singlet-?Sym    4.2547 eV  291.40 nm  f=0.3687  <S**2>=0.000
      57 -> 60         0.68470

 Alpha  occ. eigenvalues --  -89.10255 -19.20262 -14.53433 -10.42343 -10.37784
 Alpha  occ. eigenvalues --  -10.36146 -10.35348 -10.33431 -10.33366 -10.32793
 Alpha  occ. eigenvalues --  -10.32522 -10.31358 -10.30749 -10.30673 -10.29086
 Alpha  occ. eigenvalues --  -10.28232  -8.12337  -6.07207  -6.06825  -6.06357
 Alpha  occ. eigenvalues --   -1.13072  -1.08725  -0.98635  -0.95836  -0.93300
 Alpha  occ. eigenvalues --   -0.89057  -0.86970  -0.83791  -0.80950  -0.75832
 Alpha  occ. eigenvalues --   -0.74078  -0.72288  -0.69127  -0.67594  -0.65185
 Alpha  occ. eigenvalues --   -0.61086  -0.59725  -0.56571  -0.56168  -0.56051
 Alpha  occ. eigenvalues --   -0.55111  -0.53900  -0.53054  -0.50271  -0.48667
 Alpha  occ. eigenvalues --   -0.48651  -0.48407  -0.47079  -0.45604  -0.44904
 Alpha  occ. eigenvalues --   -0.43983  -0.42796  -0.42315  -0.39838  -0.36894
 Alpha  occ. eigenvalues --   -0.33800  -0.31459  -0.30829  -0.25489
 Alpha virt. eigenvalues --   -0.02176   0.03600   0.05483   0.06824   0.09614
 Alpha virt. eigenvalues --    0.10902   0.13906   0.14707   0.16097   0.16993
 Alpha virt. eigenvalues --    0.17817   0.19786   0.20645   0.21184   0.22497

 Mulliken charges:
               1
     1  C    0.021084
     2  C   -0.233907
     3  C    0.229433
     4  C   -0.010559
     5  C    0.010423
     6  C    0.004430
     7  H    0.025239
     8  H    0.031246
     9  H    0.028660
    10  H    0.027562
    11  N   -0.122391
    12  S    0.199195
    13  C   -0.062601
    14  C   -0.042682
    15  C    0.097676
    16  C   -0.034548
    17  H    0.014202
    18  C   -0.046859
    19  C    0.034417
    20  H    0.000698
    21  H   -0.000099
    22  H    0.014058
    23  C    0.073588
    24  O   -0.388438
    25  H    0.130174
 Sum of Mulliken charges =  -0.00000

 Dipole moment (field-independent basis, Debye):
    X=              2.4311    Y=             -6.2317    Z=             -0.0001  Tot=              6.6892
 Quadrupole moment (field-independent basis, Debye-Ang):
   XX=            -81.1772   YY=            -97.8347   ZZ=           -104.1354
   XY=             -5.9106   XZ=             -0.0002   YZ=             -0.0002

  Exact polarizability:     346.270    -119.075     293.551      -0.002       0.002      63.206
 Approx polarizability:     273.949     -37.759     264.294      -0.001       0.001      81.927

 ******    1 imaginary frequencies (negative Signs) ******

                      1                      2                      3
                      A                      A                      A
 Frequencies --    -57.4941                49.8114                67.7728
 Red. masses --      4.9108                 6.1839                 5.7949
 Frc consts  --      0.0096                 0.0090                 0.0157
 IR Inten    --      1.8722                 0.9886                12.8638

                      4                      5                      6
                      A                      A                      A
 Frequencies --    111.4534               181.6900               226.6226
 Red. masses --      5.8380                 5.5746                 5.6014
 Frc consts  --      0.0427                 0.1084                 0.1695
 IR Inten    --      1.3893                 0.0251                 0.4161

                      7                      8                      9
                      A                      A                      A
 Frequencies --    239.8591               274.7401               277.7403
 Red. masses --      8.2432                 4.4555                 7.0462
 Frc consts  --      0.2794                 0.1981                 0.3202
 IR Inten    --      3.3582                 1.1159                 0.8918

                     10                     11                     12
                      A                      A                      A
 Frequencies --    344.9838               383.7837               427.1444
 Red. masses --      4.5031                 7.2609                 3.8660
 Frc consts  --      0.3158                 0.6301                 0.4156
 IR Inten    --      1.2870                 9.3817                 2.7702

                     13                     14                     15
                      A                      A                      A
 Frequencies --    446.7771               504.3394               514.0063
 Red. masses --      3.9258                 8.1081                 3.2299
 Frc consts  --      0.4617                 1.2151                 0.5028
 IR Inten    --      5.7487                18.9095                 0.1865

                     16                     17                     18
                      A                      A                      A
 Frequencies --    529.4337               543.8282               559.7541
 Red. masses --      5.8715                 8.6847                 3.7898
 Frc consts  --      0.9697                 1.5133                 0.6996
 IR Inten    --     31.7578                13.8937                 1.2500

                     19                     20                     21
                      A                      A                      A
 Frequencies --    566.9747               632.5934               644.2967
 Red. masses --      7.2472                 6.0783                 1.0901
 Frc consts  --      1.3726                 1.4331                 0.2666
 IR Inten    --      9.0194                19.5174                80.8148

                     22                     23                     24
                      A                      A                      A
 Frequencies --    694.3990               716.8385               737.2709
 Red. masses --      1.4693                 5.5587                 7.6464
 Frc consts  --      0.4174                 1.6829                 2.4489
 IR Inten    --     25.0886                 2.0212                 5.3305

                     25                     26                     27
                      A                      A                      A
 Frequencies --    746.6247               756.1227               766.7789
 Red. masses --      2.4901                 1.6754                 1.6853
 Frc consts  --      0.8178                 0.5644                 0.5838
 IR Inten    --     26.7248                12.6630                74.7170

                     28                     29                     30
                      A                      A                      A
 Frequencies --    823.2666               832.8803               868.1913
 Red. masses --      5.9643                 2.0899                 4.2810
 Frc consts  --      2.3817                 0.8541                 1.9012
 IR Inten    --     16.3770                 1.6649                 1.4577

                     31                     32                     33
                      A                      A                      A
 Frequencies --    869.7183               897.7434               951.5181
 Red. masses --      1.3749                 1.4578                 1.3585
 Frc consts  --      0.6127                 0.6922                 0.7247
 IR Inten    --      0.8352                 8.8354                 0.3100

                     34                     35                     36
                      A                      A                      A
 Frequencies --    953.2468               958.4832              1003.9911
 Red. masses --      4.4004                 1.3531                 1.2982
 Frc consts  --      2.3559                 0.7324                 0.7710
 IR Inten    --      0.7922                 1.6639                 0.0059

                     37                     38                     39
                      A                      A                      A
 Frequencies --   1043.8139              1055.5756              1093.0990
 Red. masses --      2.0587                 2.1230                 3.5438
 Frc consts  --      1.3215                 1.3937                 2.4948
 IR Inten    --      2.1279                 6.2365                 5.7869

                     40                     41                     42
                      A                      A                      A
 Frequencies --   1100.9524              1141.2498              1157.7524
 Red. masses --      1.6808                 1.4506                 1.3734
 Frc consts  --      1.2003                 1.1131                 1.0846
 IR Inten    --     50.6418                92.0333                 1.9402

                     43                     44                     45
                      A                      A                      A
 Frequencies --   1164.1132              1181.1484              1230.7599
 Red. masses --      1.2685                 1.1695                 2.2230
 Frc consts  --      1.0128                 0.9613                 1.9839
 IR Inten    --      8.8137                 7.6670                16.5608

                     46                     47                     48
                      A                      A                      A
 Frequencies --   1252.3867              1295.4502              1335.7835
 Red. masses --      2.7214                 1.7351                 4.2294
 Frc consts  --      2.5149                 1.7156                 4.4463
 IR Inten    --     28.3817                 0.2176                 0.9466

                     49                     50                     51
                      A                      A                      A
 Frequencies --   1360.0063              1392.7433              1401.3719
 Red. masses --      3.3109                 4.0791                 2.6976
 Frc consts  --      3.6080                 4.6618                 3.1213
 IR Inten    --    110.6352                56.8312                21.2122

                     52                     53                     54
                      A                      A                      A
 Frequencies --   1433.3634              1474.0386              1509.1871
 Red. masses --      2.8009                 3.4888                 2.9437
 Frc consts  --      3.3905                 4.4662                 3.9503
 IR Inten    --    170.2094                 3.2037                33.4157

                     55                     56                     57
                      A                      A                      A
 Frequencies --   1521.5650              1542.1911              1592.6149
 Red. masses --      3.8067                 4.8592                 5.1318
 Frc consts  --      5.1925                 6.8091                 7.6691
 IR Inten    --     37.5689               207.1706                99.7165

                     58                     59                     60
                      A                      A                      A
 Frequencies --   1619.2229              1658.8422              1667.0661
 Red. masses --      7.8060                 6.9675                 6.9150
 Frc consts  --     12.0585                11.2964                11.3226
 IR Inten    --    155.9327                27.8237               104.3435

                     61                     62                     63
                      A                      A                      A
 Frequencies --   3195.5415              3208.4314              3211.1514
 Red. masses --      1.0885                 1.0866                 1.0863
 Frc consts  --      6.5490                 6.5901                 6.5998
 IR Inten    --     25.6221                 4.4247                 4.0098

                     64                     65                     66
                      A                      A                      A
 Frequencies --   3220.4786              3221.8608              3229.7343
 Red. masses --      1.0919                 1.0900                 1.0959
 Frc consts  --      6.6722                 6.6665                 6.7354
 IR Inten    --     14.2362                 2.2992                 7.1707

                     67                     68                     69
                      A                      A                      A
 Frequencies --   3233.8257              3238.4696              3645.2247
 Red. masses --      1.0988                 1.0996                 1.0816
 Frc consts  --      6.7704                 6.7947                 8.4674
 IR Inten    --     29.0471                12.5686               301.2738

 - Thermochemistry -
 -------------------
 Temperature   298.150 Kelvin.  Pressure   1.00000 Atm.
 Atom     1 has atomic number  6 and mass  12.00000

 Molecular mass:   227.04049 amu.
 Principal axes and moments of inertia in atomic units:
                           1         2         3
     Eigenvalues --  1265.563116509.456687775.01979
           X           -0.70307   0.71112   0.00000
           Y            0.71112   0.70307  -0.00001
           Z            0.00001   0.00000   1.00000
 This molecule is an asymmetric top.
 Rotational symmetry number  1.
 Warning -- assumption of classical behavior for rotation
           may cause significant error
 Rotational temperatures (Kelvin)      0.06844     0.01331     0.01114
 Rotational constants (GHZ):           1.42604     0.27725     0.23212
    1 imaginary frequencies ignored.
 Zero-point vibrational energy     488876.1 (Joules/Mol)
                                  116.84418 (Kcal/Mol)
 Warning -- explicit consideration of  18 degrees of freedom as
           vibrations may cause significant error
 Vibrational temperatures:     71.67    97.51   160.36   261.41   326.06
          (Kelvin)            345.10   395.29   399.61   496.35   552.18
                              614.57   642.81   725.63   739.54   761.74
                              782.45   805.36   815.75   910.16   927.00
                              999.09  1031.37  1060.77  1074.23  1087.89
                             1103.22  1184.50  1198.33  1249.13  1251.33
                             1291.65  1369.02  1371.51  1379.04  1444.52
                             1501.82  1518.74  1572.73  1584.02  1642.00
                             1665.75  1674.90  1699.41  1770.79  1801.91
                             1863.86  1921.89  1956.75  2003.85  2016.26
                             2062.29  2120.81  2171.38  2189.19  2218.87
                             2291.42  2329.70  2386.70  2398.54  4597.67
                             4616.22  4620.13  4633.55  4635.54  4646.87
                             4652.75  4659.44  5244.67

 Zero-point correction=                           0.186203 (Hartree/Particle)
 Thermal correction to Energy=                    0.197992
 Thermal correction to Enthalpy=                  0.198936
 Thermal correction to Gibbs Free Energy=         0.147706
 Sum of electronic and zero-point Energies=          -1028.510887
 Sum of electronic and thermal Energies=             -1028.499098
 Sum of electronic and thermal Enthalpies=           -1028.498154
 Sum of electronic and thermal Free Energies=        -1028.549384

                     E (Thermal)             CV                S
                      KCal/Mol        Cal/Mol-Kelvin    Cal/Mol-Kelvin
 Total                  124.242             48.246            107.822
 Electronic               0.000              0.000              0.000
 Translational            0.889              2.981             42.162
 Rotational               0.889              2.981             32.527
 Vibrational            122.464             42.285             33.133
 Vibration     1          0.595              1.978              4.825
 Vibration     2          0.598              1.970              4.217
 Vibration     3          0.607              1.940              3.243
 Vibration     4          0.630              1.865              2.311
 Vibration     5          0.650              1.800              1.906
 Vibration     6          0.657              1.779              1.804
 Vibration     7          0.677              1.720              1.566
 Vibration     8          0.679              1.715              1.548
 Vibration     9          0.723              1.585              1.189
 Vibration    10          0.753              1.505              1.024
 Vibration    11          0.789              1.411              0.868
 Vibration    12          0.806              1.368              0.806
 Vibration    13          0.860              1.240              0.647
 Vibration    14          0.869              1.219              0.624
 Vibration    15          0.884              1.185              0.588
 Vibration    16          0.899              1.153              0.557
 Vibration    17          0.915              1.118              0.524
 Vibration    18          0.923              1.103              0.510

 Optimization completed.
    -- Stationary point found.
 Normal termination of Gaussian 16 at Tue Jul 14 17:02:39 2020.
