 Gaussian 16, Revision C.01,
 Gaussian 16:  ES64L-G16RevC.01  3-Jul-2019

 ----------------------------------------------------------------------
 #p opt=addgic freq td wb97xd/cc-pvdz nosymm int=ultrafine scrf=(solven
 t=CarbonTetraChloride)
 ----------------------------------------------------------------------

 ------------------------------------------------
 NM 2D-scan of HBT TD-WB97XD pVDZ in CTC Relaxed.
 ------------------------------------------------
 Symbolic Z-matrix:
 Charge =  0 Multiplicity = 1

 SCF Done:  E(RwB97XD) =  -1028.78463952     A.U. after   16 cycles
 Total Energy, E(TD-HF/TD-DFT) =  -1028.67684117
 SCF Done:  E(RwB97XD) =  -1028.79491745     A.U. after   13 cycles
 Total Energy, E(TD-HF/TD-DFT) =  -1028.69313912
 SCF Done:  E(RwB97XD) =  -1028.80239154     A.U. after   13 cycles
 Total Energy, E(TD-HF/TD-DFT) =  -1028.69605718
 SCF Done:  E(RwB97XD) =  -1028.80194092     A.U. after   12 cycles
 Total Energy, E(TD-HF/TD-DFT) =  -1028.69666444
 SCF Done:  E(RwB97XD) =  -1028.80189658     A.U. after    9 cycles
 Total Energy, E(TD-HF/TD-DFT) =  -1028.69667409
 Optimization completed.
    -- Stationary point found.
 Normal termination of Gaussian 16 at Mon Jul 13 16:48:57 2020.

 ----------------------------------------------------------------------
 #P Geom=AllCheck Guess=TCheck SCRF=Check GenChk RwB97XD TD(FC,Read)/CC
 -pVDZ Freq
 ----------------------------------------------------------------------

 Structure from the checkpoint file:  "config_10_4.chk"
 ------------------------------------------------
 NM 2D-scan of HBT TD-WB97XD pVDZ in CTC Relaxed.
 ------------------------------------------------
 Charge =  0 Multiplicity = 1

                          Input orientation:
 ---------------------------------------------------------------------
 Center     Atomic      Atomic             Coordinates (Angstroms)
 Number     Number       Type             X           Y           Z
 ---------------------------------------------------------------------
      1          6           0        1.737044   -3.286321   -0.000010
      2          6           0        1.017556   -2.093780   -0.000011
      3          6           0        1.700913   -0.866320   -0.000023
      4          6           0        3.100616   -0.796679   -0.000031
      5          6           0        3.804933   -1.990905   -0.000030
      6          6           0        3.133869   -3.222039   -0.000021
      7          1           0        1.227643   -4.250370   -0.000002
      8          1           0        3.602052    0.171466   -0.000039
      9          1           0        4.895799   -1.971006   -0.000036
     10          1           0        3.708086   -4.149178   -0.000020
     11          7           0        0.852132    0.185201   -0.000028
     12         16           0       -0.738232   -1.807041    0.000002
     13          6           0       -1.418340    1.044173    0.000001
     14          6           0       -2.799433    0.901093   -0.000023
     15          6           0       -0.859790    2.432024    0.000040
     16          6           0       -3.675543    2.023650    0.000012
     17          1           0       -3.238713   -0.099637   -0.000064
     18          6           0       -1.792170    3.516340    0.000075
     19          6           0       -3.175912    3.322784    0.000065
     20          1           0       -4.752051    1.846295   -0.000001
     21          1           0       -1.354112    4.515992    0.000113
     22          1           0       -3.854279    4.176904    0.000095
     23          6           0       -0.483995   -0.058069   -0.000013
     24          8           0        0.381157    2.653470    0.000045
     25          1           0        1.133603    1.174336   -0.000021
 ---------------------------------------------------------------------

 SCF Done:  E(RwB97XD) =  -1028.80189658     A.U. after    1 cycles

 Excitation energies and oscillator strengths:

 Excited state symmetry could not be determined.
 Excited State   1:      Singlet-?Sym    2.8633 eV  433.02 nm  f=0.4343  <S**2>=0.000
      59 -> 60         0.69608
 This state for optimization and/or second-order correction.
 Total Energy, E(TD-HF/TD-DFT) =  -1028.69667400
 Copying the excited state density for this state as the 1-particle RhoCI density.

 Excited state symmetry could not be determined.
 Excited State   2:      Singlet-?Sym    3.6638 eV  338.41 nm  f=0.0000  <S**2>=0.000
      57 -> 60         0.68356
      57 -> 62         0.11777
      57 -> 64         0.11461

 Excited state symmetry could not be determined.
 Excited State   3:      Singlet-?Sym    4.3378 eV  285.82 nm  f=0.4664  <S**2>=0.000
      58 -> 60         0.68028

 Alpha  occ. eigenvalues --  -89.10803 -19.21215 -14.51877 -10.42342 -10.37191
 Alpha  occ. eigenvalues --  -10.36373 -10.36026 -10.33568 -10.32980 -10.32657
 Alpha  occ. eigenvalues --  -10.32470 -10.31521 -10.31455 -10.30661 -10.29151
 Alpha  occ. eigenvalues --  -10.28272  -8.12711  -6.07599  -6.07218  -6.06727
 Alpha  occ. eigenvalues --   -1.13241  -1.09659  -0.98403  -0.95009  -0.93183
 Alpha  occ. eigenvalues --   -0.89203  -0.86493  -0.84105  -0.80993  -0.76084
 Alpha  occ. eigenvalues --   -0.73363  -0.71775  -0.69072  -0.67573  -0.64920
 Alpha  occ. eigenvalues --   -0.60953  -0.59768  -0.56678  -0.56004  -0.55653
 Alpha  occ. eigenvalues --   -0.54967  -0.53607  -0.53073  -0.50888  -0.49092
 Alpha  occ. eigenvalues --   -0.48782  -0.48239  -0.46934  -0.45507  -0.44810
 Alpha  occ. eigenvalues --   -0.44406  -0.42905  -0.42050  -0.40259  -0.36867
 Alpha  occ. eigenvalues --   -0.33708  -0.31783  -0.31483  -0.25826
 Alpha virt. eigenvalues --   -0.02133   0.03667   0.05981   0.06275   0.09292
 Alpha virt. eigenvalues --    0.10613   0.12029   0.14572   0.16062   0.17227
 Alpha virt. eigenvalues --    0.18853   0.20045   0.21021   0.21363   0.23001

 Mulliken charges:
               1
     1  C    0.012402
     2  C   -0.249583
     3  C    0.259408
     4  C   -0.010313
     5  C    0.014795
     6  C   -0.000233
     7  H    0.026995
     8  H    0.033562
     9  H    0.028182
    10  H    0.027202
    11  N   -0.110300
    12  S    0.198692
    13  C   -0.116291
    14  C   -0.021950
    15  C    0.119657
    16  C   -0.038872
    17  H    0.001300
    18  C   -0.028171
    19  C    0.034064
    20  H    0.002328
    21  H    0.000884
    22  H    0.013987
    23  C    0.066504
    24  O   -0.401890
    25  H    0.137641
 Sum of Mulliken charges =  -0.00000

 Dipole moment (field-independent basis, Debye):
    X=              1.9295    Y=             -5.5492    Z=             -0.0001  Tot=              5.8751
 Quadrupole moment (field-independent basis, Debye-Ang):
   XX=            -82.4501   YY=            -95.0141   ZZ=           -104.2670
   XY=             -6.6195   XZ=             -0.0002   YZ=             -0.0000

  Exact polarizability:     349.433    -122.857     299.100      -0.002       0.003      63.352
 Approx polarizability:     275.272     -38.194     266.760      -0.001       0.002      82.148

 ******    1 imaginary frequencies (negative Signs) ******

                      1                      2                      3
                      A                      A                      A
 Frequencies --    -80.6855                43.2077               103.6490
 Red. masses --      7.1564                 6.4477                 4.7388
 Frc consts  --      0.0274                 0.0071                 0.0300
 IR Inten    --      1.5640                 1.7504                 0.1156

                      4                      5                      6
                      A                      A                      A
 Frequencies --    116.1109               173.9031               225.1433
 Red. masses --      5.7497                 5.1998                 5.3878
 Frc consts  --      0.0457                 0.0927                 0.1609
 IR Inten    --      7.4899                 0.1015                 0.2798

                      7                      8                      9
                      A                      A                      A
 Frequencies --    264.7937               270.1765               324.1758
 Red. masses --      7.6182                 4.6277                 7.3240
 Frc consts  --      0.3147                 0.1990                 0.4535
 IR Inten    --      0.7605                 0.8401                 4.9048

                     10                     11                     12
                      A                      A                      A
 Frequencies --    352.0407               383.8670               431.8913
 Red. masses --      4.8642                 8.9863                 3.3882
 Frc consts  --      0.3552                 0.7802                 0.3724
 IR Inten    --      1.0232                 5.3281                 4.3216

                     13                     14                     15
                      A                      A                      A
 Frequencies --    451.9973               501.5620               507.7803
 Red. masses --      4.6004                 8.4368                 3.1878
 Frc consts  --      0.5538                 1.2505                 0.4843
 IR Inten    --      2.6551                 8.4546                 0.5397

                     16                     17                     18
                      A                      A                      A
 Frequencies --    539.0811               555.6210               565.9251
 Red. masses --      8.8080                 3.8153                 6.8005
 Frc consts  --      1.5081                 0.6940                 1.2832
 IR Inten    --      8.9232                 1.0209                17.2197

                     19                     20                     21
                      A                      A                      A
 Frequencies --    570.2804               640.7658               688.7718
 Red. masses --      7.5796                 6.1743                 1.5762
 Frc consts  --      1.4524                 1.4936                 0.4406
 IR Inten    --     30.4211                61.1355                37.6288

                     22                     23                     24
                      A                      A                      A
 Frequencies --    699.1888               725.3867               742.3569
 Red. masses --      6.4766                 8.1341                 2.5264
 Frc consts  --      1.8655                 2.5217                 0.8203
 IR Inten    --      1.0151                 4.3354                14.1149

                     25                     26                     27
                      A                      A                      A
 Frequencies --    762.4775               766.2283               808.9757
 Red. masses --      1.7535                 1.6512                 6.4964
 Frc consts  --      0.6006                 0.5712                 2.5049
 IR Inten    --      4.4385                72.7531                18.3113

                     28                     29                     30
                      A                      A                      A
 Frequencies --    841.1697               855.4215               868.4724
 Red. masses --      1.6207                 1.2146                 1.2953
 Frc consts  --      0.6756                 0.5236                 0.5756
 IR Inten    --      2.1507                41.2018                33.4838

                     31                     32                     33
                      A                      A                      A
 Frequencies --    890.9561               907.7156               953.9174
 Red. masses --      5.0829                 1.4276                 1.3625
 Frc consts  --      2.3773                 0.6931                 0.7305
 IR Inten    --      4.0132                10.3294                 1.1662

                     34                     35                     36
                      A                      A                      A
 Frequencies --    956.6855               956.9782              1003.5910
 Red. masses --      5.5040                 1.3484                 1.2940
 Frc consts  --      2.9680                 0.7276                 0.7679
 IR Inten    --      1.2803                 1.7786                 0.0096

                     37                     38                     39
                      A                      A                      A
 Frequencies --   1044.9327              1051.6907              1078.7777
 Red. masses --      2.2593                 2.2082                 4.0227
 Frc consts  --      1.4534                 1.4390                 2.7582
 IR Inten    --      0.3805                 8.9426                 1.3258

                     40                     41                     42
                      A                      A                      A
 Frequencies --   1109.5483              1149.8353              1160.2581
 Red. masses --      1.5908                 1.3164                 1.1875
 Frc consts  --      1.1539                 1.0254                 0.9419
 IR Inten    --     39.4564                 4.8244                72.2286

                     43                     44                     45
                      A                      A                      A
 Frequencies --   1179.4210              1220.8101              1250.7157
 Red. masses --      1.1371                 2.1830                 2.2453
 Frc consts  --      0.9319                 1.9169                 2.0694
 IR Inten    --     24.0297                80.9685                22.4468

                     46                     47                     48
                      A                      A                      A
 Frequencies --   1291.6371              1305.8304              1334.1919
 Red. masses --      1.5652                 1.8581                 4.3227
 Frc consts  --      1.5385                 1.8668                 4.5336
 IR Inten    --     59.7853               127.5623                35.5940

                     49                     50                     51
                      A                      A                      A
 Frequencies --   1370.8178              1392.9989              1399.5917
 Red. masses --      3.5138                 2.3455                 3.2921
 Frc consts  --      3.8903                 2.6816                 3.7995
 IR Inten    --     93.2693                35.0369                24.7167

                     52                     53                     54
                      A                      A                      A
 Frequencies --   1441.3111              1478.9336              1512.6533
 Red. masses --      3.2386                 2.7190                 2.9413
 Frc consts  --      3.9639                 3.5039                 3.9652
 IR Inten    --    284.5192                 5.1626                21.3633

                     55                     56                     57
                      A                      A                      A
 Frequencies --   1531.2746              1574.2801              1590.9851
 Red. masses --      3.9991                 5.5861                 4.5484
 Frc consts  --      5.5248                 8.1569                 6.7832
 IR Inten    --     58.4027               208.8839                66.4433

                     58                     59                     60
                      A                      A                      A
 Frequencies --   1627.6048              1656.8535              1674.2396
 Red. masses --      6.6909                 6.4975                 6.6388
 Frc consts  --     10.4432                10.5091                10.9642
 IR Inten    --    181.8338                 6.5399               215.9549

                     61                     62                     63
                      A                      A                      A
 Frequencies --   3190.0434              3209.4606              3212.8796
 Red. masses --      1.0892                 1.0863                 1.0863
 Frc consts  --      6.5307                 6.5925                 6.6068
 IR Inten    --     16.1421                 2.3315                 6.4307

                     64                     65                     66
                      A                      A                      A
 Frequencies --   3221.7400              3223.4516              3231.9878
 Red. masses --      1.0919                 1.0901                 1.0962
 Frc consts  --      6.6774                 6.6735                 6.7466
 IR Inten    --     14.1929                 2.4414                 7.1099

                     67                     68                     69
                      A                      A                      A
 Frequencies --   3233.6905              3240.0854              3315.8543
 Red. masses --      1.0990                 1.0994                 1.0869
 Frc consts  --      6.7710                 6.8003                 7.0413
 IR Inten    --     28.6576                15.6372               977.1551

 - Thermochemistry -
 -------------------
 Temperature   298.150 Kelvin.  Pressure   1.00000 Atm.
 Atom     1 has atomic number  6 and mass  12.00000

 Molecular mass:   227.04049 amu.
 Principal axes and moments of inertia in atomic units:
                           1         2         3
     Eigenvalues --  1318.009606433.433867751.44346
           X           -0.70241   0.71177   0.00000
           Y            0.71177   0.70241  -0.00001
           Z            0.00001   0.00001   1.00000
 This molecule is an asymmetric top.
 Rotational symmetry number  1.
 Warning -- assumption of classical behavior for rotation
           may cause significant error
 Rotational temperatures (Kelvin)      0.06572     0.01346     0.01117
 Rotational constants (GHZ):           1.36929     0.28053     0.23283
    1 imaginary frequencies ignored.
 Zero-point vibrational energy     490221.6 (Joules/Mol)
                                  117.16577 (Kcal/Mol)
 Warning -- explicit consideration of  18 degrees of freedom as
           vibrations may cause significant error
 Vibrational temperatures:     62.17   149.13   167.06   250.21   323.93
          (Kelvin)            380.98   388.72   466.42   506.51   552.30
                              621.40   650.32   721.64   730.58   775.62
                              799.41   814.24   820.51   921.92   990.99
                             1005.98  1043.67  1068.09  1097.04  1102.43
                             1163.94  1210.26  1230.76  1249.54  1281.89
                             1306.00  1372.47  1376.46  1376.88  1443.94
                             1503.43  1513.15  1552.12  1596.39  1654.36
                             1669.35  1696.92  1756.47  1799.50  1858.38
                             1878.80  1919.60  1972.30  2004.21  2013.70
                             2073.73  2127.86  2176.37  2203.16  2265.04
                             2289.07  2341.76  2383.84  2408.86  4589.76
                             4617.70  4622.62  4635.37  4637.83  4650.11
                             4652.56  4661.76  4770.77

 Zero-point correction=                           0.186716 (Hartree/Particle)
 Thermal correction to Energy=                    0.198259
 Thermal correction to Enthalpy=                  0.199203
 Thermal correction to Gibbs Free Energy=         0.148564
 Sum of electronic and zero-point Energies=          -1028.509958
 Sum of electronic and thermal Energies=             -1028.498415
 Sum of electronic and thermal Enthalpies=           -1028.497471
 Sum of electronic and thermal Free Energies=        -1028.548110

                     E (Thermal)             CV                S
                      KCal/Mol        Cal/Mol-Kelvin    Cal/Mol-Kelvin
 Total                  124.409             47.567            106.577
 Electronic               0.000              0.000              0.000
 Translational            0.889              2.981             42.162
 Rotational               0.889              2.981             32.552
 Vibrational            122.632             41.605             31.863
 Vibration     1          0.595              1.980              5.106
 Vibration     2          0.605              1.946              3.385
 Vibration     3          0.608              1.936              3.164
 Vibration     4          0.627              1.875              2.393
 Vibration     5          0.650              1.803              1.917
 Vibration     6          0.671              1.738              1.630
 Vibration     7          0.674              1.728              1.595
 Vibration     8          0.709              1.627              1.289
 Vibration     9          0.729              1.571              1.157
 Vibration    10          0.753              1.505              1.024
 Vibration    11          0.793              1.401              0.852
 Vibration    12          0.811              1.356              0.790
 Vibration    13          0.857              1.247              0.654
 Vibration    14          0.863              1.233              0.639
 Vibration    15          0.894              1.164              0.567
 Vibration    16          0.911              1.127              0.533
 Vibration    17          0.922              1.105              0.512
 Vibration    18          0.926              1.096              0.504

 Optimization completed.
    -- Stationary point found.
 Normal termination of Gaussian 16 at Mon Jul 13 17:06:42 2020.
