 Gaussian 16, Revision C.01,
 Gaussian 16:  ES64L-G16RevC.01  3-Jul-2019

 ----------------------------------------------------------------------
 #p opt=addgic freq td wb97xd/cc-pvdz nosymm int=ultrafine scrf=(solven
 t=CarbonTetraChloride)
 ----------------------------------------------------------------------

 ------------------------------------------------
 NM 2D-scan of HBT TD-WB97XD pVDZ in CTC Relaxed.
 ------------------------------------------------
 Symbolic Z-matrix:
 Charge =  0 Multiplicity = 1

 SCF Done:  E(RwB97XD) =  -1028.47082452     A.U. after   16 cycles
 Total Energy, E(TD-HF/TD-DFT) =  -1028.36647874
 SCF Done:  E(RwB97XD) =  -1028.69708095     A.U. after   14 cycles
 Total Energy, E(TD-HF/TD-DFT) =  -1028.59551463
 SCF Done:  E(RwB97XD) =  -1028.77038225     A.U. after   15 cycles
 Total Energy, E(TD-HF/TD-DFT) =  -1028.67405522
 SCF Done:  E(RwB97XD) =  -1028.78232343     A.U. after   14 cycles
 Total Energy, E(TD-HF/TD-DFT) =  -1028.68510084
 SCF Done:  E(RwB97XD) =  -1028.78438077     A.U. after   12 cycles
 Total Energy, E(TD-HF/TD-DFT) =  -1028.68597728
 SCF Done:  E(RwB97XD) =  -1028.78492403     A.U. after   12 cycles
 Total Energy, E(TD-HF/TD-DFT) =  -1028.68609775
 SCF Done:  E(RwB97XD) =  -1028.78491850     A.U. after    9 cycles
 Total Energy, E(TD-HF/TD-DFT) =  -1028.68610139
 SCF Done:  E(RwB97XD) =  -1028.78494137     A.U. after    8 cycles
 Total Energy, E(TD-HF/TD-DFT) =  -1028.68610175
 Optimization completed.
    -- Stationary point found.
 Normal termination of Gaussian 16 at Tue Jul 14 11:50:59 2020.

 ----------------------------------------------------------------------
 #P Geom=AllCheck Guess=TCheck SCRF=Check GenChk RwB97XD TD(FC,Read)/CC
 -pVDZ Freq
 ----------------------------------------------------------------------

 Structure from the checkpoint file:  "config_12_13_fixed.chk"
 ------------------------------------------------
 NM 2D-scan of HBT TD-WB97XD pVDZ in CTC Relaxed.
 ------------------------------------------------
 Charge =  0 Multiplicity = 1

                          Input orientation:
 ---------------------------------------------------------------------
 Center     Atomic      Atomic             Coordinates (Angstroms)
 Number     Number       Type             X           Y           Z
 ---------------------------------------------------------------------
      1          6           0        1.624812   -3.298585    0.000044
      2          6           0        1.020062   -2.049291    0.000009
      3          6           0        1.786726   -0.890634   -0.000046
      4          6           0        3.186458   -0.935535   -0.000054
      5          6           0        3.786253   -2.192089   -0.000015
      6          6           0        3.018842   -3.361325    0.000030
      7          1           0        1.025005   -4.208556    0.000077
      8          1           0        3.779907   -0.019911   -0.000091
      9          1           0        4.875167   -2.260089   -0.000021
     10          1           0        3.512751   -4.333258    0.000054
     11          7           0        0.984487    0.216339   -0.000099
     12         16           0       -0.700482   -1.635791    0.000006
     13          6           0       -1.385484    1.112588   -0.000017
     14          6           0       -2.733851    0.828950   -0.000058
     15          6           0       -0.922822    2.513616    0.000047
     16          6           0       -3.722526    1.869480    0.000008
     17          1           0       -3.078423   -0.208681   -0.000149
     18          6           0       -1.960873    3.516156    0.000118
     19          6           0       -3.334657    3.196878    0.000103
     20          1           0       -4.777256    1.590023   -0.000019
     21          1           0       -1.634004    4.558102    0.000205
     22          1           0       -4.084949    3.989407    0.000160
     23          6           0       -0.376207    0.070199   -0.000083
     24          8           0        0.303260    2.729799    0.000057
     25          1           0        1.537514    1.034323   -0.000181
 ---------------------------------------------------------------------

 SCF Done:  E(RwB97XD) =  -1028.78494137     A.U. after    1 cycles

 Excitation energies and oscillator strengths:

 Excited state symmetry could not be determined.
 Excited State   1:      Singlet-?Sym    2.6896 eV  460.98 nm  f=0.4317  <S**2>=0.000
      59 -> 60         0.69762
 This state for optimization and/or second-order correction.
 Total Energy, E(TD-HF/TD-DFT) =  -1028.68610179
 Copying the excited state density for this state as the 1-particle RhoCI density.

 Excited state symmetry could not be determined.
 Excited State   2:      Singlet-?Sym    3.2758 eV  378.48 nm  f=0.0000  <S**2>=0.000
      58 -> 60         0.68441
      58 -> 62         0.11318
      58 -> 64         0.10163

 Excited state symmetry could not be determined.
 Excited State   3:      Singlet-?Sym    4.2872 eV  289.20 nm  f=0.4501  <S**2>=0.000
      57 -> 60         0.68364

 Alpha  occ. eigenvalues --  -89.10555 -19.19928 -14.53102 -10.42805 -10.37340
 Alpha  occ. eigenvalues --  -10.36182 -10.35187 -10.33610 -10.33479 -10.32956
 Alpha  occ. eigenvalues --  -10.32619 -10.31324 -10.30814 -10.30503 -10.28967
 Alpha  occ. eigenvalues --  -10.28064  -8.12585  -6.07466  -6.07071  -6.06606
 Alpha  occ. eigenvalues --   -1.13439  -1.09093  -0.98718  -0.95767  -0.93263
 Alpha  occ. eigenvalues --   -0.89060  -0.86852  -0.84112  -0.80561  -0.75990
 Alpha  occ. eigenvalues --   -0.74761  -0.71974  -0.69420  -0.67413  -0.64739
 Alpha  occ. eigenvalues --   -0.61080  -0.59804  -0.56498  -0.56308  -0.56076
 Alpha  occ. eigenvalues --   -0.55102  -0.53627  -0.53014  -0.50411  -0.48699
 Alpha  occ. eigenvalues --   -0.48651  -0.48192  -0.47079  -0.45599  -0.44877
 Alpha  occ. eigenvalues --   -0.43965  -0.42745  -0.42222  -0.39806  -0.36964
 Alpha  occ. eigenvalues --   -0.33873  -0.31586  -0.30467  -0.25212
 Alpha virt. eigenvalues --   -0.02288   0.03485   0.05661   0.06632   0.09844
 Alpha virt. eigenvalues --    0.10939   0.13141   0.14418   0.15893   0.16515
 Alpha virt. eigenvalues --    0.17867   0.19780   0.20811   0.21239   0.22676

 Mulliken charges:
               1
     1  C    0.015637
     2  C   -0.242301
     3  C    0.204128
     4  C   -0.012268
     5  C    0.012927
     6  C    0.004143
     7  H    0.025889
     8  H    0.033423
     9  H    0.029694
    10  H    0.028153
    11  N   -0.081303
    12  S    0.199973
    13  C   -0.069864
    14  C   -0.038408
    15  C    0.104575
    16  C   -0.039599
    17  H    0.006514
    18  C   -0.061090
    19  C    0.035037
    20  H    0.000536
    21  H   -0.002081
    22  H    0.013406
    23  C    0.090930
    24  O   -0.377829
    25  H    0.119778
 Sum of Mulliken charges =  -0.00000

 Dipole moment (field-independent basis, Debye):
    X=              2.7822    Y=             -6.2794    Z=             -0.0003  Tot=              6.8682
 Quadrupole moment (field-independent basis, Debye-Ang):
   XX=            -81.0758   YY=            -97.0360   ZZ=           -104.1468
   XY=             -5.9073   XZ=             -0.0005   YZ=             -0.0004

  Exact polarizability:     345.824    -116.704     288.191      -0.002       0.002      63.284
 Approx polarizability:     276.900     -40.747     264.535      -0.002       0.002      81.996

 ******    2 imaginary frequencies (negative Signs) ******

                      1                      2                      3
                      A                      A                      A
 Frequencies --   -125.3018               -34.3428                69.2875
 Red. masses --      2.3923                 5.7508                 5.9678
 Frc consts  --      0.0221                 0.0040                 0.0169
 IR Inten    --     20.3428                 0.2600                 2.5872

                      4                      5                      6
                      A                      A                      A
 Frequencies --    109.0959               157.5420               186.3749
 Red. masses --      5.7420                 3.1001                 4.9119
 Frc consts  --      0.0403                 0.0453                 0.1005
 IR Inten    --      5.4334                15.9454                12.5411

                      7                      8                      9
                      A                      A                      A
 Frequencies --    247.3025               262.7887               285.7173
 Red. masses --      3.6678                 7.8568                 8.6564
 Frc consts  --      0.1322                 0.3197                 0.4164
 IR Inten    --      6.3710                 1.1341                 2.4001

                     10                     11                     12
                      A                      A                      A
 Frequencies --    323.6998               337.2062               376.3899
 Red. masses --      2.4755                 4.4467                 6.9780
 Frc consts  --      0.1528                 0.2979                 0.5824
 IR Inten    --     19.4195                 2.5934                 6.6451

                     13                     14                     15
                      A                      A                      A
 Frequencies --    432.7262               442.4931               500.6426
 Red. masses --      3.9471                 3.0233                 8.1857
 Frc consts  --      0.4355                 0.3488                 1.2088
 IR Inten    --      6.3281                 0.0337                 9.7849

                     16                     17                     18
                      A                      A                      A
 Frequencies --    516.9002               540.2488               542.9077
 Red. masses --      3.2376                 6.3541                 9.0035
 Frc consts  --      0.5097                 1.0927                 1.5636
 IR Inten    --      0.5592                14.4917                43.1310

                     19                     20                     21
                      A                      A                      A
 Frequencies --    559.2035               565.4518               643.3642
 Red. masses --      3.7974                 7.4104                 6.5331
 Frc consts  --      0.6996                 1.3960                 1.5933
 IR Inten    --      0.0465                 3.9887                10.6417

                     22                     23                     24
                      A                      A                      A
 Frequencies --    687.8648               705.5793               738.2160
 Red. masses --      1.5057                 5.8164                 7.4465
 Frc consts  --      0.4197                 1.7061                 2.3909
 IR Inten    --     32.5593                 1.7025                 6.0270

                     25                     26                     27
                      A                      A                      A
 Frequencies --    743.5720               757.4199               766.8110
 Red. masses --      2.3922                 1.6722                 1.7194
 Frc consts  --      0.7793                 0.5652                 0.5957
 IR Inten    --     19.6685                12.6331                84.4189

                     28                     29                     30
                      A                      A                      A
 Frequencies --    819.3528               837.7396               863.2904
 Red. masses --      6.2708                 2.0460                 1.3855
 Frc consts  --      2.4804                 0.8460                 0.6084
 IR Inten    --     15.5170                 1.5238                 1.2302

                     31                     32                     33
                      A                      A                      A
 Frequencies --    896.2416               900.1213               953.2004
 Red. masses --      5.9646                 1.4470                 1.3560
 Frc consts  --      2.8228                 0.6907                 0.7259
 IR Inten    --      2.9676                 9.2957                 0.3325

                     34                     35                     36
                      A                      A                      A
 Frequencies --    956.9356               971.3159              1003.4364
 Red. masses --      1.3524                 5.3949                 1.2959
 Frc consts  --      0.7297                 2.9988                 0.7688
 IR Inten    --      1.6892                 4.2269                 0.0006

                     37                     38                     39
                      A                      A                      A
 Frequencies --   1036.2936              1057.1935              1086.2816
 Red. masses --      2.3164                 2.1963                 2.7951
 Frc consts  --      1.4657                 1.4462                 1.9433
 IR Inten    --      0.9253                11.1509                11.5076

                     40                     41                     42
                      A                      A                      A
 Frequencies --   1096.8539              1153.5512              1158.1166
 Red. masses --      1.9769                 1.3551                 1.2176
 Frc consts  --      1.4013                 1.0624                 0.9622
 IR Inten    --     16.2844                 6.6635                58.2617

                     43                     44                     45
                      A                      A                      A
 Frequencies --   1175.8293              1183.1180              1224.4848
 Red. masses --      1.2854                 1.2053                 3.5865
 Frc consts  --      1.0470                 0.9940                 3.1683
 IR Inten    --     45.2645                 0.6334                25.3489

                     46                     47                     48
                      A                      A                      A
 Frequencies --   1241.7015              1304.4186              1333.8149
 Red. masses --      2.1967                 1.5619                 3.1310
 Frc consts  --      1.9955                 1.5658                 3.2819
 IR Inten    --     31.6523                 5.3633                20.4760

                     49                     50                     51
                      A                      A                      A
 Frequencies --   1358.3082              1401.4556              1404.6592
 Red. masses --      2.5826                 2.3565                 5.8980
 Frc consts  --      2.8074                 2.7269                 6.8564
 IR Inten    --     28.8506                84.1054                38.5437

                     52                     53                     54
                      A                      A                      A
 Frequencies --   1445.9074              1462.5978              1510.8360
 Red. masses --      2.7622                 3.2672                 3.6784
 Frc consts  --      3.4024                 4.1179                 4.9471
 IR Inten    --     74.0256                 9.8540                98.2142

                     55                     56                     57
                      A                      A                      A
 Frequencies --   1527.7090              1541.6795              1620.6105
 Red. masses --      2.7454                 5.0802                 5.2963
 Frc consts  --      3.7752                 7.1140                 8.1956
 IR Inten    --      0.2890               194.2718                86.3994

                     58                     59                     60
                      A                      A                      A
 Frequencies --   1650.8388              1664.5863              1688.7067
 Red. masses --      9.5343                 6.8886                 7.3117
 Frc consts  --     15.3090                11.2459                12.2850
 IR Inten    --    161.7675                91.3029                28.0131

                     61                     62                     63
                      A                      A                      A
 Frequencies --   3190.2612              3207.5054              3213.0672
 Red. masses --      1.0891                 1.0862                 1.0866
 Frc consts  --      6.5309                 6.5840                 6.6094
 IR Inten    --     26.6594                 2.2748                 4.9976

                     64                     65                     66
                      A                      A                      A
 Frequencies --   3218.8273              3223.7000              3231.6209
 Red. masses --      1.0913                 1.0908                 1.0955
 Frc consts  --      6.6616                 6.6789                 6.7409
 IR Inten    --     15.8983                 1.5428                 6.9924

                     67                     68                     69
                      A                      A                      A
 Frequencies --   3232.4050              3242.1184              3953.1399
 Red. masses --      1.0992                 1.0990                 1.0782
 Frc consts  --      6.7664                 6.8060                 9.9273
 IR Inten    --     26.9299                12.7304               180.1380

 - Thermochemistry -
 -------------------
 Temperature   298.150 Kelvin.  Pressure   1.00000 Atm.
 Atom     1 has atomic number  6 and mass  12.00000

 Molecular mass:   227.04049 amu.
 Principal axes and moments of inertia in atomic units:
                           1         2         3
     Eigenvalues --  1259.332116551.706687811.03879
           X           -0.70689   0.70732   0.00000
           Y            0.70732   0.70689  -0.00001
           Z            0.00001   0.00000   1.00000
 This molecule is an asymmetric top.
 Rotational symmetry number  1.
 Warning -- assumption of classical behavior for rotation
           may cause significant error
 Rotational temperatures (Kelvin)      0.06878     0.01322     0.01109
 Rotational constants (GHZ):           1.43309     0.27546     0.23105
    2 imaginary frequencies ignored.
 Zero-point vibrational energy     488929.5 (Joules/Mol)
                                  116.85697 (Kcal/Mol)
 Warning -- explicit consideration of  18 degrees of freedom as
           vibrations may cause significant error
 Vibrational temperatures:     99.69   156.96   226.67   268.15   355.81
          (Kelvin)            378.09   411.08   465.73   485.16   541.54
                              622.60   636.65   720.31   743.70   777.30
                              781.12   804.57   813.56   925.66   989.68
                             1015.17  1062.13  1069.83  1089.76  1103.27
                             1178.87  1205.32  1242.08  1289.49  1295.07
                             1371.44  1376.82  1397.51  1443.72  1491.00
                             1521.07  1562.92  1578.13  1659.70  1666.27
                             1691.76  1702.24  1761.76  1786.53  1876.77
                             1919.06  1954.30  2016.38  2020.99  2080.34
                             2104.35  2173.76  2198.03  2218.13  2331.70
                             2375.19  2394.97  2429.67  4590.07  4614.88
                             4622.89  4631.17  4638.19  4649.58  4650.71
                             4664.69  5687.69

 Zero-point correction=                           0.186223 (Hartree/Particle)
 Thermal correction to Energy=                    0.197533
 Thermal correction to Enthalpy=                  0.198477
 Thermal correction to Gibbs Free Energy=         0.148807
 Sum of electronic and zero-point Energies=          -1028.499878
 Sum of electronic and thermal Energies=             -1028.488569
 Sum of electronic and thermal Enthalpies=           -1028.487624
 Sum of electronic and thermal Free Energies=        -1028.537295

                     E (Thermal)             CV                S
                      KCal/Mol        Cal/Mol-Kelvin    Cal/Mol-Kelvin
 Total                  123.954             46.993            104.540
 Electronic               0.000              0.000              0.000
 Translational            0.889              2.981             42.162
 Rotational               0.889              2.981             32.533
 Vibrational            122.176             41.031             29.845
 Vibration     1          0.598              1.969              4.173
 Vibration     2          0.606              1.942              3.285
 Vibration     3          0.621              1.894              2.579
 Vibration     4          0.632              1.858              2.264
 Vibration     5          0.661              1.767              1.750
 Vibration     6          0.670              1.741              1.643
 Vibration     7          0.684              1.700              1.499
 Vibration     8          0.708              1.628              1.291
 Vibration     9          0.718              1.601              1.225
 Vibration    10          0.747              1.520              1.054
 Vibration    11          0.794              1.399              0.850
 Vibration    12          0.802              1.377              0.819
 Vibration    13          0.856              1.249              0.657
 Vibration    14          0.872              1.213              0.617
 Vibration    15          0.895              1.161              0.565
 Vibration    16          0.898              1.155              0.559
 Vibration    17          0.915              1.120              0.525
 Vibration    18          0.921              1.106              0.513

 Optimization completed.
    -- Stationary point found.
 Normal termination of Gaussian 16 at Tue Jul 14 12:08:27 2020.
