 Gaussian 16, Revision C.01,
 Gaussian 16:  ES64L-G16RevC.01  3-Jul-2019

 ----------------------------------------------------------------------
 #p opt=addgic freq td wb97xd/cc-pvdz nosymm int=ultrafine scrf=(solven
 t=CarbonTetraChloride)
 ----------------------------------------------------------------------

 ------------------------------------------------
 NM 2D-scan of HBT TD-WB97XD pVDZ in CTC Relaxed.
 ------------------------------------------------
 Symbolic Z-matrix:
 Charge =  0 Multiplicity = 1

 SCF Done:  E(RwB97XD) =  -1028.74576666     A.U. after   15 cycles
 Total Energy, E(TD-HF/TD-DFT) =  -1028.61373434
 SCF Done:  E(RwB97XD) =  -1028.81498937     A.U. after   13 cycles
 Total Energy, E(TD-HF/TD-DFT) =  -1028.68534500
 SCF Done:  E(RwB97XD) =  -1028.81719392     A.U. after   13 cycles
 Total Energy, E(TD-HF/TD-DFT) =  -1028.68973009
 SCF Done:  E(RwB97XD) =  -1028.81985495     A.U. after   12 cycles
 Total Energy, E(TD-HF/TD-DFT) =  -1028.69167711
 SCF Done:  E(RwB97XD) =  -1028.82028942     A.U. after   11 cycles
 Total Energy, E(TD-HF/TD-DFT) =  -1028.69235033
 SCF Done:  E(RwB97XD) =  -1028.82043313     A.U. after    9 cycles
 Total Energy, E(TD-HF/TD-DFT) =  -1028.69237011
 Optimization completed.
    -- Stationary point found.
 Normal termination of Gaussian 16 at Mon Jul 13 17:42:49 2020.

 ----------------------------------------------------------------------
 #P Geom=AllCheck Guess=TCheck SCRF=Check GenChk RwB97XD TD(FC,Read)/CC
 -pVDZ Freq
 ----------------------------------------------------------------------

 Structure from the checkpoint file:  "config_2_12.chk"
 ------------------------------------------------
 NM 2D-scan of HBT TD-WB97XD pVDZ in CTC Relaxed.
 ------------------------------------------------
 Charge =  0 Multiplicity = 1

                          Input orientation:
 ---------------------------------------------------------------------
 Center     Atomic      Atomic             Coordinates (Angstroms)
 Number     Number       Type             X           Y           Z
 ---------------------------------------------------------------------
      1          6           0        1.608318   -3.295538   -0.000033
      2          6           0        0.970062   -2.056906   -0.000023
      3          6           0        1.719012   -0.828248   -0.000003
      4          6           0        3.138839   -0.893865    0.000008
      5          6           0        3.753860   -2.127338   -0.000003
      6          6           0        3.002220   -3.324207   -0.000022
      7          1           0        1.032825   -4.222090   -0.000049
      8          1           0        3.710203    0.034928    0.000024
      9          1           0        4.843894   -2.184802    0.000005
     10          1           0        3.519369   -4.284818   -0.000030
     11          7           0        1.001755    0.300780    0.000005
     12         16           0       -0.740953   -1.704958   -0.000034
     13          6           0       -1.316953    1.058934   -0.000007
     14          6           0       -2.719614    0.795064    0.000004
     15          6           0       -0.918951    2.478692    0.000013
     16          6           0       -3.642393    1.824684    0.000041
     17          1           0       -3.063584   -0.240570   -0.000010
     18          6           0       -1.881310    3.493421    0.000056
     19          6           0       -3.233825    3.179734    0.000071
     20          1           0       -4.707377    1.587351    0.000052
     21          1           0       -1.525973    4.524202    0.000072
     22          1           0       -3.979372    3.975432    0.000104
     23          6           0       -0.337432    0.048910   -0.000015
     24          8           0        0.350128    2.843152   -0.000021
     25          1           0        0.912825    2.016345   -0.000089
 ---------------------------------------------------------------------

 SCF Done:  E(RwB97XD) =  -1028.82043313     A.U. after    1 cycles

 Excitation energies and oscillator strengths:

 Excited state symmetry could not be determined.
 Excited State   1:      Singlet-?Sym    3.4848 eV  355.79 nm  f=0.7244  <S**2>=0.000
      59 -> 60         0.68917
 This state for optimization and/or second-order correction.
 Total Energy, E(TD-HF/TD-DFT) =  -1028.69237013
 Copying the excited state density for this state as the 1-particle RhoCI density.

 Excited state symmetry could not be determined.
 Excited State   2:      Singlet-?Sym    4.3876 eV  282.58 nm  f=0.1564  <S**2>=0.000
      57 -> 60         0.36353
      58 -> 60         0.55030
      59 -> 62        -0.16403

 Excited state symmetry could not be determined.
 Excited State   3:      Singlet-?Sym    4.5602 eV  271.88 nm  f=0.0825  <S**2>=0.000
      57 -> 60         0.51354
      57 -> 63         0.10666
      58 -> 60        -0.35145
      58 -> 61        -0.10646
      59 -> 61         0.22303

 Alpha  occ. eigenvalues --  -89.08876 -19.28890 -14.47058 -10.39703 -10.38294
 Alpha  occ. eigenvalues --  -10.34906 -10.34689 -10.32762 -10.32378 -10.32087
 Alpha  occ. eigenvalues --  -10.32053 -10.31338 -10.31309 -10.31186 -10.30580
 Alpha  occ. eigenvalues --  -10.30461  -8.10816  -6.05662  -6.05328  -6.04876
 Alpha  occ. eigenvalues --   -1.17406  -1.08087  -0.96736  -0.95654  -0.91721
 Alpha  occ. eigenvalues --   -0.88783  -0.85061  -0.84467  -0.82223  -0.75988
 Alpha  occ. eigenvalues --   -0.71196  -0.70129  -0.69141  -0.68258  -0.63486
 Alpha  occ. eigenvalues --   -0.60252  -0.58962  -0.58552  -0.56015  -0.54447
 Alpha  occ. eigenvalues --   -0.53627  -0.53240  -0.52828  -0.50691  -0.50515
 Alpha  occ. eigenvalues --   -0.49217  -0.47858  -0.45881  -0.45552  -0.44761
 Alpha  occ. eigenvalues --   -0.43920  -0.42969  -0.42125  -0.39937  -0.37576
 Alpha  occ. eigenvalues --   -0.36432  -0.32005  -0.31603  -0.28009
 Alpha virt. eigenvalues --   -0.01860   0.05237   0.06924   0.07084   0.07481
 Alpha virt. eigenvalues --    0.11223   0.13870   0.15173   0.16339   0.18040
 Alpha virt. eigenvalues --    0.18501   0.20889   0.21603   0.22319   0.22785

 Mulliken charges:
               1
     1  C    0.014023
     2  C   -0.216820
     3  C    0.215774
     4  C   -0.017323
     5  C    0.007271
     6  C   -0.007766
     7  H    0.017360
     8  H    0.015399
     9  H    0.017910
    10  H    0.019900
    11  N   -0.354952
    12  S    0.150868
    13  C   -0.076939
    14  C   -0.021666
    15  C    0.079167
    16  C   -0.009329
    17  H    0.018002
    18  C    0.012996
    19  C    0.021412
    20  H    0.011954
    21  H    0.020036
    22  H    0.023232
    23  C    0.080662
    24  O   -0.191266
    25  H    0.170095
 Sum of Mulliken charges =  -0.00000

 Dipole moment (field-independent basis, Debye):
    X=             -0.6084    Y=             -1.7916    Z=             -0.0001  Tot=              1.8921
 Quadrupole moment (field-independent basis, Debye-Ang):
   XX=            -83.1834   YY=            -89.1500   ZZ=           -104.4182
   XY=             -6.9116   XZ=             -0.0003   YZ=              0.0002

  Exact polarizability:     403.592    -195.820     391.829      -0.002       0.004      63.422
 Approx polarizability:     279.660     -37.018     262.231      -0.001       0.002      82.402

                      1                      2                      3
                      A                      A                      A
 Frequencies --     39.4385                70.2482               108.7325
 Red. masses --      6.0567                 5.3652                 4.9848
 Frc consts  --      0.0056                 0.0156                 0.0347
 IR Inten    --      1.3028                 0.0138                 0.2768

                      4                      5                      6
                      A                      A                      A
 Frequencies --    109.0586               181.7710               223.9909
 Red. masses --      5.6478                 6.7569                 5.4203
 Frc consts  --      0.0396                 0.1315                 0.1602
 IR Inten    --      2.0848                 1.2259                 0.0038

                      7                      8                      9
                      A                      A                      A
 Frequencies --    265.0147               270.2927               293.0690
 Red. masses --      7.9647                 4.8320                 6.6487
 Frc consts  --      0.3296                 0.2080                 0.3365
 IR Inten    --     21.7615                 0.0667                 8.3738

                     10                     11                     12
                      A                      A                      A
 Frequencies --    393.0581               400.1665               439.3862
 Red. masses --      4.5639                 9.0363                 3.2887
 Frc consts  --      0.4154                 0.8526                 0.3741
 IR Inten    --      0.0840                13.5560                 4.0762

                     13                     14                     15
                      A                      A                      A
 Frequencies --    492.5743               496.9959               507.8932
 Red. masses --      4.4559                 7.3705                 3.1542
 Frc consts  --      0.6370                 1.0726                 0.4794
 IR Inten    --      0.2138                 9.7569                 0.1178

                     16                     17                     18
                      A                      A                      A
 Frequencies --    511.2005               524.5160               550.8064
 Red. masses --      5.3890                 8.0878                 4.0003
 Frc consts  --      0.8297                 1.3110                 0.7151
 IR Inten    --     26.6719                20.0601                 0.1666

                     19                     20                     21
                      A                      A                      A
 Frequencies --    577.2026               643.6118               680.5456
 Red. masses --      7.7003                 6.5704                 9.9254
 Frc consts  --      1.5115                 1.6036                 2.7084
 IR Inten    --     51.4214                20.6629                48.3665

                     22                     23                     24
                      A                      A                      A
 Frequencies --    711.7314               721.0455               736.0689
 Red. masses --      6.7980                 1.7369                 1.8391
 Frc consts  --      2.0289                 0.5321                 0.5871
 IR Inten    --     13.2910                50.9033                39.8455

                     25                     26                     27
                      A                      A                      A
 Frequencies --    744.7064               772.2299               811.4927
 Red. masses --      1.8920                 2.1231                 6.4268
 Frc consts  --      0.6182                 0.7459                 2.4935
 IR Inten    --     18.4249                51.0319                20.6606

                     28                     29                     30
                      A                      A                      A
 Frequencies --    819.3658               860.3691               885.1665
 Red. masses --      1.6701                 1.4249                 6.3709
 Frc consts  --      0.6606                 0.6214                 2.9411
 IR Inten    --      3.9832                 0.3666                61.2413

                     31                     32                     33
                      A                      A                      A
 Frequencies --    898.5796               923.7262               954.0867
 Red. masses --      1.0869                 1.3226                 1.3426
 Frc consts  --      0.5171                 0.6649                 0.7201
 IR Inten    --     71.3689                 0.1031                 2.0140

                     34                     35                     36
                      A                      A                      A
 Frequencies --    955.0257               968.9754               999.7124
 Red. masses --      7.2416                 1.3466                 1.3023
 Frc consts  --      3.8915                 0.7449                 0.7668
 IR Inten    --      6.6589                 0.0249                 0.0009

                     37                     38                     39
                      A                      A                      A
 Frequencies --   1039.5246              1040.5677              1078.1828
 Red. masses --      2.0951                 2.1866                 4.8759
 Frc consts  --      1.3339                 1.3950                 3.3395
 IR Inten    --      1.2434                 3.1770                41.6493

                     40                     41                     42
                      A                      A                      A
 Frequencies --   1137.2070              1149.5591              1176.1511
 Red. masses --      1.4692                 1.3217                 1.1567
 Frc consts  --      1.1194                 1.0290                 0.9428
 IR Inten    --     54.1614                14.9471                12.7458

                     43                     44                     45
                      A                      A                      A
 Frequencies --   1180.2249              1217.8283              1237.9669
 Red. masses --      1.1938                 5.2951                 1.6890
 Frc consts  --      0.9798                 4.6270                 1.5251
 IR Inten    --     26.3435                41.6607               175.4904

                     46                     47                     48
                      A                      A                      A
 Frequencies --   1277.0963              1312.4523              1360.4724
 Red. masses --      1.6615                 3.0924                 2.8758
 Frc consts  --      1.5966                 3.1384                 3.1361
 IR Inten    --      2.3574               285.4764                57.9639

                     49                     50                     51
                      A                      A                      A
 Frequencies --   1372.1181              1399.6893              1438.3404
 Red. masses --      5.8019                 1.9653                 2.5707
 Frc consts  --      6.4358                 2.2685                 3.1334
 IR Inten    --     30.9046                 6.2540               202.1349

                     52                     53                     54
                      A                      A                      A
 Frequencies --   1472.6813              1498.6145              1512.6042
 Red. masses --      3.4587                 2.5334                 3.4170
 Frc consts  --      4.4196                 3.3523                 4.6062
 IR Inten    --     69.4391               168.7817                62.0690

                     55                     56                     57
                      A                      A                      A
 Frequencies --   1541.4027              1569.0546              1589.9753
 Red. masses --      4.6635                 7.1535                 3.1176
 Frc consts  --      6.5282                10.3764                 4.6436
 IR Inten    --     17.5040               297.0188               523.4666

                     58                     59                     60
                      A                      A                      A
 Frequencies --   1602.3485              1628.2027              1648.2962
 Red. masses --      3.2979                 5.0879                 5.5581
 Frc consts  --      4.9888                 7.9470                 8.8971
 IR Inten    --     38.2806               393.7377               206.7520

                     61                     62                     63
                      A                      A                      A
 Frequencies --   3097.1114              3208.2839              3208.9325
 Red. masses --      1.0734                 1.0862                 1.0863
 Frc consts  --      6.0662                 6.5872                 6.5905
 IR Inten    --     26.3540                10.7325                 3.8506

                     64                     65                     66
                      A                      A                      A
 Frequencies --   3219.0644              3221.0378              3229.0151
 Red. masses --      1.0899                 1.0894                 1.0941
 Frc consts  --      6.6540                 6.6590                 6.7214
 IR Inten    --      3.4396                 1.0905                17.2173

                     67                     68                     69
                      A                      A                      A
 Frequencies --   3231.3280              3237.1943              3240.9123
 Red. masses --      1.0954                 1.0988                 1.0986
 Frc consts  --      6.7390                 6.7846                 6.7986
 IR Inten    --     12.2798                40.3935                27.3250

 - Thermochemistry -
 -------------------
 Temperature   298.150 Kelvin.  Pressure   1.00000 Atm.
 Atom     1 has atomic number  6 and mass  12.00000

 Molecular mass:   227.04049 amu.
 Principal axes and moments of inertia in atomic units:
                           1         2         3
     Eigenvalues --  1331.716156358.467847690.18399
           X           -0.69717   0.71691   0.00000
           Y            0.71691   0.69717  -0.00001
           Z            0.00001   0.00001   1.00000
 This molecule is an asymmetric top.
 Rotational symmetry number  1.
 Warning -- assumption of classical behavior for rotation
           may cause significant error
 Rotational temperatures (Kelvin)      0.06504     0.01362     0.01126
 Rotational constants (GHZ):           1.35520     0.28383     0.23468
 Zero-point vibrational energy     489962.3 (Joules/Mol)
                                  117.10380 (Kcal/Mol)
 Warning -- explicit consideration of  19 degrees of freedom as
           vibrations may cause significant error
 Vibrational temperatures:     56.74   101.07   156.44   156.91   261.53
          (Kelvin)            322.27   381.30   388.89   421.66   565.52
                              575.75   632.18   708.70   715.07   730.75
                              735.50   754.66   792.49   830.47   926.01
                              979.15  1024.02  1037.42  1059.04  1071.47
                             1111.07  1167.56  1178.88  1237.88  1273.56
                             1292.86  1329.04  1372.72  1374.07  1394.14
                             1438.36  1495.64  1497.14  1551.26  1636.19
                             1653.96  1692.22  1698.08  1752.18  1781.16
                             1837.46  1888.33  1957.42  1974.17  2013.84
                             2069.45  2118.86  2156.17  2176.30  2217.73
                             2257.52  2287.62  2305.42  2342.62  2371.53
                             4456.05  4616.00  4616.94  4631.52  4634.35
                             4645.83  4649.16  4657.60  4662.95

 Zero-point correction=                           0.186617 (Hartree/Particle)
 Thermal correction to Energy=                    0.198937
 Thermal correction to Enthalpy=                  0.199882
 Thermal correction to Gibbs Free Energy=         0.147238
 Sum of electronic and zero-point Energies=          -1028.505753
 Sum of electronic and thermal Energies=             -1028.493433
 Sum of electronic and thermal Enthalpies=           -1028.492488
 Sum of electronic and thermal Free Energies=        -1028.545132

                     E (Thermal)             CV                S
                      KCal/Mol        Cal/Mol-Kelvin    Cal/Mol-Kelvin
 Total                  124.835             49.471            110.798
 Electronic               0.000              0.000              0.000
 Translational            0.889              2.981             42.162
 Rotational               0.889              2.981             32.543
 Vibrational            123.058             43.510             36.093
 Vibration     1          0.594              1.981              5.287
 Vibration     2          0.598              1.968              4.146
 Vibration     3          0.606              1.942              3.291
 Vibration     4          0.606              1.942              3.286
 Vibration     5          0.630              1.865              2.310
 Vibration     6          0.649              1.805              1.927
 Vibration     7          0.671              1.737              1.629
 Vibration     8          0.674              1.728              1.594
 Vibration     9          0.688              1.687              1.456
 Vibration    10          0.760              1.485              0.989
 Vibration    11          0.766              1.470              0.962
 Vibration    12          0.799              1.384              0.829
 Vibration    13          0.848              1.266              0.677
 Vibration    14          0.853              1.257              0.666
 Vibration    15          0.863              1.233              0.639
 Vibration    16          0.866              1.225              0.631
 Vibration    17          0.879              1.196              0.600
 Vibration    18          0.906              1.138              0.543
 Vibration    19          0.934              1.081              0.491

 Optimization completed.
    -- Stationary point found.
 Normal termination of Gaussian 16 at Mon Jul 13 18:00:32 2020.
