 Gaussian 16, Revision C.01,
 Gaussian 16:  ES64L-G16RevC.01  3-Jul-2019

 ----------------------------------------------------------------------
 #p opt=addgic freq td wb97xd/cc-pvdz nosymm int=ultrafine scrf=(solven
 t=CarbonTetraChloride)
 ----------------------------------------------------------------------

 ------------------------------------------------
 NM 2D-scan of HBT TD-WB97XD pVDZ in CTC Relaxed.
 ------------------------------------------------
 Symbolic Z-matrix:
 Charge =  0 Multiplicity = 1

 SCF Done:  E(RwB97XD) =  -1028.80151747     A.U. after   15 cycles
 Total Energy, E(TD-HF/TD-DFT) =  -1028.67176345
 SCF Done:  E(RwB97XD) =  -1028.81503348     A.U. after   13 cycles
 Total Energy, E(TD-HF/TD-DFT) =  -1028.68669811
 SCF Done:  E(RwB97XD) =  -1028.81419496     A.U. after   13 cycles
 Total Energy, E(TD-HF/TD-DFT) =  -1028.68792297
 SCF Done:  E(RwB97XD) =  -1028.81492839     A.U. after   11 cycles
 Total Energy, E(TD-HF/TD-DFT) =  -1028.68842011
 SCF Done:  E(RwB97XD) =  -1028.81503441     A.U. after   10 cycles
 Total Energy, E(TD-HF/TD-DFT) =  -1028.68843445
 SCF Done:  E(RwB97XD) =  -1028.81503979     A.U. after    9 cycles
 Total Energy, E(TD-HF/TD-DFT) =  -1028.68843651
 SCF Done:  E(RwB97XD) =  -1028.81505351     A.U. after    7 cycles
 Total Energy, E(TD-HF/TD-DFT) =  -1028.68843665
 Optimization completed.
    -- Stationary point found.
 Normal termination of Gaussian 16 at Mon Jul 13 14:14:56 2020.

 ----------------------------------------------------------------------
 #P Geom=AllCheck Guess=TCheck SCRF=Check GenChk RwB97XD TD(FC,Read)/CC
 -pVDZ Freq
 ----------------------------------------------------------------------

 Structure from the checkpoint file:  "config_4_3.chk"
 ------------------------------------------------
 NM 2D-scan of HBT TD-WB97XD pVDZ in CTC Relaxed.
 ------------------------------------------------
 Charge =  0 Multiplicity = 1

                          Input orientation:
 ---------------------------------------------------------------------
 Center     Atomic      Atomic             Coordinates (Angstroms)
 Number     Number       Type             X           Y           Z
 ---------------------------------------------------------------------
      1          6           0        1.734986   -3.288532   -0.000093
      2          6           0        0.984796   -2.111751   -0.000104
      3          6           0        1.650326   -0.844598    0.000034
      4          6           0        3.065557   -0.774061    0.000185
      5          6           0        3.788208   -1.945414    0.000191
      6          6           0        3.131211   -3.194688    0.000052
      7          1           0        1.251500   -4.266344   -0.000193
      8          1           0        3.542389    0.206652    0.000288
      9          1           0        4.879143   -1.912407    0.000302
     10          1           0        3.723455   -4.111083    0.000060
     11          7           0        0.865569    0.230090    0.000006
     12         16           0       -0.761847   -1.850175   -0.000251
     13          6           0       -1.396452    1.007224   -0.000141
     14          6           0       -2.813377    0.887886   -0.000040
     15          6           0       -0.880018    2.405055   -0.000121
     16          6           0       -3.638593    2.007514    0.000174
     17          1           0       -3.259550   -0.108168   -0.000072
     18          6           0       -1.748270    3.506378    0.000129
     19          6           0       -3.120318    3.324313    0.000291
     20          1           0       -4.720389    1.863506    0.000279
     21          1           0       -1.288195    4.494886    0.000140
     22          1           0       -3.793392    4.181783    0.000472
     23          6           0       -0.460537   -0.060113   -0.000177
     24          8           0        0.401966    2.687960   -0.000457
     25          1           0        0.895543    1.795585   -0.000863
 ---------------------------------------------------------------------

 SCF Done:  E(RwB97XD) =  -1028.81505351     A.U. after    1 cycles

 Excitation energies and oscillator strengths:

 Excited state symmetry could not be determined.
 Excited State   1:      Singlet-?Sym    3.4454 eV  359.85 nm  f=0.6574  <S**2>=0.000
      59 -> 60         0.69022
 This state for optimization and/or second-order correction.
 Total Energy, E(TD-HF/TD-DFT) =  -1028.68843667
 Copying the excited state density for this state as the 1-particle RhoCI density.

 Excited state symmetry could not be determined.
 Excited State   2:      Singlet-?Sym    4.3838 eV  282.83 nm  f=0.2740  <S**2>=0.000
      57 -> 60         0.19282
      58 -> 60         0.63568
      59 -> 62         0.12390
      59 -> 64         0.11554

 Excited state symmetry could not be determined.
 Excited State   3:      Singlet-?Sym    4.5992 eV  269.58 nm  f=0.0410  <S**2>=0.000
      56 -> 61        -0.10078
      57 -> 60         0.58076
      57 -> 62        -0.14073
      58 -> 60        -0.18313
      58 -> 61        -0.14145
      59 -> 61         0.24610

 Alpha  occ. eigenvalues --  -89.09357 -19.27941 -14.46981 -10.40155 -10.38093
 Alpha  occ. eigenvalues --  -10.35058 -10.34905 -10.32929 -10.32402 -10.32273
 Alpha  occ. eigenvalues --  -10.31808 -10.31530 -10.31418 -10.31346 -10.30349
 Alpha  occ. eigenvalues --  -10.30073  -8.11193  -6.06060  -6.05716  -6.05240
 Alpha  occ. eigenvalues --   -1.16921  -1.08496  -0.96651  -0.95509  -0.91490
 Alpha  occ. eigenvalues --   -0.88813  -0.84840  -0.84324  -0.82359  -0.75968
 Alpha  occ. eigenvalues --   -0.70973  -0.70180  -0.69034  -0.68320  -0.63282
 Alpha  occ. eigenvalues --   -0.60376  -0.58795  -0.58550  -0.55745  -0.54368
 Alpha  occ. eigenvalues --   -0.53764  -0.53024  -0.52711  -0.51094  -0.50289
 Alpha  occ. eigenvalues --   -0.49398  -0.47852  -0.45888  -0.45518  -0.44709
 Alpha  occ. eigenvalues --   -0.43705  -0.42779  -0.42403  -0.40016  -0.37026
 Alpha  occ. eigenvalues --   -0.36450  -0.32290  -0.31320  -0.27884
 Alpha virt. eigenvalues --   -0.01816   0.05034   0.07041   0.07068   0.07213
 Alpha virt. eigenvalues --    0.11059   0.12780   0.15098   0.15856   0.17897
 Alpha virt. eigenvalues --    0.18644   0.20841   0.21706   0.22333   0.22649

 Mulliken charges:
               1
     1  C    0.007017
     2  C   -0.226142
     3  C    0.247675
     4  C   -0.015681
     5  C    0.010201
     6  C   -0.008293
     7  H    0.019912
     8  H    0.017883
     9  H    0.019174
    10  H    0.021097
    11  N   -0.351355
    12  S    0.155280
    13  C   -0.104133
    14  C   -0.015077
    15  C    0.093256
    16  C   -0.017579
    17  H    0.009704
    18  C    0.010552
    19  C    0.022997
    20  H    0.011080
    21  H    0.017618
    22  H    0.021765
    23  C    0.081949
    24  O   -0.207301
    25  H    0.178398
 Sum of Mulliken charges =  -0.00000

 Dipole moment (field-independent basis, Debye):
    X=             -0.1385    Y=             -2.0394    Z=             -0.0003  Tot=              2.0441
 Quadrupole moment (field-independent basis, Debye-Ang):
   XX=            -83.2754   YY=            -89.2311   ZZ=           -104.4873
   XY=             -6.8976   XZ=             -0.0008   YZ=              0.0012

  Exact polarizability:     400.537    -186.933     378.758      -0.001       0.008      63.534
 Approx polarizability:     279.903     -36.339     263.011       0.001       0.008      82.501

                      1                      2                      3
                      A                      A                      A
 Frequencies --     34.4872                47.1255               105.9436
 Red. masses --      5.8016                 6.9026                 4.5298
 Frc consts  --      0.0041                 0.0090                 0.0300
 IR Inten    --      1.4299                 0.0582                 0.2562

                      4                      5                      6
                      A                      A                      A
 Frequencies --    113.5897               179.0317               223.2642
 Red. masses --      5.6245                 6.3215                 5.3522
 Frc consts  --      0.0428                 0.1194                 0.1572
 IR Inten    --      1.7905                 0.8354                 0.0070

                      7                      8                      9
                      A                      A                      A
 Frequencies --    265.3634               267.4875               306.5666
 Red. masses --      7.7003                 4.8123                 6.7012
 Frc consts  --      0.3195                 0.2029                 0.3711
 IR Inten    --     23.5580                 0.2001                 6.1171

                     10                     11                     12
                      A                      A                      A
 Frequencies --    390.2389               392.6011               437.3179
 Red. masses --      4.7319                 9.0409                 3.2388
 Frc consts  --      0.4246                 0.8210                 0.3649
 IR Inten    --      0.2577                11.9835                 4.7289

                     13                     14                     15
                      A                      A                      A
 Frequencies --    490.4315               497.3529               500.1710
 Red. masses --      4.5885                 6.7869                 3.1445
 Frc consts  --      0.6502                 0.9891                 0.4635
 IR Inten    --      0.2179                12.2138                 0.0018

                     16                     17                     18
                      A                      A                      A
 Frequencies --    509.0660               526.2480               550.4940
 Red. masses --      5.4799                 7.9669                 3.9572
 Frc consts  --      0.8367                 1.2999                 0.7065
 IR Inten    --     20.9922                17.8388                 0.1389

                     19                     20                     21
                      A                      A                      A
 Frequencies --    579.8151               637.1494               678.8291
 Red. masses --      7.6437                 6.8675                 8.2565
 Frc consts  --      1.5140                 1.6426                 2.2417
 IR Inten    --     32.6708                61.2018                11.2171

                     22                     23                     24
                      A                      A                      A
 Frequencies --    710.5569               711.2072               734.4536
 Red. masses --      7.5538                 1.8180                 1.9018
 Frc consts  --      2.2471                 0.5418                 0.6044
 IR Inten    --     13.0714                40.1810                27.4680

                     25                     26                     27
                      A                      A                      A
 Frequencies --    753.4961               769.8523               803.2560
 Red. masses --      1.8551                 2.0226                 6.5110
 Frc consts  --      0.6206                 0.7063                 2.4752
 IR Inten    --     31.1286                53.5124                13.2929

                     28                     29                     30
                      A                      A                      A
 Frequencies --    824.9528               857.4212               894.3652
 Red. masses --      1.6016                 1.4279                 6.4060
 Frc consts  --      0.6422                 0.6185                 3.0190
 IR Inten    --      0.4673                 0.7649                44.4774

                     31                     32                     33
                      A                      A                      A
 Frequencies --    919.9574               951.8336               956.1820
 Red. masses --      1.3483                 1.3442                 7.0700
 Frc consts  --      0.6723                 0.7175                 3.8084
 IR Inten    --      7.2417                 1.5612                 9.2480

                     34                     35                     36
                      A                      A                      A
 Frequencies --    964.0116               998.5368              1007.2344
 Red. masses --      1.3596                 1.2925                 1.0727
 Frc consts  --      0.7444                 0.7593                 0.6412
 IR Inten    --      0.3953                 1.8370                63.9073

                     37                     38                     39
                      A                      A                      A
 Frequencies --   1037.6404              1039.7940              1068.9570
 Red. masses --      2.2422                 2.1587                 4.6726
 Frc consts  --      1.4224                 1.3751                 3.1458
 IR Inten    --      2.6283                 0.7295                41.6319

                     40                     41                     42
                      A                      A                      A
 Frequencies --   1132.0830              1146.2948              1173.9822
 Red. masses --      1.4837                 1.3063                 1.1335
 Frc consts  --      1.1204                 1.0113                 0.9205
 IR Inten    --     60.6393                14.2252                 5.9160

                     43                     44                     45
                      A                      A                      A
 Frequencies --   1176.4060              1233.0147              1241.8270
 Red. masses --      1.1807                 4.2493                 1.9044
 Frc consts  --      0.9627                 3.8063                 1.7303
 IR Inten    --     41.1681               138.6060                95.7585

                     46                     47                     48
                      A                      A                      A
 Frequencies --   1278.8204              1296.2182              1364.3208
 Red. masses --      1.6710                 3.1190                 2.9716
 Frc consts  --      1.6101                 3.0876                 3.2590
 IR Inten    --     18.3784               283.5055                51.9656

                     49                     50                     51
                      A                      A                      A
 Frequencies --   1375.6965              1402.9971              1441.0383
 Red. masses --      4.7983                 2.0244                 2.5376
 Frc consts  --      5.3503                 2.3478                 3.1048
 IR Inten    --     40.8733                 3.4527               150.3160

                     52                     53                     54
                      A                      A                      A
 Frequencies --   1475.8849              1506.0189              1518.6158
 Red. masses --      3.2031                 3.5688                 3.8738
 Frc consts  --      4.1108                 4.7690                 5.2637
 IR Inten    --    104.0041               230.2645               148.8768

                     55                     56                     57
                      A                      A                      A
 Frequencies --   1524.3800              1550.1860              1590.6519
 Red. masses --      5.0599                 5.0685                 3.1062
 Frc consts  --      6.9276                 7.1762                 4.6305
 IR Inten    --    236.7039               448.1117               213.0535

                     58                     59                     60
                      A                      A                      A
 Frequencies --   1617.5640              1628.2061              1654.5888
 Red. masses --      2.9977                 4.3149                 5.2821
 Frc consts  --      4.6212                 6.7397                 8.5200
 IR Inten    --     53.2104               582.5054               119.4842

                     61                     62                     63
                      A                      A                      A
 Frequencies --   2695.1609              3204.2273              3207.5230
 Red. masses --      1.0805                 1.0869                 1.0858
 Frc consts  --      4.6244                 6.5746                 6.5819
 IR Inten    --    179.4094                 5.8961                 7.4673

                     64                     65                     66
                      A                      A                      A
 Frequencies --   3216.6227              3217.6168              3225.9687
 Red. masses --      1.0898                 1.0897                 1.0930
 Frc consts  --      6.6436                 6.6469                 6.7017
 IR Inten    --      3.1462                 2.3645                20.2642

                     67                     68                     69
                      A                      A                      A
 Frequencies --   3227.7105              3234.9525              3238.9492
 Red. masses --      1.0953                 1.0995                 1.0989
 Frc consts  --      6.7234                 6.7790                 6.7924
 IR Inten    --     11.2620                39.2723                22.3610

 - Thermochemistry -
 -------------------
 Temperature   298.150 Kelvin.  Pressure   1.00000 Atm.
 Atom     1 has atomic number  6 and mass  12.00000

 Molecular mass:   227.04049 amu.
 Principal axes and moments of inertia in atomic units:
                           1         2         3
     Eigenvalues --  1356.622636341.795997698.41855
           X           -0.69781   0.71629  -0.00001
           Y            0.71629   0.69781  -0.00002
           Z            0.00000   0.00002   1.00000
 This molecule is an asymmetric top.
 Rotational symmetry number  1.
 Warning -- assumption of classical behavior for rotation
           may cause significant error
 Rotational temperatures (Kelvin)      0.06385     0.01366     0.01125
 Rotational constants (GHZ):           1.33032     0.28458     0.23443
 Zero-point vibrational energy     487680.5 (Joules/Mol)
                                  116.55843 (Kcal/Mol)
 Warning -- explicit consideration of  19 degrees of freedom as
           vibrations may cause significant error
 Vibrational temperatures:     49.62    67.80   152.43   163.43   257.59
          (Kelvin)            321.23   381.80   384.85   441.08   561.47
                              564.87   629.20   705.62   715.58   719.63
                              732.43   757.15   792.04   834.22   916.72
                              976.68  1022.33  1023.27  1056.71  1084.11
                             1107.65  1155.71  1186.92  1233.64  1286.79
                             1323.61  1369.48  1375.73  1387.00  1436.67
                             1449.19  1492.93  1496.03  1537.99  1628.81
                             1649.26  1689.10  1692.59  1774.03  1786.71
                             1839.94  1864.97  1962.95  1979.32  2018.60
                             2073.33  2123.47  2166.83  2184.95  2193.24
                             2230.37  2288.59  2327.31  2342.63  2380.58
                             3877.74  4610.17  4614.91  4628.00  4629.43
                             4641.45  4643.96  4654.38  4660.13

 Zero-point correction=                           0.185748 (Hartree/Particle)
 Thermal correction to Energy=                    0.198124
 Thermal correction to Enthalpy=                  0.199069
 Thermal correction to Gibbs Free Energy=         0.145921
 Sum of electronic and zero-point Energies=          -1028.502689
 Sum of electronic and thermal Energies=             -1028.490312
 Sum of electronic and thermal Enthalpies=           -1028.489368
 Sum of electronic and thermal Free Energies=        -1028.542516

                     E (Thermal)             CV                S
                      KCal/Mol        Cal/Mol-Kelvin    Cal/Mol-Kelvin
 Total                  124.325             49.427            111.859
 Electronic               0.000              0.000              0.000
 Translational            0.889              2.981             42.162
 Rotational               0.889              2.981             32.560
 Vibrational            122.548             43.466             37.137
 Vibration     1          0.594              1.983              5.553
 Vibration     2          0.595              1.979              4.935
 Vibration     3          0.605              1.944              3.342
 Vibration     4          0.607              1.938              3.207
 Vibration     5          0.629              1.868              2.338
 Vibration     6          0.649              1.806              1.932
 Vibration     7          0.671              1.737              1.626
 Vibration     8          0.673              1.733              1.612
 Vibration     9          0.697              1.661              1.381
 Vibration    10          0.758              1.491              0.999
 Vibration    11          0.760              1.486              0.990
 Vibration    12          0.798              1.389              0.835
 Vibration    13          0.846              1.271              0.682
 Vibration    14          0.853              1.256              0.665
 Vibration    15          0.856              1.250              0.658
 Vibration    16          0.864              1.230              0.636
 Vibration    17          0.881              1.192              0.596
 Vibration    18          0.906              1.139              0.543
 Vibration    19          0.936              1.075              0.486

 Optimization completed.
    -- Stationary point found.
 Normal termination of Gaussian 16 at Mon Jul 13 14:32:20 2020.
