 Gaussian 16, Revision C.01,
 Gaussian 16:  ES64L-G16RevC.01  3-Jul-2019

 ----------------------------------------------------------------------
 #p opt=addgic freq td wb97xd/cc-pvdz nosymm int=ultrafine scrf=(solven
 t=CarbonTetraChloride)
 ----------------------------------------------------------------------

 ------------------------------------------------
 NM 2D-scan of HBT TD-WB97XD pVDZ in CTC Relaxed.
 ------------------------------------------------
 Symbolic Z-matrix:
 Charge =  0 Multiplicity = 1

 SCF Done:  E(RwB97XD) =  -1028.80622542     A.U. after   15 cycles
 Total Energy, E(TD-HF/TD-DFT) =  -1028.69066322
 SCF Done:  E(RwB97XD) =  -1028.79963009     A.U. after   14 cycles
 Total Energy, E(TD-HF/TD-DFT) =  -1028.69096464
 SCF Done:  E(RwB97XD) =  -1028.80442358     A.U. after   13 cycles
 Total Energy, E(TD-HF/TD-DFT) =  -1028.69261257
 SCF Done:  E(RwB97XD) =  -1028.80459878     A.U. after   11 cycles
 Total Energy, E(TD-HF/TD-DFT) =  -1028.69265426
 SCF Done:  E(RwB97XD) =  -1028.80454116     A.U. after   10 cycles
 Total Energy, E(TD-HF/TD-DFT) =  -1028.69266033
 SCF Done:  E(RwB97XD) =  -1028.80452645     A.U. after    9 cycles
 Total Energy, E(TD-HF/TD-DFT) =  -1028.69266098
 SCF Done:  E(RwB97XD) =  -1028.80452095     A.U. after    9 cycles
 Total Energy, E(TD-HF/TD-DFT) =  -1028.69266142
 Optimization completed.
    -- Stationary point found.
 Normal termination of Gaussian 16 at Mon Jul 13 15:19:41 2020.

 ----------------------------------------------------------------------
 #P Geom=AllCheck Guess=TCheck SCRF=Check GenChk RwB97XD TD(FC,Read)/CC
 -pVDZ Freq
 ----------------------------------------------------------------------

 Structure from the checkpoint file:  "config_7_14.chk"
 ------------------------------------------------
 NM 2D-scan of HBT TD-WB97XD pVDZ in CTC Relaxed.
 ------------------------------------------------
 Charge =  0 Multiplicity = 1

                          Input orientation:
 ---------------------------------------------------------------------
 Center     Atomic      Atomic             Coordinates (Angstroms)
 Number     Number       Type             X           Y           Z
 ---------------------------------------------------------------------
      1          6           0        1.580670   -3.274089   -0.000143
      2          6           0        0.989316   -2.012783   -0.000059
      3          6           0        1.760319   -0.811458    0.000050
      4          6           0        3.163313   -0.914536    0.000086
      5          6           0        3.744699   -2.175362   -0.000002
      6          6           0        2.970904   -3.348381   -0.000117
      7          1           0        0.967949   -4.176511   -0.000220
      8          1           0        3.773376   -0.010813    0.000178
      9          1           0        4.833073   -2.255523    0.000022
     10          1           0        3.460999   -4.322713   -0.000179
     11          7           0        1.007293    0.335089    0.000128
     12         16           0       -0.719814   -1.651586   -0.000039
     13          6           0       -1.326141    1.070552    0.000051
     14          6           0       -2.695023    0.769663    0.000112
     15          6           0       -0.906785    2.487405   -0.000053
     16          6           0       -3.650799    1.793923    0.000103
     17          1           0       -3.027253   -0.270532    0.000183
     18          6           0       -1.909777    3.485799   -0.000082
     19          6           0       -3.261928    3.143345    0.000009
     20          1           0       -4.710118    1.533166    0.000161
     21          1           0       -1.577768    4.524787   -0.000189
     22          1           0       -4.020997    3.926243   -0.000012
     23          6           0       -0.327385    0.066929    0.000052
     24          8           0        0.342697    2.789966   -0.000249
     25          1           0        1.071719    1.489835    0.000309
 ---------------------------------------------------------------------

 SCF Done:  E(RwB97XD) =  -1028.80452095     A.U. after    1 cycles

 Excitation energies and oscillator strengths:

 Excited state symmetry could not be determined.
 Excited State   1:      Singlet-?Sym    3.0439 eV  407.33 nm  f=0.4497  <S**2>=0.000
      59 -> 60         0.69544
 This state for optimization and/or second-order correction.
 Total Energy, E(TD-HF/TD-DFT) =  -1028.69266142
 Copying the excited state density for this state as the 1-particle RhoCI density.

 Excited state symmetry could not be determined.
 Excited State   2:      Singlet-?Sym    4.1223 eV  300.77 nm  f=0.0000  <S**2>=0.000
      56 -> 60         0.68566
      56 -> 62         0.11058
      56 -> 64         0.11524

 Excited state symmetry could not be determined.
 Excited State   3:      Singlet-?Sym    4.3105 eV  287.63 nm  f=0.3351  <S**2>=0.000
      58 -> 60         0.67868

 Alpha  occ. eigenvalues --  -89.10030 -19.22656 -14.51490 -10.41325 -10.37308
 Alpha  occ. eigenvalues --  -10.36433 -10.35960 -10.33051 -10.32581 -10.32218
 Alpha  occ. eigenvalues --  -10.32128 -10.31766 -10.31248 -10.31157 -10.29567
 Alpha  occ. eigenvalues --  -10.28949  -8.12051  -6.06910  -6.06558  -6.06079
 Alpha  occ. eigenvalues --   -1.12179  -1.09549  -0.97846  -0.95516  -0.93074
 Alpha  occ. eigenvalues --   -0.89024  -0.86324  -0.83653  -0.81826  -0.75823
 Alpha  occ. eigenvalues --   -0.71914  -0.71804  -0.68499  -0.67573  -0.64302
 Alpha  occ. eigenvalues --   -0.60964  -0.59496  -0.57108  -0.55249  -0.55183
 Alpha  occ. eigenvalues --   -0.54616  -0.53767  -0.52981  -0.50549  -0.49670
 Alpha  occ. eigenvalues --   -0.49012  -0.47969  -0.46680  -0.45240  -0.45180
 Alpha  occ. eigenvalues --   -0.44147  -0.43178  -0.41989  -0.40562  -0.36687
 Alpha  occ. eigenvalues --   -0.33396  -0.33214  -0.31296  -0.26717
 Alpha virt. eigenvalues --   -0.01944   0.04086   0.05950   0.06643   0.08683
 Alpha virt. eigenvalues --    0.10596   0.13984   0.14849   0.16412   0.17616
 Alpha virt. eigenvalues --    0.18637   0.20485   0.20833   0.21551   0.22729

 Mulliken charges:
               1
     1  C    0.019507
     2  C   -0.225929
     3  C    0.263611
     4  C   -0.014215
     5  C    0.009143
     6  C    0.000369
     7  H    0.023942
     8  H    0.028351
     9  H    0.025096
    10  H    0.025131
    11  N   -0.239916
    12  S    0.193176
    13  C   -0.099057
    14  C   -0.030462
    15  C    0.127020
    16  C   -0.028110
    17  H    0.013681
    18  C   -0.014311
    19  C    0.030474
    20  H    0.004048
    21  H    0.006758
    22  H    0.017256
    23  C    0.063805
    24  O   -0.416622
    25  H    0.217254
 Sum of Mulliken charges =  -0.00000

 Dipole moment (field-independent basis, Debye):
    X=              1.0031    Y=             -4.8593    Z=              0.0007  Tot=              4.9617
 Quadrupole moment (field-independent basis, Debye-Ang):
   XX=            -82.5361   YY=            -94.3540   ZZ=           -104.2572
   XY=             -6.8904   XZ=              0.0007   YZ=              0.0023

  Exact polarizability:     348.692    -127.585     306.071      -0.003       0.003      63.216
 Approx polarizability:     272.772     -34.840     264.528      -0.002       0.001      82.133

 ******    1 imaginary frequencies (negative Signs) ******

                      1                      2                      3
                      A                      A                      A
 Frequencies --   -437.2587                32.7586                71.2099
 Red. masses --      1.6418                 6.2749                 4.8136
 Frc consts  --      0.1849                 0.0040                 0.0144
 IR Inten    --   1071.3447                 1.5338                 0.3415

                      4                      5                      6
                      A                      A                      A
 Frequencies --    120.8983               151.5657               184.3467
 Red. masses --      5.9860                 5.4800                 6.3121
 Frc consts  --      0.0515                 0.0742                 0.1264
 IR Inten    --      0.4989                 4.2547                 0.2085

                      7                      8                      9
                      A                      A                      A
 Frequencies --    217.9536               269.6036               284.0858
 Red. masses --      5.5258                 4.6315                 6.8580
 Frc consts  --      0.1547                 0.1983                 0.3261
 IR Inten    --      0.1167                 0.0796                13.8610

                     10                     11                     12
                      A                      A                      A
 Frequencies --    362.9479               402.6300               419.8900
 Red. masses --      5.0082                 8.6554                 4.7647
 Frc consts  --      0.3887                 0.8267                 0.4949
 IR Inten    --      0.7147                28.5516               135.3828

                     13                     14                     15
                      A                      A                      A
 Frequencies --    437.4653               464.9720               504.4323
 Red. masses --      3.2793                 4.6420                 3.1844
 Frc consts  --      0.3698                 0.5913                 0.4774
 IR Inten    --      3.8307                 1.4539                 0.4427

                     16                     17                     18
                      A                      A                      A
 Frequencies --    507.1393               545.4628               558.7450
 Red. masses --      8.8463                 8.6913                 3.8703
 Frc consts  --      1.3405                 1.5236                 0.7119
 IR Inten    --      2.6743                 2.6048                 0.3472

                     19                     20                     21
                      A                      A                      A
 Frequencies --    572.4811               588.4568               669.2251
 Red. masses --      7.4124                 6.4545                 6.3429
 Frc consts  --      1.4313                 1.3169                 1.6737
 IR Inten    --     32.4523                22.8185                 8.4480

                     22                     23                     24
                      A                      A                      A
 Frequencies --    697.5593               720.8106               742.6450
 Red. masses --      1.5631                 6.3009                 2.5971
 Frc consts  --      0.4481                 1.9288                 0.8439
 IR Inten    --     41.1191                 5.5296                15.3748

                     25                     26                     27
                      A                      A                      A
 Frequencies --    761.4694               767.2774               770.3720
 Red. masses --      1.7569                 1.6796                 5.0332
 Frc consts  --      0.6002                 0.5826                 1.7599
 IR Inten    --      4.2052                86.7095                70.8868

                     28                     29                     30
                      A                      A                      A
 Frequencies --    823.8713               827.7789               868.6005
 Red. masses --      1.7843                 6.1523                 1.3841
 Frc consts  --      0.7136                 2.4838                 0.6153
 IR Inten    --      0.0920                20.5612                 0.9494

                     31                     32                     33
                      A                      A                      A
 Frequencies --    904.0578               932.3185               954.7222
 Red. masses --      1.3972                 5.7347                 1.3719
 Frc consts  --      0.6728                 2.9369                 0.7367
 IR Inten    --      5.5225                54.2096                 0.4156

                     34                     35                     36
                      A                      A                      A
 Frequencies --    956.9503              1003.2785              1027.8967
 Red. masses --      1.3508                 1.2976                 5.2027
 Frc consts  --      0.7288                 0.7696                 3.2387
 IR Inten    --      1.9538                 0.0002               189.4121

                     37                     38                     39
                      A                      A                      A
 Frequencies --   1044.8374              1050.8731              1102.6442
 Red. masses --      2.0539                 2.0708                 3.3784
 Frc consts  --      1.3210                 1.3474                 2.4201
 IR Inten    --      2.4612                 1.6697               121.0690

                     40                     41                     42
                      A                      A                      A
 Frequencies --   1130.1016              1147.8030              1155.0073
 Red. masses --      1.4937                 1.0552                 1.3496
 Frc consts  --      1.1240                 0.8191                 1.0607
 IR Inten    --      3.7720                71.2385                11.0138

                     43                     44                     45
                      A                      A                      A
 Frequencies --   1167.7807              1179.3058              1252.5826
 Red. masses --      1.2023                 1.1822                 1.7962
 Frc consts  --      0.9660                 0.9687                 1.6604
 IR Inten    --     77.4562                 8.4005                70.4771

                     46                     47                     48
                      A                      A                      A
 Frequencies --   1266.8657              1305.3770              1339.1390
 Red. masses --      2.5224                 2.2660                 4.4765
 Frc consts  --      2.3852                 2.2750                 4.7298
 IR Inten    --     29.7170                12.0282                14.1099

                     49                     50                     51
                      A                      A                      A
 Frequencies --   1353.9002              1381.7762              1404.3880
 Red. masses --      6.3219                 2.9511                 2.4332
 Frc consts  --      6.8276                 3.3198                 2.8275
 IR Inten    --    201.4029                80.2672                16.9919

                     52                     53                     54
                      A                      A                      A
 Frequencies --   1443.5896              1477.9399              1494.5147
 Red. masses --      3.0005                 3.4081                 3.8969
 Frc consts  --      3.6841                 4.3861                 5.1282
 IR Inten    --    580.6034                 3.9756               113.3207

                     55                     56                     57
                      A                      A                      A
 Frequencies --   1512.6215              1546.1381              1568.6489
 Red. masses --      3.8687                 5.1015                 4.5803
 Frc consts  --      5.2152                 7.1853                 6.6404
 IR Inten    --    127.1956                64.2959                33.6342

                     58                     59                     60
                      A                      A                      A
 Frequencies --   1621.6545              1626.9439              1659.8028
 Red. masses --      5.8606                 5.9037                 6.5102
 Frc consts  --      9.0805                 9.2070                10.5671
 IR Inten    --     95.6342               518.9450               101.6255

                     61                     62                     63
                      A                      A                      A
 Frequencies --   2080.4918              3204.8264              3209.9419
 Red. masses --      1.1105                 1.0873                 1.0860
 Frc consts  --      2.8322                 6.5797                 6.5931
 IR Inten    --    780.2252                22.2375                 4.0875

                     64                     65                     66
                      A                      A                      A
 Frequencies --   3217.2162              3219.4102              3227.1383
 Red. masses --      1.0878                 1.0904                 1.0933
 Frc consts  --      6.6338                 6.6584                 6.7084
 IR Inten    --      5.1314                 3.1700                17.2060

                     67                     68                     69
                      A                      A                      A
 Frequencies --   3230.1220              3236.9347              3238.9683
 Red. masses --      1.0955                 1.0995                 1.0986
 Frc consts  --      6.7343                 6.7874                 6.7902
 IR Inten    --      8.4684                19.2168                18.4445

 - Thermochemistry -
 -------------------
 Temperature   298.150 Kelvin.  Pressure   1.00000 Atm.
 Atom     1 has atomic number  6 and mass  12.00000

 Molecular mass:   227.04049 amu.
 Principal axes and moments of inertia in atomic units:
                           1         2         3
     Eigenvalues --  1299.110206340.972357640.08254
           X           -0.70176   0.71241   0.00001
           Y            0.71241   0.70176   0.00001
           Z            0.00000  -0.00001   1.00000
 This molecule is an asymmetric top.
 Rotational symmetry number  1.
 Warning -- assumption of classical behavior for rotation
           may cause significant error
 Rotational temperatures (Kelvin)      0.06667     0.01366     0.01134
 Rotational constants (GHZ):           1.38921     0.28462     0.23622
    1 imaginary frequencies ignored.
 Zero-point vibrational energy     479853.0 (Joules/Mol)
                                  114.68763 (Kcal/Mol)
 Warning -- explicit consideration of  19 degrees of freedom as
           vibrations may cause significant error
 Vibrational temperatures:     47.13   102.46   173.95   218.07   265.23
          (Kelvin)            313.59   387.90   408.74   522.20   579.29
                              604.13   629.41   668.99   725.77   729.66
                              784.80   803.91   823.67   846.66   962.87
                             1003.63  1037.09  1068.50  1095.58  1103.94
                             1108.39  1185.37  1190.99  1249.72  1300.74
                             1341.40  1373.63  1376.84  1443.49  1478.91
                             1503.29  1511.97  1586.46  1625.96  1651.43
                             1661.80  1680.18  1696.76  1802.19  1822.74
                             1878.15  1926.72  1947.96  1988.07  2020.60
                             2077.00  2126.43  2150.27  2176.32  2224.55
                             2256.94  2333.20  2340.81  2388.09  2993.36
                             4611.03  4618.39  4628.86  4632.01  4643.13
                             4647.43  4657.23  4660.15

 Zero-point correction=                           0.182766 (Hartree/Particle)
 Thermal correction to Energy=                    0.194708
 Thermal correction to Enthalpy=                  0.195652
 Thermal correction to Gibbs Free Energy=         0.143742
 Sum of electronic and zero-point Energies=          -1028.509895
 Sum of electronic and thermal Energies=             -1028.497953
 Sum of electronic and thermal Enthalpies=           -1028.497009
 Sum of electronic and thermal Free Energies=        -1028.548920

                     E (Thermal)             CV                S
                      KCal/Mol        Cal/Mol-Kelvin    Cal/Mol-Kelvin
 Total                  122.181             48.235            109.255
 Electronic               0.000              0.000              0.000
 Translational            0.889              2.981             42.162
 Rotational               0.889              2.981             32.509
 Vibrational            120.404             42.273             34.584
 Vibration     1          0.594              1.983              5.655
 Vibration     2          0.598              1.968              4.120
 Vibration     3          0.609              1.932              3.086
 Vibration     4          0.619              1.901              2.652
 Vibration     5          0.631              1.861              2.284
 Vibration     6          0.646              1.814              1.976
 Vibration     7          0.674              1.729              1.599
 Vibration     8          0.682              1.703              1.509
 Vibration     9          0.737              1.549              1.109
 Vibration    10          0.768              1.464              0.953
 Vibration    11          0.783              1.427              0.892
 Vibration    12          0.798              1.389              0.835
 Vibration    13          0.822              1.328              0.752
 Vibration    14          0.860              1.240              0.647
 Vibration    15          0.862              1.234              0.641
 Vibration    16          0.901              1.150              0.554
 Vibration    17          0.914              1.121              0.526
 Vibration    18          0.929              1.091              0.499
 Vibration    19          0.946              1.056              0.470

 Optimization completed.
    -- Stationary point found.
 Normal termination of Gaussian 16 at Mon Jul 13 15:37:35 2020.
