 Gaussian 16, Revision C.01,
 Gaussian 16:  ES64L-G16RevC.01  3-Jul-2019

 ----------------------------------------------------------------------
 #p opt=addgic freq td wb97xd/cc-pvdz nosymm int=ultrafine scrf=(solven
 t=CarbonTetraChloride)
 ----------------------------------------------------------------------

 ------------------------------------------------
 NM 2D-scan of HBT TD-WB97XD pVDZ in CTC Relaxed.
 ------------------------------------------------
 Symbolic Z-matrix:
 Charge =  0 Multiplicity = 1

 SCF Done:  E(RwB97XD) =  -1028.80388262     A.U. after   15 cycles
 Total Energy, E(TD-HF/TD-DFT) =  -1028.68491962
 SCF Done:  E(RwB97XD) =  -1028.80484327     A.U. after   11 cycles
 Total Energy, E(TD-HF/TD-DFT) =  -1028.68550647
 SCF Done:  E(RwB97XD) =  -1028.80460659     A.U. after   11 cycles
 Total Energy, E(TD-HF/TD-DFT) =  -1028.68557557
 SCF Done:  E(RwB97XD) =  -1028.80379263     A.U. after   12 cycles
 Total Energy, E(TD-HF/TD-DFT) =  -1028.68568698
 SCF Done:  E(RwB97XD) =  -1028.80354503     A.U. after   10 cycles
 Total Energy, E(TD-HF/TD-DFT) =  -1028.68569816
 SCF Done:  E(RwB97XD) =  -1028.80340327     A.U. after   10 cycles
 Total Energy, E(TD-HF/TD-DFT) =  -1028.68570165
 Optimization completed.
    -- Stationary point found.
 Normal termination of Gaussian 16 at Tue Jul 14 13:38:16 2020.

 ----------------------------------------------------------------------
 #P Geom=AllCheck Guess=TCheck SCRF=Check GenChk RwB97XD TD(FC,Read)/CC
 -pVDZ Freq
 ----------------------------------------------------------------------

 Structure from the checkpoint file:  "config_6_17.chk"
 ------------------------------------------------
 NM 2D-scan of HBT TD-WB97XD pVDZ in CTC Relaxed.
 ------------------------------------------------
 Charge =  0 Multiplicity = 1

                          Input orientation:
 ---------------------------------------------------------------------
 Center     Atomic      Atomic             Coordinates (Angstroms)
 Number     Number       Type             X           Y           Z
 ---------------------------------------------------------------------
      1          6           0        1.534128   -3.253498   -0.000048
      2          6           0        0.996574   -1.970917   -0.000045
      3          6           0        1.790573   -0.783048   -0.000022
      4          6           0        3.192660   -0.948488   -0.000009
      5          6           0        3.725508   -2.234282   -0.000011
      6          6           0        2.917070   -3.384093   -0.000029
      7          1           0        0.879904   -4.126292   -0.000063
      8          1           0        3.844967   -0.074573    0.000007
      9          1           0        4.810809   -2.351006    0.000002
     10          1           0        3.373282   -4.374655   -0.000028
     11          7           0        1.049389    0.376481   -0.000013
     12         16           0       -0.698792   -1.593060   -0.000065
     13          6           0       -1.308166    1.074336    0.000029
     14          6           0       -2.668382    0.728710    0.000065
     15          6           0       -0.917751    2.488797    0.000032
     16          6           0       -3.645271    1.725836    0.000053
     17          1           0       -2.969289   -0.319931    0.000094
     18          6           0       -1.940032    3.467837    0.000017
     19          6           0       -3.284953    3.086503    0.000021
     20          1           0       -4.698943    1.442731    0.000066
     21          1           0       -1.643648    4.517438    0.000005
     22          1           0       -4.063712    3.849767    0.000005
     23          6           0       -0.285927    0.104438   -0.000019
     24          8           0        0.343347    2.769637    0.000043
     25          1           0        1.010230    1.629930    0.000021
 ---------------------------------------------------------------------

 SCF Done:  E(RwB97XD) =  -1028.80340327     A.U. after    1 cycles

 Excitation energies and oscillator strengths:

 Excited state symmetry could not be determined.
 Excited State   1:      Singlet-?Sym    3.2028 eV  387.11 nm  f=0.4779  <S**2>=0.000
      59 -> 60         0.69397
 This state for optimization and/or second-order correction.
 Total Energy, E(TD-HF/TD-DFT) =  -1028.68570165
 Copying the excited state density for this state as the 1-particle RhoCI density.

 Excited state symmetry could not be determined.
 Excited State   2:      Singlet-?Sym    4.3322 eV  286.19 nm  f=0.2851  <S**2>=0.000
      58 -> 60         0.67282

 Excited state symmetry could not be determined.
 Excited State   3:      Singlet-?Sym    4.5381 eV  273.21 nm  f=0.0000  <S**2>=0.000
      56 -> 60         0.68805
      56 -> 64        -0.10511

 Alpha  occ. eigenvalues --  -89.09486 -19.24253 -14.50236 -10.40660 -10.36935
 Alpha  occ. eigenvalues --  -10.36845 -10.35416 -10.32662 -10.32387 -10.31974
 Alpha  occ. eigenvalues --  -10.31912 -10.31884 -10.31585 -10.31214 -10.29857
 Alpha  occ. eigenvalues --  -10.29543  -8.11588  -6.06431  -6.06083  -6.05631
 Alpha  occ. eigenvalues --   -1.12864  -1.09496  -0.97454  -0.95792  -0.92909
 Alpha  occ. eigenvalues --   -0.88931  -0.86020  -0.83699  -0.82170  -0.75782
 Alpha  occ. eigenvalues --   -0.71708  -0.71232  -0.68593  -0.67511  -0.63660
 Alpha  occ. eigenvalues --   -0.60942  -0.59363  -0.57666  -0.55366  -0.54797
 Alpha  occ. eigenvalues --   -0.54373  -0.53676  -0.52912  -0.50647  -0.49784
 Alpha  occ. eigenvalues --   -0.49404  -0.47182  -0.46477  -0.45527  -0.45060
 Alpha  occ. eigenvalues --   -0.44278  -0.43051  -0.42085  -0.40713  -0.36587
 Alpha  occ. eigenvalues --   -0.34822  -0.32789  -0.31277  -0.27357
 Alpha virt. eigenvalues --   -0.01825   0.04413   0.06208   0.07208   0.08208
 Alpha virt. eigenvalues --    0.10666   0.14539   0.14956   0.16857   0.17796
 Alpha virt. eigenvalues --    0.18677   0.20765   0.21092   0.21870   0.22634

 Mulliken charges:
               1
     1  C    0.022573
     2  C   -0.221141
     3  C    0.255421
     4  C   -0.019319
     5  C    0.006111
     6  C    0.001101
     7  H    0.021522
     8  H    0.025816
     9  H    0.023419
    10  H    0.023559
    11  N   -0.309717
    12  S    0.184098
    13  C   -0.096082
    14  C   -0.032259
    15  C    0.133505
    16  C   -0.023249
    17  H    0.019275
    18  C   -0.016180
    19  C    0.028716
    20  H    0.005883
    21  H    0.010910
    22  H    0.019530
    23  C    0.076772
    24  O   -0.386073
    25  H    0.245811
 Sum of Mulliken charges =  -0.00000

 Dipole moment (field-independent basis, Debye):
    X=              0.4363    Y=             -4.1304    Z=             -0.0001  Tot=              4.1533
 Quadrupole moment (field-independent basis, Debye-Ang):
   XX=            -82.7743   YY=            -92.8809   ZZ=           -104.2192
   XY=             -6.9484   XZ=              0.0000   YZ=             -0.0001

  Exact polarizability:     353.846    -136.958     316.176      -0.002       0.002      63.188
 Approx polarizability:     272.929     -34.469     261.380       0.000       0.001      82.210

 ******    1 imaginary frequencies (negative Signs) ******

                      1                      2                      3
                      A                      A                      A
 Frequencies --  -1365.9809                41.6555                62.1807
 Red. masses --      1.0632                 6.4211                 4.7472
 Frc consts  --      1.1689                 0.0066                 0.0108
 IR Inten    --   2061.1315                 1.4480                 0.0647

                      4                      5                      6
                      A                      A                      A
 Frequencies --    123.2572               148.5653               182.8594
 Red. masses --      5.8878                 5.6765                 6.6584
 Frc consts  --      0.0527                 0.0738                 0.1312
 IR Inten    --      0.1896                 1.6958                 0.5549

                      7                      8                      9
                      A                      A                      A
 Frequencies --    219.0632               271.6972               285.8202
 Red. masses --      5.4455                 4.6418                 7.4267
 Frc consts  --      0.1540                 0.2019                 0.3575
 IR Inten    --      0.0412                 0.0257                12.0141

                     10                     11                     12
                      A                      A                      A
 Frequencies --    367.2321               369.9044               417.9063
 Red. masses --      4.9241                 6.7033                10.7832
 Frc consts  --      0.3913                 0.5404                 1.1096
 IR Inten    --      0.3476                 5.3098                 4.5233

                     13                     14                     15
                      A                      A                      A
 Frequencies --    439.2757               468.2330               502.0445
 Red. masses --      3.2309                 4.7002                 3.1746
 Frc consts  --      0.3673                 0.6071                 0.4714
 IR Inten    --      3.8828                 0.6606                 0.3901

                     16                     17                     18
                      A                      A                      A
 Frequencies --    509.0337               546.7425               560.2312
 Red. masses --      8.8681                 8.6330                 3.8699
 Frc consts  --      1.3539                 1.5205                 0.7156
 IR Inten    --      3.5365                 3.2561                 0.2372

                     19                     20                     21
                      A                      A                      A
 Frequencies --    574.1585               593.2340               657.3369
 Red. masses --      7.6148                 6.7929                 6.7411
 Frc consts  --      1.4790                 1.4085                 1.7162
 IR Inten    --     19.2703                 6.6647                58.2030

                     22                     23                     24
                      A                      A                      A
 Frequencies --    700.0057               730.1415               743.1372
 Red. masses --      1.5611                 6.3900                 2.2883
 Frc consts  --      0.4507                 2.0071                 0.7446
 IR Inten    --     46.2707                 4.0391                22.4596

                     25                     26                     27
                      A                      A                      A
 Frequencies --    750.1609               756.6458               766.4645
 Red. masses --      8.6119                 1.7722                 1.7768
 Frc consts  --      2.8553                 0.5978                 0.6150
 IR Inten    --     33.5172                14.5247                69.0725

                     28                     29                     30
                      A                      A                      A
 Frequencies --    811.4937               835.2590               866.9772
 Red. masses --      1.8741                 6.2934                 1.3903
 Frc consts  --      0.7271                 2.5869                 0.6157
 IR Inten    --      0.4484                 8.8455                 0.9377

                     31                     32                     33
                      A                      A                      A
 Frequencies --    904.0251               909.8519               955.3628
 Red. masses --      1.3785                 6.7743                 1.3518
 Frc consts  --      0.6638                 3.3041                 0.7270
 IR Inten    --      4.7350                36.9685                 2.2410

                     34                     35                     36
                      A                      A                      A
 Frequencies --    955.9970               996.4272              1001.2695
 Red. masses --      1.3784                 7.7354                 1.2989
 Frc consts  --      0.7422                 4.5251                 0.7673
 IR Inten    --      0.0703                20.5822                 0.0024

                     37                     38                     39
                      A                      A                      A
 Frequencies --   1045.0526              1050.1165              1099.1290
 Red. masses --      2.0588                 2.0538                 3.5954
 Frc consts  --      1.3248                 1.3344                 2.5592
 IR Inten    --      6.8159                 3.0709                57.6822

                     40                     41                     42
                      A                      A                      A
 Frequencies --   1136.0029              1156.1333              1174.7643
 Red. masses --      1.4665                 1.4114                 1.1935
 Frc consts  --      1.1151                 1.1115                 0.9705
 IR Inten    --      7.9645                25.1083                66.1737

                     43                     44                     45
                      A                      A                      A
 Frequencies --   1177.9735              1218.9810              1255.3185
 Red. masses --      1.2118                 1.0495                 1.8984
 Frc consts  --      0.9908                 0.9188                 1.7625
 IR Inten    --     19.2355                69.8196                99.9236

                     46                     47                     48
                      A                      A                      A
 Frequencies --   1268.2835              1302.2164              1328.5030
 Red. masses --      2.3462                 2.6773                 3.2650
 Frc consts  --      2.2235                 2.6750                 3.3951
 IR Inten    --     44.0889                16.3580                 8.4520

                     49                     50                     51
                      A                      A                      A
 Frequencies --   1357.3379              1384.4613              1405.2656
 Red. masses --      6.1715                 2.5967                 3.3288
 Frc consts  --      6.6991                 2.9324                 3.8731
 IR Inten    --    237.3944                99.3702               124.0423

                     52                     53                     54
                      A                      A                      A
 Frequencies --   1446.3023              1474.0876              1501.3566
 Red. masses --      2.6825                 3.1231                 3.2239
 Frc consts  --      3.3060                 3.9984                 4.2815
 IR Inten    --    305.4653                23.7473                38.5208

                     55                     56                     57
                      A                      A                      A
 Frequencies --   1515.1242              1552.7578              1569.6445
 Red. masses --      4.9102                 4.8674                 5.0891
 Frc consts  --      6.6412                 6.9145                 7.3874
 IR Inten    --    370.5506                62.8729                58.5785

                     58                     59                     60
                      A                      A                      A
 Frequencies --   1618.8693              1632.2933              1655.7574
 Red. masses --      5.9776                 5.8321                 6.3765
 Frc consts  --      9.2300                 9.1553                10.2997
 IR Inten    --     41.7517               933.9225               115.1890

                     61                     62                     63
                      A                      A                      A
 Frequencies --   1874.4903              3206.1981              3210.9645
 Red. masses --      1.1012                 1.0862                 1.0861
 Frc consts  --      2.2798                 6.5784                 6.5974
 IR Inten    --    263.3644                 5.9830                14.8897

                     64                     65                     66
                      A                      A                      A
 Frequencies --   3216.0849              3220.3535              3226.7613
 Red. masses --      1.0902                 1.0886                 1.0951
 Frc consts  --      6.6437                 6.6513                 6.7182
 IR Inten    --      2.3927                15.6529                 9.0811

                     67                     68                     69
                      A                      A                      A
 Frequencies --   3229.0827              3234.4198              3239.9055
 Red. masses --      1.0942                 1.0995                 1.0983
 Frc consts  --      6.7219                 6.7769                 6.7925
 IR Inten    --     13.0651                22.3262                17.3960

 - Thermochemistry -
 -------------------
 Temperature   298.150 Kelvin.  Pressure   1.00000 Atm.
 Atom     1 has atomic number  6 and mass  12.00000

 Molecular mass:   227.04049 amu.
 Principal axes and moments of inertia in atomic units:
                           1         2         3
     Eigenvalues --  1281.485176296.729637578.21480
           X           -0.70441   0.70979  -0.00000
           Y            0.70979   0.70441  -0.00001
           Z            0.00001   0.00001   1.00000
 This molecule is an asymmetric top.
 Rotational symmetry number  1.
 Warning -- assumption of classical behavior for rotation
           may cause significant error
 Rotational temperatures (Kelvin)      0.06759     0.01376     0.01143
 Rotational constants (GHZ):           1.40832     0.28662     0.23815
    1 imaginary frequencies ignored.
 Zero-point vibrational energy     478552.0 (Joules/Mol)
                                  114.37667 (Kcal/Mol)
 Warning -- explicit consideration of  19 degrees of freedom as
           vibrations may cause significant error
 Vibrational temperatures:     59.93    89.46   177.34   213.75   263.09
          (Kelvin)            315.18   390.91   411.23   528.37   532.21
                              601.27   632.02   673.68   722.33   732.39
                              786.64   806.05   826.09   853.53   945.76
                             1007.15  1050.51  1069.21  1079.31  1088.64
                             1102.77  1167.56  1201.75  1247.39  1300.69
                             1309.07  1374.55  1375.47  1433.64  1440.60
                             1503.60  1510.88  1581.40  1634.45  1663.42
                             1690.22  1694.84  1753.84  1806.12  1824.78
                             1873.60  1911.42  1952.91  1991.93  2021.86
                             2080.91  2120.88  2160.12  2179.93  2234.07
                             2258.37  2329.19  2348.51  2382.27  2696.97
                             4613.00  4619.86  4627.23  4633.37  4642.59
                             4645.93  4653.61  4661.50

 Zero-point correction=                           0.182271 (Hartree/Particle)
 Thermal correction to Energy=                    0.194244
 Thermal correction to Enthalpy=                  0.195188
 Thermal correction to Gibbs Free Energy=         0.143338
 Sum of electronic and zero-point Energies=          -1028.503431
 Sum of electronic and thermal Energies=             -1028.491458
 Sum of electronic and thermal Enthalpies=           -1028.490513
 Sum of electronic and thermal Free Energies=        -1028.542363

                     E (Thermal)             CV                S
                      KCal/Mol        Cal/Mol-Kelvin    Cal/Mol-Kelvin
 Total                  121.890             48.342            109.128
 Electronic               0.000              0.000              0.000
 Translational            0.889              2.981             42.162
 Rotational               0.889              2.981             32.481
 Vibrational            120.113             42.381             34.485
 Vibration     1          0.594              1.981              5.179
 Vibration     2          0.597              1.972              4.387
 Vibration     3          0.610              1.930              3.049
 Vibration     4          0.618              1.904              2.691
 Vibration     5          0.630              1.863              2.299
 Vibration     6          0.647              1.812              1.967
 Vibration     7          0.675              1.725              1.585
 Vibration     8          0.684              1.700              1.499
 Vibration     9          0.740              1.540              1.091
 Vibration    10          0.742              1.534              1.080
 Vibration    11          0.781              1.431              0.899
 Vibration    12          0.799              1.385              0.829
 Vibration    13          0.825              1.321              0.743
 Vibration    14          0.857              1.245              0.653
 Vibration    15          0.864              1.230              0.636
 Vibration    16          0.902              1.147              0.551
 Vibration    17          0.916              1.117              0.523
 Vibration    18          0.930              1.087              0.496
 Vibration    19          0.951              1.046              0.461

 Optimization completed.
    -- Stationary point found.
 Normal termination of Gaussian 16 at Tue Jul 14 13:57:42 2020.
