 Gaussian 16, Revision C.01,
 Gaussian 16:  ES64L-G16RevC.01  3-Jul-2019

 ----------------------------------------------------------------------
 #p opt=addgic freq td wb97xd/cc-pvdz nosymm int=ultrafine scrf=(solven
 t=CarbonTetraChloride)
 ----------------------------------------------------------------------

 ------------------------------------------------
 NM 2D-scan of HBT TD-WB97XD pVDZ in CTC Relaxed.
 ------------------------------------------------
 Symbolic Z-matrix:
 Charge =  0 Multiplicity = 1

 SCF Done:  E(RwB97XD) =  -1028.76880785     A.U. after   16 cycles
 Total Energy, E(TD-HF/TD-DFT) =  -1028.66126606
 SCF Done:  E(RwB97XD) =  -1028.79778519     A.U. after   13 cycles
 Total Energy, E(TD-HF/TD-DFT) =  -1028.69554091
 SCF Done:  E(RwB97XD) =  -1028.80371402     A.U. after   13 cycles
 Total Energy, E(TD-HF/TD-DFT) =  -1028.69915602
 SCF Done:  E(RwB97XD) =  -1028.80335665     A.U. after   12 cycles
 Total Energy, E(TD-HF/TD-DFT) =  -1028.69967381
 SCF Done:  E(RwB97XD) =  -1028.80352602     A.U. after   10 cycles
 Total Energy, E(TD-HF/TD-DFT) =  -1028.69970661
 Optimization completed.
    -- Stationary point found.
 Normal termination of Gaussian 16 at Mon Jul 13 16:36:16 2020.

 ----------------------------------------------------------------------
 #P Geom=AllCheck Guess=TCheck SCRF=Check GenChk RwB97XD TD(FC,Read)/CC
 -pVDZ Freq
 ----------------------------------------------------------------------

 Structure from the checkpoint file:  "config_10_10.chk"
 ------------------------------------------------
 NM 2D-scan of HBT TD-WB97XD pVDZ in CTC Relaxed.
 ------------------------------------------------
 Charge =  0 Multiplicity = 1

                          Input orientation:
 ---------------------------------------------------------------------
 Center     Atomic      Atomic             Coordinates (Angstroms)
 Number     Number       Type             X           Y           Z
 ---------------------------------------------------------------------
      1          6           0        1.655093   -3.290295    0.000000
      2          6           0        1.011811   -2.057096   -0.000008
      3          6           0        1.751053   -0.862587   -0.000029
      4          6           0        3.152471   -0.880476   -0.000041
      5          6           0        3.785628   -2.117096   -0.000033
      6          6           0        3.050665   -3.310194   -0.000013
      7          1           0        1.083743   -4.218920    0.000017
      8          1           0        3.717169    0.052185   -0.000057
      9          1           0        4.875951   -2.156996   -0.000042
     10          1           0        3.572511   -4.267689   -0.000008
     11          7           0        0.939360    0.229012   -0.000038
     12         16           0       -0.721112   -1.705751    0.000008
     13          6           0       -1.378228    1.079126    0.000006
     14          6           0       -2.745198    0.841996   -0.000016
     15          6           0       -0.893236    2.482897    0.000050
     16          6           0       -3.688557    1.906961    0.000012
     17          1           0       -3.119685   -0.184905   -0.000057
     18          6           0       -1.889309    3.511290    0.000072
     19          6           0       -3.262015    3.230707    0.000057
     20          1           0       -4.752829    1.667098   -0.000003
     21          1           0       -1.519689    4.538387    0.000110
     22          1           0       -3.989980    4.043254    0.000078
     23          6           0       -0.405962    0.018144   -0.000013
     24          8           0        0.339457    2.737915    0.000066
     25          1           0        1.263303    1.194257   -0.000031
 ---------------------------------------------------------------------

 SCF Done:  E(RwB97XD) =  -1028.80352602     A.U. after    1 cycles

 Excitation energies and oscillator strengths:

 Excited state symmetry could not be determined.
 Excited State   1:      Singlet-?Sym    2.8251 eV  438.87 nm  f=0.4383  <S**2>=0.000
      59 -> 60         0.69683
 This state for optimization and/or second-order correction.
 Total Energy, E(TD-HF/TD-DFT) =  -1028.69970662
 Copying the excited state density for this state as the 1-particle RhoCI density.

 Excited state symmetry could not be determined.
 Excited State   2:      Singlet-?Sym    3.5487 eV  349.38 nm  f=0.0000  <S**2>=0.000
      58 -> 60         0.68350
      58 -> 62         0.11719
      58 -> 64         0.11209

 Excited state symmetry could not be determined.
 Excited State   3:      Singlet-?Sym    4.3176 eV  287.16 nm  f=0.4378  <S**2>=0.000
      57 -> 60         0.68174

 Alpha  occ. eigenvalues --  -89.10608 -19.20784 -14.52517 -10.42283 -10.37439
 Alpha  occ. eigenvalues --  -10.36297 -10.35716 -10.33513 -10.33127 -10.32711
 Alpha  occ. eigenvalues --  -10.32482 -10.31457 -10.31083 -10.30668 -10.29120
 Alpha  occ. eigenvalues --  -10.28244  -8.12587  -6.07466  -6.07087  -6.06607
 Alpha  occ. eigenvalues --   -1.13161  -1.09240  -0.98502  -0.95345  -0.93268
 Alpha  occ. eigenvalues --   -0.89144  -0.86702  -0.84002  -0.80974  -0.75988
 Alpha  occ. eigenvalues --   -0.73633  -0.72036  -0.69051  -0.67584  -0.65060
 Alpha  occ. eigenvalues --   -0.61024  -0.59767  -0.56595  -0.56088  -0.55802
 Alpha  occ. eigenvalues --   -0.55035  -0.53716  -0.53091  -0.50643  -0.48873
 Alpha  occ. eigenvalues --   -0.48733  -0.48374  -0.47002  -0.45535  -0.44838
 Alpha  occ. eigenvalues --   -0.44251  -0.42910  -0.42174  -0.40074  -0.36884
 Alpha  occ. eigenvalues --   -0.33735  -0.31495  -0.31363  -0.25685
 Alpha virt. eigenvalues --   -0.02130   0.03639   0.05781   0.06442   0.09445
 Alpha virt. eigenvalues --    0.10758   0.13015   0.14577   0.16120   0.17115
 Alpha virt. eigenvalues --    0.18475   0.19964   0.20881   0.21299   0.22867

 Mulliken charges:
               1
     1  C    0.016257
     2  C   -0.244820
     3  C    0.248511
     4  C   -0.009827
     5  C    0.013176
     6  C    0.001654
     7  H    0.026215
     8  H    0.032396
     9  H    0.028360
    10  H    0.027332
    11  N   -0.110539
    12  S    0.200769
    13  C   -0.092702
    14  C   -0.030063
    15  C    0.113011
    16  C   -0.037254
    17  H    0.005077
    18  C   -0.036160
    19  C    0.033847
    20  H    0.001596
    21  H    0.000253
    22  H    0.014080
    23  C    0.067203
    24  O   -0.400147
    25  H    0.131775
 Sum of Mulliken charges =  -0.00000

 Dipole moment (field-independent basis, Debye):
    X=              2.1119    Y=             -5.8411    Z=             -0.0002  Tot=              6.2112
 Quadrupole moment (field-independent basis, Debye-Ang):
   XX=            -81.9933   YY=            -96.0606   ZZ=           -104.2001
   XY=             -6.4139   XZ=             -0.0002   YZ=             -0.0003

  Exact polarizability:     348.347    -121.362     296.210      -0.002       0.002      63.271
 Approx polarizability:     274.519     -38.102     265.266      -0.001       0.002      82.030

 ******    1 imaginary frequencies (negative Signs) ******

                      1                      2                      3
                      A                      A                      A
 Frequencies --    -55.2340                44.9574               108.6333
 Red. masses --      5.9222                 6.4814                 5.2080
 Frc consts  --      0.0106                 0.0077                 0.0362
 IR Inten    --      1.6566                 1.6321                 0.3676

                      4                      5                      6
                      A                      A                      A
 Frequencies --    111.5011               176.8857               225.9307
 Red. masses --      5.7417                 5.3693                 5.4821
 Frc consts  --      0.0421                 0.0990                 0.1649
 IR Inten    --      8.2619                 0.0510                 0.3264

                      7                      8                      9
                      A                      A                      A
 Frequencies --    265.3087               272.2918               305.3634
 Red. masses --      7.7387                 4.5773                 7.6958
 Frc consts  --      0.3209                 0.2000                 0.4228
 IR Inten    --      1.5838                 0.9683                 3.5298

                     10                     11                     12
                      A                      A                      A
 Frequencies --    348.6971               382.5903               429.9833
 Red. masses --      4.6774                 8.0290                 3.4911
 Frc consts  --      0.3351                 0.6924                 0.3803
 IR Inten    --      0.9771                 7.2096                 3.6208

                     13                     14                     15
                      A                      A                      A
 Frequencies --    449.9280               501.7439               511.3535
 Red. masses --      4.4716                 8.3792                 3.2103
 Frc consts  --      0.5333                 1.2428                 0.4946
 IR Inten    --      3.6046                10.6039                 0.4205

                     16                     17                     18
                      A                      A                      A
 Frequencies --    540.7468               553.5107               557.3717
 Red. masses --      8.6789                 6.6711                 3.8045
 Frc consts  --      1.4952                 1.2042                 0.6964
 IR Inten    --     10.2450                38.9706                 1.1160

                     19                     20                     21
                      A                      A                      A
 Frequencies --    567.7480               637.7078               688.9129
 Red. masses --      7.2842                 6.1429                 1.5339
 Frc consts  --      1.3834                 1.4719                 0.4289
 IR Inten    --     11.0643                39.8317                45.5231

                     22                     23                     24
                      A                      A                      A
 Frequencies --    708.1390               732.2817               741.8043
 Red. masses --      6.1213                 8.0375                 2.0384
 Frc consts  --      1.8086                 2.5394                 0.6609
 IR Inten    --      2.0202                 4.1596                 5.5697

                     25                     26                     27
                      A                      A                      A
 Frequencies --    755.1244               764.1965               773.3078
 Red. masses --      1.4777                 1.6154                 1.4140
 Frc consts  --      0.4965                 0.5558                 0.4982
 IR Inten    --      1.8542                 0.9182               157.5194

                     28                     29                     30
                      A                      A                      A
 Frequencies --    817.1437               839.1028               866.6121
 Red. masses --      6.3572                 1.8429                 1.3815
 Frc consts  --      2.5010                 0.7645                 0.6113
 IR Inten    --     17.9605                 1.2550                 1.8723

                     31                     32                     33
                      A                      A                      A
 Frequencies --    883.7266               903.6591               953.2262
 Red. masses --      4.8050                 1.4304                 1.3618
 Frc consts  --      2.2109                 0.6882                 0.7291
 IR Inten    --      2.1159                 8.8345                 0.7456

                     34                     35                     36
                      A                      A                      A
 Frequencies --    957.6909               958.7533              1004.3840
 Red. masses --      1.3500                 5.1555                 1.2954
 Frc consts  --      0.7295                 2.7921                 0.7700
 IR Inten    --      1.6630                 0.7904                 0.0105

                     37                     38                     39
                      A                      A                      A
 Frequencies --   1047.2058              1053.2496              1084.7332
 Red. masses --      2.1869                 2.1219                 4.1495
 Frc consts  --      1.4130                 1.3869                 2.8767
 IR Inten    --      0.4507                 8.0925                 1.3894

                     40                     41                     42
                      A                      A                      A
 Frequencies --   1106.4391              1152.1048              1159.6525
 Red. masses --      1.6108                 1.3162                 1.2000
 Frc consts  --      1.1619                 1.0293                 0.9508
 IR Inten    --     38.9163                 9.0966                69.0069

                     43                     44                     45
                      A                      A                      A
 Frequencies --   1180.1927              1200.8083              1250.0336
 Red. masses --      1.1502                 1.6344                 2.1870
 Frc consts  --      0.9439                 1.3885                 2.0134
 IR Inten    --     38.0377                68.5486                28.6860

                     46                     47                     48
                      A                      A                      A
 Frequencies --   1273.2360              1296.8242              1339.2466
 Red. masses --      2.0848                 1.7809                 5.1400
 Frc consts  --      1.9913                 1.7647                 5.4317
 IR Inten    --     79.8890                 1.3764                15.1524

                     49                     50                     51
                      A                      A                      A
 Frequencies --   1367.8718              1397.8441              1398.5466
 Red. masses --      3.3761                 2.3998                 3.5127
 Frc consts  --      3.7219                 2.7628                 4.0480
 IR Inten    --    107.5153                16.4781                32.8709

                     52                     53                     54
                      A                      A                      A
 Frequencies --   1440.0804              1477.3392              1511.5108
 Red. masses --      2.9926                 2.9969                 3.0005
 Frc consts  --      3.6565                 3.8538                 4.0389
 IR Inten    --    223.7965                 2.3742                33.9419

                     55                     56                     57
                      A                      A                      A
 Frequencies --   1526.3305              1560.7067              1590.7478
 Red. masses --      3.8997                 5.1629                 4.9964
 Frc consts  --      5.3528                 7.4094                 7.4492
 IR Inten    --     50.0400               199.3815               108.4086

                     58                     59                     60
                      A                      A                      A
 Frequencies --   1626.4930              1658.9190              1670.2286
 Red. masses --      7.0464                 6.7283                 6.9216
 Frc consts  --     10.9831                10.9095                11.3765
 IR Inten    --    158.7714                 8.5881               167.0566

                     61                     62                     63
                      A                      A                      A
 Frequencies --   3191.6821              3209.7429              3214.0265
 Red. masses --      1.0888                 1.0863                 1.0863
 Frc consts  --      6.5351                 6.5938                 6.6113
 IR Inten    --     23.1392                 2.2278                 4.8150

                     64                     65                     66
                      A                      A                      A
 Frequencies --   3221.0130              3224.7707              3233.9787
 Red. masses --      1.0919                 1.0903                 1.0990
 Frc consts  --      6.6742                 6.6804                 6.7718
 IR Inten    --     14.5726                 3.2345                27.4227

                     67                     68                     69
                      A                      A                      A
 Frequencies --   3234.2879              3241.1323              3502.7743
 Red. masses --      1.0958                 1.0996                 1.0828
 Frc consts  --      6.7535                 6.8058                 7.8274
 IR Inten    --      7.8088                12.6312               617.8612

 - Thermochemistry -
 -------------------
 Temperature   298.150 Kelvin.  Pressure   1.00000 Atm.
 Atom     1 has atomic number  6 and mass  12.00000

 Molecular mass:   227.04049 amu.
 Principal axes and moments of inertia in atomic units:
                           1         2         3
     Eigenvalues --  1292.747816464.960207757.70802
           X           -0.70345   0.71074   0.00000
           Y            0.71074   0.70345  -0.00001
           Z            0.00001   0.00000   1.00000
 This molecule is an asymmetric top.
 Rotational symmetry number  1.
 Warning -- assumption of classical behavior for rotation
           may cause significant error
 Rotational temperatures (Kelvin)      0.06700     0.01340     0.01116
 Rotational constants (GHZ):           1.39605     0.27916     0.23264
    1 imaginary frequencies ignored.
 Zero-point vibrational energy     490373.6 (Joules/Mol)
                                  117.20211 (Kcal/Mol)
 Warning -- explicit consideration of  18 degrees of freedom as
           vibrations may cause significant error
 Vibrational temperatures:     64.68   156.30   160.43   254.50   325.06
          (Kelvin)            381.72   391.77   439.35   501.70   550.46
                              618.65   647.35   721.90   735.72   778.01
                              796.38   801.93   816.86   917.52   991.19
                             1018.85  1053.59  1067.29  1086.46  1099.51
                             1112.62  1175.69  1207.28  1246.86  1271.49
                             1300.16  1371.48  1377.90  1379.43  1445.08
                             1506.70  1515.39  1560.69  1591.92  1657.62
                             1668.48  1698.03  1727.70  1798.52  1831.90
                             1865.84  1926.88  1968.06  2011.19  2012.20
                             2071.95  2125.56  2174.73  2196.05  2245.51
                             2288.73  2340.16  2386.81  2403.09  4592.12
                             4618.10  4624.27  4634.32  4639.73  4652.97
                             4653.42  4663.27  5039.71

 Zero-point correction=                           0.186773 (Hartree/Particle)
 Thermal correction to Energy=                    0.198362
 Thermal correction to Enthalpy=                  0.199306
 Thermal correction to Gibbs Free Energy=         0.148644
 Sum of electronic and zero-point Energies=          -1028.512933
 Sum of electronic and thermal Energies=             -1028.501345
 Sum of electronic and thermal Enthalpies=           -1028.500401
 Sum of electronic and thermal Free Energies=        -1028.551063

                     E (Thermal)             CV                S
                      KCal/Mol        Cal/Mol-Kelvin    Cal/Mol-Kelvin
 Total                  124.474             47.781            106.627
 Electronic               0.000              0.000              0.000
 Translational            0.889              2.981             42.162
 Rotational               0.889              2.981             32.539
 Vibrational            122.696             41.819             31.926
 Vibration     1          0.595              1.979              5.028
 Vibration     2          0.606              1.942              3.293
 Vibration     3          0.607              1.940              3.243
 Vibration     4          0.628              1.871              2.361
 Vibration     5          0.650              1.802              1.911
 Vibration     6          0.671              1.737              1.627
 Vibration     7          0.675              1.724              1.582
 Vibration     8          0.696              1.664              1.387
 Vibration     9          0.726              1.578              1.172
 Vibration    10          0.752              1.507              1.029
 Vibration    11          0.791              1.405              0.859
 Vibration    12          0.809              1.361              0.796
 Vibration    13          0.857              1.246              0.654
 Vibration    14          0.866              1.225              0.630
 Vibration    15          0.896              1.160              0.564
 Vibration    16          0.909              1.132              0.537
 Vibration    17          0.913              1.124              0.529
 Vibration    18          0.924              1.101              0.509

 Optimization completed.
    -- Stationary point found.
 Normal termination of Gaussian 16 at Mon Jul 13 16:54:03 2020.
