 Gaussian 16, Revision C.01,
 Gaussian 16:  ES64L-G16RevC.01  3-Jul-2019

 ----------------------------------------------------------------------
 #p opt=addgic freq td wb97xd/cc-pvdz nosymm int=ultrafine scrf=(solven
 t=CarbonTetraChloride)
 ----------------------------------------------------------------------

 ------------------------------------------------
 NM 2D-scan of HBT TD-WB97XD pVDZ in CTC Relaxed.
 ------------------------------------------------
 Symbolic Z-matrix:
 Charge =  0 Multiplicity = 1

 SCF Done:  E(RwB97XD) =  -1028.81333159     A.U. after   15 cycles
 Total Energy, E(TD-HF/TD-DFT) =  -1028.68864756
 SCF Done:  E(RwB97XD) =  -1028.81378958     A.U. after   11 cycles
 Total Energy, E(TD-HF/TD-DFT) =  -1028.68876514
 SCF Done:  E(RwB97XD) =  -1028.81416421     A.U. after   11 cycles
 Total Energy, E(TD-HF/TD-DFT) =  -1028.68875644
 SCF Done:  E(RwB97XD) =  -1028.81391991     A.U. after   10 cycles
 Total Energy, E(TD-HF/TD-DFT) =  -1028.68882903
 Optimization completed.
    -- Stationary point found.
 Normal termination of Gaussian 16 at Mon Jul 13 13:51:36 2020.

 ----------------------------------------------------------------------
 #P Geom=AllCheck Guess=TCheck SCRF=Check GenChk RwB97XD TD(FC,Read)/CC
 -pVDZ Freq
 ----------------------------------------------------------------------

 Structure from the checkpoint file:  "config_5_15.chk"
 ------------------------------------------------
 NM 2D-scan of HBT TD-WB97XD pVDZ in CTC Relaxed.
 ------------------------------------------------
 Charge =  0 Multiplicity = 1

                          Input orientation:
 ---------------------------------------------------------------------
 Center     Atomic      Atomic             Coordinates (Angstroms)
 Number     Number       Type             X           Y           Z
 ---------------------------------------------------------------------
      1          6           0        1.561985   -3.252251   -0.000031
      2          6           0        1.000039   -1.981352   -0.000024
      3          6           0        1.775276   -0.782108   -0.000019
      4          6           0        3.184749   -0.920836   -0.000025
      5          6           0        3.739103   -2.195245   -0.000031
      6          6           0        2.947577   -3.358593   -0.000033
      7          1           0        0.925248   -4.137934   -0.000033
      8          1           0        3.818739   -0.033355   -0.000022
      9          1           0        4.826203   -2.295837   -0.000034
     10          1           0        3.419876   -4.341721   -0.000037
     11          7           0        1.024837    0.354288   -0.000010
     12         16           0       -0.702597   -1.622196   -0.000021
     13          6           0       -1.322674    1.060657    0.000030
     14          6           0       -2.694925    0.747916    0.000042
     15          6           0       -0.911528    2.468377    0.000040
     16          6           0       -3.646684    1.765882    0.000033
     17          1           0       -3.014375   -0.295219    0.000048
     18          6           0       -1.906146    3.471953    0.000022
     19          6           0       -3.259233    3.122085    0.000017
     20          1           0       -4.706790    1.507188    0.000036
     21          1           0       -1.586183    4.514582    0.000021
     22          1           0       -4.021727    3.901631    0.000005
     23          6           0       -0.310525    0.081716    0.000000
     24          8           0        0.361405    2.723725    0.000067
     25          1           0        0.919977    1.744060    0.000066
 ---------------------------------------------------------------------

 SCF Done:  E(RwB97XD) =  -1028.81391991     A.U. after    1 cycles

 Excitation energies and oscillator strengths:

 Excited state symmetry could not be determined.
 Excited State   1:      Singlet-?Sym    3.4039 eV  364.24 nm  f=0.5670  <S**2>=0.000
      59 -> 60        -0.69134
 This state for optimization and/or second-order correction.
 Total Energy, E(TD-HF/TD-DFT) =  -1028.68882899
 Copying the excited state density for this state as the 1-particle RhoCI density.

 Excited state symmetry could not be determined.
 Excited State   2:      Singlet-?Sym    4.3809 eV  283.01 nm  f=0.2603  <S**2>=0.000
      57 -> 60         0.17119
      58 -> 60         0.64921
      59 -> 64        -0.10379

 Excited state symmetry could not be determined.
 Excited State   3:      Singlet-?Sym    4.7023 eV  263.67 nm  f=0.0814  <S**2>=0.000
      57 -> 60         0.58965
      57 -> 62        -0.15061
      58 -> 60        -0.17515
      58 -> 61        -0.15848
      59 -> 61        -0.21122

 Alpha  occ. eigenvalues --  -89.09104 -19.26475 -14.48301 -10.40027 -10.37624
 Alpha  occ. eigenvalues --  -10.35886 -10.34898 -10.32306 -10.32126 -10.31968
 Alpha  occ. eigenvalues --  -10.31868 -10.31734 -10.31645 -10.31582 -10.30220
 Alpha  occ. eigenvalues --  -10.30137  -8.11188  -6.06026  -6.05681  -6.05246
 Alpha  occ. eigenvalues --   -1.15311  -1.08875  -0.96990  -0.95845  -0.92462
 Alpha  occ. eigenvalues --   -0.88860  -0.85423  -0.84080  -0.82408  -0.75879
 Alpha  occ. eigenvalues --   -0.71322  -0.70667  -0.68951  -0.67879  -0.63588
 Alpha  occ. eigenvalues --   -0.60726  -0.59113  -0.58409  -0.55722  -0.54381
 Alpha  occ. eigenvalues --   -0.54309  -0.53410  -0.53009  -0.50785  -0.50019
 Alpha  occ. eigenvalues --   -0.49611  -0.46926  -0.46180  -0.45694  -0.44889
 Alpha  occ. eigenvalues --   -0.44249  -0.42662  -0.42604  -0.40383  -0.36511
 Alpha  occ. eigenvalues --   -0.36365  -0.32331  -0.31328  -0.27946
 Alpha virt. eigenvalues --   -0.01728   0.04818   0.06682   0.07569   0.07590
 Alpha virt. eigenvalues --    0.10860   0.14563   0.15099   0.16887   0.17952
 Alpha virt. eigenvalues --    0.18670   0.21052   0.21577   0.22368   0.22463

 Mulliken charges:
               1
     1  C    0.021390
     2  C   -0.224176
     3  C    0.244846
     4  C   -0.020662
     5  C    0.005514
     6  C   -0.001404
     7  H    0.018866
     8  H    0.021877
     9  H    0.021174
    10  H    0.021693
    11  N   -0.352431
    12  S    0.171494
    13  C   -0.089646
    14  C   -0.028111
    15  C    0.114807
    16  C   -0.018110
    17  H    0.018711
    18  C   -0.009682
    19  C    0.025777
    20  H    0.008797
    21  H    0.015672
    22  H    0.021811
    23  C    0.082848
    24  O   -0.287725
    25  H    0.216671
 Sum of Mulliken charges =  -0.00000

 Dipole moment (field-independent basis, Debye):
    X=             -0.1468    Y=             -3.0411    Z=             -0.0000  Tot=              3.0447
 Quadrupole moment (field-independent basis, Debye-Ang):
   XX=            -83.1374   YY=            -90.7209   ZZ=           -104.2328
   XY=             -7.0615   XZ=             -0.0000   YZ=             -0.0001

  Exact polarizability:     375.595    -162.496     345.294      -0.002       0.003      63.251
 Approx polarizability:     274.653     -34.813     258.719      -0.001       0.001      82.307

 ******    1 imaginary frequencies (negative Signs) ******

                      1                      2                      3
                      A                      A                      A
 Frequencies --   -633.6689                45.7398                52.4828
 Red. masses --      1.3710                 5.2806                 6.7833
 Frc consts  --      0.3244                 0.0065                 0.0110
 IR Inten    --    297.6507                 0.7447                 0.7899

                      4                      5                      6
                      A                      A                      A
 Frequencies --    111.1663               157.4190               175.8406
 Red. masses --      5.3617                 5.5950                 6.1620
 Frc consts  --      0.0390                 0.0817                 0.1123
 IR Inten    --      0.0099                 8.0467                 1.0653

                      7                      8                      9
                      A                      A                      A
 Frequencies --    222.3484               273.4505               274.7731
 Red. masses --      5.3327                 4.7534                 7.4108
 Frc consts  --      0.1553                 0.2094                 0.3297
 IR Inten    --      0.0262                 0.0429                20.8012

                     10                     11                     12
                      A                      A                      A
 Frequencies --    376.3893               397.0798               425.5532
 Red. masses --      4.7449                 5.6533                 9.8201
 Frc consts  --      0.3961                 0.5252                 1.0478
 IR Inten    --      0.1239                 4.7131                 5.1397

                     13                     14                     15
                      A                      A                      A
 Frequencies --    440.2984               477.9926               501.0067
 Red. masses --      3.2095                 4.7749                 3.1684
 Frc consts  --      0.3666                 0.6428                 0.4686
 IR Inten    --      4.1691                 0.0166                 0.2099

                     16                     17                     18
                      A                      A                      A
 Frequencies --    506.8063               539.4202               558.8895
 Red. masses --      8.7080                 8.1480                 3.8980
 Frc consts  --      1.3178                 1.3969                 0.7174
 IR Inten    --      0.7382                24.8172                 0.1763

                     19                     20                     21
                      A                      A                      A
 Frequencies --    576.4020               631.3288               705.5002
 Red. masses --      7.6353                 6.8232                 1.6133
 Frc consts  --      1.4946                 1.6023                 0.4731
 IR Inten    --      0.3586                11.9941                48.3695

                     22                     23                     24
                      A                      A                      A
 Frequencies --    714.5281               741.8583               743.6913
 Red. masses --      6.5814                 1.9364                 9.8927
 Frc consts  --      1.9797                 0.6279                 3.2237
 IR Inten    --     14.5215                31.0925                 9.7703

                     25                     26                     27
                      A                      A                      A
 Frequencies --    752.9210               767.7662               793.9490
 Red. masses --      1.8293                 2.0300                 4.6828
 Frc consts  --      0.6110                 0.7050                 1.7392
 IR Inten    --     21.7272                54.3526               189.7210

                     28                     29                     30
                      A                      A                      A
 Frequencies --    808.9732               835.6152               863.1688
 Red. masses --      1.7911                 6.0653                 1.4073
 Frc consts  --      0.6906                 2.4953                 0.6178
 IR Inten    --      0.5854                27.4435                 1.0050

                     31                     32                     33
                      A                      A                      A
 Frequencies --    907.9244               917.7196               953.5268
 Red. masses --      1.3604                 6.2712                 1.3477
 Frc consts  --      0.6607                 3.1119                 0.7220
 IR Inten    --      4.6463                 9.0656                 2.0101

                     34                     35                     36
                      A                      A                      A
 Frequencies --    960.0206               998.2374               999.3341
 Red. masses --      1.3784                 7.2303                 1.2995
 Frc consts  --      0.7485                 4.2450                 0.7646
 IR Inten    --      0.1578                 0.6753                 0.0002

                     37                     38                     39
                      A                      A                      A
 Frequencies --   1038.0825              1048.4216              1094.1962
 Red. masses --      2.0703                 2.0092                 3.9527
 Frc consts  --      1.3144                 1.3012                 2.7883
 IR Inten    --      2.0203                 1.7647                73.1475

                     40                     41                     42
                      A                      A                      A
 Frequencies --   1136.2812              1155.6048              1172.7369
 Red. masses --      1.4335                 1.4006                 1.1251
 Frc consts  --      1.0905                 1.1020                 0.9117
 IR Inten    --     46.6611                28.3928                35.1994

                     43                     44                     45
                      A                      A                      A
 Frequencies --   1177.8297              1197.5171              1245.5143
 Red. masses --      1.1929                 1.0514                 1.9177
 Frc consts  --      0.9751                 0.8883                 1.7528
 IR Inten    --     48.4326                66.0287                99.6830

                     46                     47                     48
                      A                      A                      A
 Frequencies --   1260.9332              1292.3388              1359.9674
 Red. masses --      2.9055                 2.0790                 4.1902
 Frc consts  --      2.7218                 2.0458                 4.5661
 IR Inten    --     46.6683                 9.3459                 7.2511

                     49                     50                     51
                      A                      A                      A
 Frequencies --   1376.6503              1390.2819              1404.2187
 Red. masses --      3.2382                 2.7912                 2.8041
 Frc consts  --      3.6158                 3.1787                 3.2577
 IR Inten    --    362.8954                72.6775                37.9193

                     52                     53                     54
                      A                      A                      A
 Frequencies --   1442.7981              1475.7712              1508.3911
 Red. masses --      3.3191                 3.1195                 3.6446
 Frc consts  --      4.0708                 4.0028                 4.8857
 IR Inten    --    321.3078                91.3196                12.9647

                     55                     56                     57
                      A                      A                      A
 Frequencies --   1533.9910              1548.9688              1576.8553
 Red. masses --      4.5691                 4.5841                 6.4433
 Frc consts  --      6.3347                 6.4802                 9.4393
 IR Inten    --    241.7308                73.4904               359.9120

                     58                     59                     60
                      A                      A                      A
 Frequencies --   1615.0867              1643.1253              1651.5111
 Red. masses --      6.0334                 5.9709                 5.9189
 Frc consts  --      9.2726                 9.4980                 9.5116
 IR Inten    --    265.9087              1299.1961                 2.0808

                     61                     62                     63
                      A                      A                      A
 Frequencies --   1806.4331              3204.6264              3211.2533
 Red. masses --      1.0918                 1.0862                 1.0863
 Frc consts  --      2.0991                 6.5720                 6.5999
 IR Inten    --     66.5723                 7.9380                 9.7013

                     64                     65                     66
                      A                      A                      A
 Frequencies --   3214.8040              3221.5873              3225.8017
 Red. masses --      1.0901                 1.0888                 1.0951
 Frc consts  --      6.6376                 6.6581                 6.7138
 IR Inten    --      2.1878                 9.8364                10.3048

                     67                     68                     69
                      A                      A                      A
 Frequencies --   3229.1438              3233.2832              3240.1354
 Red. masses --      1.0944                 1.0993                 1.0981
 Frc consts  --      6.7234                 6.7712                 6.7924
 IR Inten    --     12.7553                30.9856                21.3650

 - Thermochemistry -
 -------------------
 Temperature   298.150 Kelvin.  Pressure   1.00000 Atm.
 Atom     1 has atomic number  6 and mass  12.00000

 Molecular mass:   227.04049 amu.
 Principal axes and moments of inertia in atomic units:
                           1         2         3
     Eigenvalues --  1283.627156294.086027577.71317
           X           -0.70526   0.70894   0.00000
           Y            0.70894   0.70526  -0.00001
           Z            0.00001   0.00001   1.00000
 This molecule is an asymmetric top.
 Rotational symmetry number  1.
 Warning -- assumption of classical behavior for rotation
           may cause significant error
 Rotational temperatures (Kelvin)      0.06748     0.01376     0.01143
 Rotational constants (GHZ):           1.40597     0.28674     0.23816
    1 imaginary frequencies ignored.
 Zero-point vibrational energy     479363.2 (Joules/Mol)
                                  114.57055 (Kcal/Mol)
 Warning -- explicit consideration of  18 degrees of freedom as
           vibrations may cause significant error
 Vibrational temperatures:     65.81    75.51   159.94   226.49   253.00
          (Kelvin)            319.91   393.43   395.34   541.54   571.31
                              612.28   633.49   687.72   720.84   729.18
                              776.11   804.12   829.31   908.34  1015.06
                             1028.05  1067.37  1070.01  1083.29  1104.64
                             1142.32  1163.93  1202.26  1241.91  1306.30
                             1320.39  1371.91  1381.26  1436.24  1437.82
                             1493.57  1508.44  1574.30  1634.86  1662.66
                             1687.31  1694.63  1722.96  1792.02  1814.20
                             1859.39  1956.69  1980.69  2000.31  2020.36
                             2075.86  2123.31  2170.24  2207.07  2228.62
                             2268.74  2323.75  2364.09  2376.16  2599.05
                             4610.74  4620.28  4625.39  4635.15  4641.21
                             4646.02  4651.97  4661.83

 Zero-point correction=                           0.182580 (Hartree/Particle)
 Thermal correction to Energy=                    0.194481
 Thermal correction to Enthalpy=                  0.195425
 Thermal correction to Gibbs Free Energy=         0.143586
 Sum of electronic and zero-point Energies=          -1028.506249
 Sum of electronic and thermal Energies=             -1028.494348
 Sum of electronic and thermal Enthalpies=           -1028.493404
 Sum of electronic and thermal Free Energies=        -1028.545243

                     E (Thermal)             CV                S
                      KCal/Mol        Cal/Mol-Kelvin    Cal/Mol-Kelvin
 Total                  122.039             47.984            109.105
 Electronic               0.000              0.000              0.000
 Translational            0.889              2.981             42.162
 Rotational               0.889              2.981             32.482
 Vibrational            120.261             42.023             34.461
 Vibration     1          0.595              1.979              4.994
 Vibration     2          0.596              1.977              4.722
 Vibration     3          0.607              1.940              3.248
 Vibration     4          0.621              1.894              2.581
 Vibration     5          0.628              1.872              2.372
 Vibration     6          0.648              1.807              1.940
 Vibration     7          0.676              1.722              1.574
 Vibration     8          0.677              1.720              1.566
 Vibration     9          0.747              1.520              1.054
 Vibration    10          0.764              1.476              0.973
 Vibration    11          0.787              1.415              0.873
 Vibration    12          0.800              1.382              0.826
 Vibration    13          0.834              1.299              0.715
 Vibration    14          0.856              1.248              0.656
 Vibration    15          0.862              1.235              0.641
 Vibration    16          0.894              1.163              0.567
 Vibration    17          0.914              1.120              0.526
 Vibration    18          0.933              1.082              0.492

 Optimization completed.
    -- Stationary point found.
 Normal termination of Gaussian 16 at Mon Jul 13 14:10:09 2020.
