 Gaussian 16, Revision C.01,
 Gaussian 16:  ES64L-G16RevC.01  3-Jul-2019

 ----------------------------------------------------------------------
 #p opt=addgic freq td wb97xd/cc-pvdz nosymm int=ultrafine scrf=(solven
 t=CarbonTetraChloride)
 ----------------------------------------------------------------------

 ------------------------------------------------
 NM 2D-scan of HBT TD-WB97XD pVDZ in CTC Relaxed.
 ------------------------------------------------
 Symbolic Z-matrix:
 Charge =  0 Multiplicity = 1

 SCF Done:  E(RwB97XD) =  -1028.80880557     A.U. after   15 cycles
 Total Energy, E(TD-HF/TD-DFT) =  -1028.67791303
 SCF Done:  E(RwB97XD) =  -1028.82072800     A.U. after   13 cycles
 Total Energy, E(TD-HF/TD-DFT) =  -1028.69162571
 SCF Done:  E(RwB97XD) =  -1028.82056318     A.U. after   12 cycles
 Total Energy, E(TD-HF/TD-DFT) =  -1028.69260145
 SCF Done:  E(RwB97XD) =  -1028.82075044     A.U. after   11 cycles
 Total Energy, E(TD-HF/TD-DFT) =  -1028.69261949
 SCF Done:  E(RwB97XD) =  -1028.82071626     A.U. after   10 cycles
 Total Energy, E(TD-HF/TD-DFT) =  -1028.69268244
 Optimization completed.
    -- Stationary point found.
 Normal termination of Gaussian 16 at Mon Jul 13 17:09:01 2020.

 ----------------------------------------------------------------------
 #P Geom=AllCheck Guess=TCheck SCRF=Check GenChk RwB97XD TD(FC,Read)/CC
 -pVDZ Freq
 ----------------------------------------------------------------------

 Structure from the checkpoint file:  "config_3_14.chk"
 ------------------------------------------------
 NM 2D-scan of HBT TD-WB97XD pVDZ in CTC Relaxed.
 ------------------------------------------------
 Charge =  0 Multiplicity = 1

                          Input orientation:
 ---------------------------------------------------------------------
 Center     Atomic      Atomic             Coordinates (Angstroms)
 Number     Number       Type             X           Y           Z
 ---------------------------------------------------------------------
      1          6           0        1.578554   -3.276733   -0.000031
      2          6           0        0.982372   -2.019374   -0.000018
      3          6           0        1.749381   -0.806081   -0.000010
      4          6           0        3.165837   -0.914903   -0.000018
      5          6           0        3.745186   -2.170624   -0.000030
      6          6           0        2.968324   -3.348893   -0.000037
      7          1           0        0.969214   -4.181348   -0.000036
      8          1           0        3.772073   -0.008378   -0.000013
      9          1           0        4.833621   -2.254740   -0.000036
     10          1           0        3.460396   -4.322476   -0.000046
     11          7           0        1.024587    0.328507    0.000003
     12         16           0       -0.721311   -1.656186   -0.000008
     13          6           0       -1.313347    1.063656    0.000026
     14          6           0       -2.702740    0.768063    0.000032
     15          6           0       -0.920598    2.478996    0.000033
     16          6           0       -3.643869    1.785201    0.000029
     17          1           0       -3.028353   -0.273198    0.000033
     18          6           0       -1.901236    3.482660    0.000028
     19          6           0       -3.252108    3.143667    0.000024
     20          1           0       -4.705336    1.532445    0.000030
     21          1           0       -1.569341    4.521364    0.000030
     22          1           0       -4.009794    3.927950    0.000021
     23          6           0       -0.315441    0.072793    0.000009
     24          8           0        0.352559    2.798463    0.000047
     25          1           0        0.898894    1.928641    0.000048
 ---------------------------------------------------------------------

 SCF Done:  E(RwB97XD) =  -1028.82071626     A.U. after    1 cycles

 Excitation energies and oscillator strengths:

 Excited state symmetry could not be determined.
 Excited State   1:      Singlet-?Sym    3.4840 eV  355.87 nm  f=0.6823  <S**2>=0.000
      59 -> 60         0.68900
 This state for optimization and/or second-order correction.
 Total Energy, E(TD-HF/TD-DFT) =  -1028.69268242
 Copying the excited state density for this state as the 1-particle RhoCI density.

 Excited state symmetry could not be determined.
 Excited State   2:      Singlet-?Sym    4.3868 eV  282.63 nm  f=0.1810  <S**2>=0.000
      57 -> 60         0.29659
      58 -> 60         0.59235
      59 -> 62         0.13044

 Excited state symmetry could not be determined.
 Excited State   3:      Singlet-?Sym    4.5985 eV  269.62 nm  f=0.0852  <S**2>=0.000
      57 -> 60         0.55174
      57 -> 62        -0.12950
      58 -> 60        -0.28983
      58 -> 61        -0.11808
      59 -> 61         0.21596

 Alpha  occ. eigenvalues --  -89.08863 -19.28318 -14.47327 -10.39720 -10.38122
 Alpha  occ. eigenvalues --  -10.35191 -10.34661 -10.32405 -10.32320 -10.32093
 Alpha  occ. eigenvalues --  -10.32059 -10.31519 -10.31386 -10.31307 -10.30520
 Alpha  occ. eigenvalues --  -10.30470  -8.10874  -6.05714  -6.05376  -6.04936
 Alpha  occ. eigenvalues --   -1.16999  -1.08250  -0.96778  -0.95773  -0.91999
 Alpha  occ. eigenvalues --   -0.88808  -0.85024  -0.84523  -0.82314  -0.75958
 Alpha  occ. eigenvalues --   -0.71227  -0.70225  -0.69172  -0.68168  -0.63582
 Alpha  occ. eigenvalues --   -0.60432  -0.58941  -0.58677  -0.55971  -0.54454
 Alpha  occ. eigenvalues --   -0.53839  -0.53291  -0.52965  -0.50698  -0.50434
 Alpha  occ. eigenvalues --   -0.49353  -0.47562  -0.45942  -0.45631  -0.44791
 Alpha  occ. eigenvalues --   -0.44035  -0.42938  -0.42244  -0.40049  -0.37363
 Alpha  occ. eigenvalues --   -0.36459  -0.32051  -0.31528  -0.28090
 Alpha virt. eigenvalues --   -0.01811   0.05138   0.06907   0.07151   0.07660
 Alpha virt. eigenvalues --    0.11101   0.14234   0.15190   0.16637   0.18060
 Alpha virt. eigenvalues --    0.18560   0.21127   0.21584   0.22357   0.22692

 Mulliken charges:
               1
     1  C    0.018191
     2  C   -0.220208
     3  C    0.222701
     4  C   -0.019098
     5  C    0.006015
     6  C   -0.005472
     7  H    0.017250
     8  H    0.017478
     9  H    0.018856
    10  H    0.020279
    11  N   -0.364746
    12  S    0.157911
    13  C   -0.078912
    14  C   -0.024585
    15  C    0.088664
    16  C   -0.011193
    17  H    0.019571
    18  C    0.005081
    19  C    0.022758
    20  H    0.011282
    21  H    0.019281
    22  H    0.023197
    23  C    0.084483
    24  O   -0.211371
    25  H    0.182587
 Sum of Mulliken charges =  -0.00000

 Dipole moment (field-independent basis, Debye):
    X=             -0.5814    Y=             -2.1415    Z=             -0.0000  Tot=              2.2190
 Quadrupole moment (field-independent basis, Debye-Ang):
   XX=            -83.1886   YY=            -89.4962   ZZ=           -104.3361
   XY=             -7.0724   XZ=             -0.0001   YZ=              0.0001

  Exact polarizability:     397.249    -188.641     380.104      -0.003       0.003      63.346
 Approx polarizability:     277.779     -36.238     260.256      -0.001       0.001      82.363

                      1                      2                      3
                      A                      A                      A
 Frequencies --     45.8191                61.0949               108.8042
 Red. masses --      6.0245                 5.5848                 5.0868
 Frc consts  --      0.0075                 0.0123                 0.0355
 IR Inten    --      1.4696                 0.0000                 0.1635

                      4                      5                      6
                      A                      A                      A
 Frequencies --    110.4519               178.8961               223.9523
 Red. masses --      5.5961                 6.5173                 5.3445
 Frc consts  --      0.0402                 0.1229                 0.1579
 IR Inten    --      2.1085                 1.3236                 0.0001

                      7                      8                      9
                      A                      A                      A
 Frequencies --    268.5941               272.4022               302.2174
 Red. masses --      7.6506                 4.8313                 6.6104
 Frc consts  --      0.3252                 0.2112                 0.3557
 IR Inten    --     27.3244                 0.0406                 5.2865

                     10                     11                     12
                      A                      A                      A
 Frequencies --    388.4544               406.8096               440.3255
 Red. masses --      4.5798                 9.3853                 3.2470
 Frc consts  --      0.4072                 0.9151                 0.3709
 IR Inten    --      0.0770                13.7732                 4.0662

                     13                     14                     15
                      A                      A                      A
 Frequencies --    488.8152               500.6697               506.0285
 Red. masses --      4.5641                 8.0468                 3.1632
 Frc consts  --      0.6425                 1.1884                 0.4772
 IR Inten    --      0.1449                 3.6922                 0.0039

                     16                     17                     18
                      A                      A                      A
 Frequencies --    517.0729               526.7588               554.0985
 Red. masses --      4.8763                 8.3188                 3.9722
 Frc consts  --      0.7682                 1.3600                 0.7185
 IR Inten    --     21.1229                41.3589                 0.1275

                     19                     20                     21
                      A                      A                      A
 Frequencies --    576.7218               643.3307               705.0642
 Red. masses --      7.6667                 6.6091                 8.8399
 Frc consts  --      1.5024                 1.6116                 2.5891
 IR Inten    --     30.0638                28.9454                29.3548

                     22                     23                     24
                      A                      A                      A
 Frequencies --    718.0633               719.6631               738.0008
 Red. masses --      1.6685                 7.5018                 1.8007
 Frc consts  --      0.5069                 2.2891                 0.5778
 IR Inten    --     51.2905                25.1330                40.4878

                     25                     26                     27
                      A                      A                      A
 Frequencies --    745.8092               770.4786               814.3307
 Red. masses --      1.9127                 2.1844                 1.7107
 Frc consts  --      0.6268                 0.7640                 0.6684
 IR Inten    --     15.7980                49.2720                 2.1300

                     28                     29                     30
                      A                      A                      A
 Frequencies --    819.7969               860.4760               889.0964
 Red. masses --      6.2184                 1.4254                 6.4335
 Frc consts  --      2.4623                 0.6218                 2.9964
 IR Inten    --     16.3600                 0.9183                63.0015

                     31                     32                     33
                      A                      A                      A
 Frequencies --    916.7143               953.1578               966.0395
 Red. masses --      1.3477                 1.3446                 1.3571
 Frc consts  --      0.6673                 0.7197                 0.7462
 IR Inten    --      6.2336                 1.9881                 0.0541

                     34                     35                     36
                      A                      A                      A
 Frequencies --    967.7401               998.9914              1017.0653
 Red. masses --      7.3235                 1.3020                 1.0622
 Frc consts  --      4.0410                 0.7656                 0.6474
 IR Inten    --      7.5911                 0.1467                66.4326

                     37                     38                     39
                      A                      A                      A
 Frequencies --   1037.6478              1042.5567              1084.0529
 Red. masses --      2.1275                 2.0978                 4.3011
 Frc consts  --      1.3496                 1.3434                 2.9780
 IR Inten    --      2.5199                 0.8249                61.4259

                     40                     41                     42
                      A                      A                      A
 Frequencies --   1135.2565              1150.1476              1174.4641
 Red. masses --      1.4608                 1.3502                 1.1209
 Frc consts  --      1.1093                 1.0523                 0.9110
 IR Inten    --     66.5931                15.2306                 3.6008

                     43                     44                     45
                      A                      A                      A
 Frequencies --   1178.1050              1224.2656              1242.4091
 Red. masses --      1.2148                 3.6279                 2.0811
 Frc consts  --      0.9934                 3.2037                 1.8927
 IR Inten    --     37.3953                44.7617               149.2384

                     46                     47                     48
                      A                      A                      A
 Frequencies --   1280.2462              1318.3119              1363.6721
 Red. masses --      1.6985                 3.9416                 2.5742
 Frc consts  --      1.6402                 4.0361                 2.8204
 IR Inten    --      0.4029               289.8280                25.2264

                     49                     50                     51
                      A                      A                      A
 Frequencies --   1370.9979              1398.3138              1440.1819
 Red. masses --      5.4878                 2.1762                 2.6625
 Frc consts  --      6.0775                 2.5071                 3.2536
 IR Inten    --     79.6671                 1.7686               177.8244

                     52                     53                     54
                      A                      A                      A
 Frequencies --   1471.1956              1497.7750              1529.5303
 Red. masses --      3.6858                 3.6497                 3.2721
 Frc consts  --      4.7003                 4.8239                 4.5101
 IR Inten    --     65.2855                30.1261               213.4670

                     55                     56                     57
                      A                      A                      A
 Frequencies --   1543.8112              1575.3320              1599.2172
 Red. masses --      4.3768                 7.6914                 5.4220
 Frc consts  --      6.1461                11.2461                 8.1700
 IR Inten    --      5.1014               252.6747               265.7499

                     58                     59                     60
                      A                      A                      A
 Frequencies --   1615.5727              1634.7149              1650.6786
 Red. masses --      5.3098                 2.1721                 2.6852
 Frc consts  --      8.1655                 3.4199                 4.3107
 IR Inten    --    843.7793               249.4271                47.3514

                     61                     62                     63
                      A                      A                      A
 Frequencies --   2603.1906              3206.2517              3211.0285
 Red. masses --      1.0897                 1.0862                 1.0861
 Frc consts  --      4.3507                 6.5791                 6.5981
 IR Inten    --    121.7427                 9.4522                 6.2330

                     64                     65                     66
                      A                      A                      A
 Frequencies --   3217.2425              3221.9669              3228.9680
 Red. masses --      1.0898                 1.0889                 1.0953
 Frc consts  --      6.6461                 6.6602                 6.7284
 IR Inten    --      2.6843                 4.4381                10.8110

                     67                     68                     69
                      A                      A                      A
 Frequencies --   3229.6460              3234.9024              3240.4491
 Red. masses --      1.0947                 1.0990                 1.0984
 Frc consts  --      6.7276                 6.7762                 6.7952
 IR Inten    --     13.6756                39.4167                27.2274

 - Thermochemistry -
 -------------------
 Temperature   298.150 Kelvin.  Pressure   1.00000 Atm.
 Atom     1 has atomic number  6 and mass  12.00000

 Molecular mass:   227.04049 amu.
 Principal axes and moments of inertia in atomic units:
                           1         2         3
     Eigenvalues --  1308.181246330.765107638.94634
           X           -0.70084   0.71332   0.00000
           Y            0.71332   0.70084  -0.00001
           Z            0.00001   0.00000   1.00000
 This molecule is an asymmetric top.
 Rotational symmetry number  1.
 Warning -- assumption of classical behavior for rotation
           may cause significant error
 Rotational temperatures (Kelvin)      0.06621     0.01368     0.01134
 Rotational constants (GHZ):           1.37958     0.28507     0.23626
 Zero-point vibrational energy     488518.5 (Joules/Mol)
                                  116.75871 (Kcal/Mol)
 Warning -- explicit consideration of  19 degrees of freedom as
           vibrations may cause significant error
 Vibrational temperatures:     65.92    87.90   156.54   158.92   257.39
          (Kelvin)            322.22   386.45   391.93   434.82   558.90
                              585.31   633.53   703.30   720.35   728.06
                              743.95   757.89   797.22   829.77   925.61
                             1014.43  1033.13  1035.43  1061.82  1073.05
                             1108.55  1171.64  1179.50  1238.03  1279.21
                             1318.95  1371.38  1389.92  1392.36  1437.33
                             1463.33  1492.94  1500.01  1559.71  1633.38
                             1654.81  1689.79  1695.03  1761.45  1787.55
                             1841.99  1896.76  1962.02  1972.56  2011.86
                             2072.10  2116.72  2154.96  2200.65  2221.20
                             2266.55  2300.92  2324.45  2351.99  2374.96
                             3745.41  4613.08  4619.95  4628.89  4635.69
                             4645.76  4646.74  4654.30  4662.28

 Zero-point correction=                           0.186067 (Hartree/Particle)
 Thermal correction to Energy=                    0.198331
 Thermal correction to Enthalpy=                  0.199275
 Thermal correction to Gibbs Free Energy=         0.146756
 Sum of electronic and zero-point Energies=          -1028.506616
 Sum of electronic and thermal Energies=             -1028.494352
 Sum of electronic and thermal Enthalpies=           -1028.493408
 Sum of electronic and thermal Free Energies=        -1028.545926

                     E (Thermal)             CV                S
                      KCal/Mol        Cal/Mol-Kelvin    Cal/Mol-Kelvin
 Total                  124.454             49.186            110.535
 Electronic               0.000              0.000              0.000
 Translational            0.889              2.981             42.162
 Rotational               0.889              2.981             32.514
 Vibrational            122.677             43.225             35.858
 Vibration     1          0.595              1.979              4.990
 Vibration     2          0.597              1.973              4.422
 Vibration     3          0.606              1.942              3.290
 Vibration     4          0.606              1.941              3.261
 Vibration     5          0.629              1.868              2.340
 Vibration     6          0.649              1.805              1.927
 Vibration     7          0.673              1.731              1.605
 Vibration     8          0.675              1.724              1.581
 Vibration     9          0.694              1.669              1.405
 Vibration    10          0.757              1.495              1.006
 Vibration    11          0.772              1.455              0.938
 Vibration    12          0.800              1.382              0.826
 Vibration    13          0.845              1.275              0.687
 Vibration    14          0.856              1.249              0.656
 Vibration    15          0.861              1.237              0.643
 Vibration    16          0.872              1.212              0.617
 Vibration    17          0.882              1.191              0.594
 Vibration    18          0.910              1.131              0.536
 Vibration    19          0.933              1.082              0.491

                           ! Non-Optimized Parameters !
 Normal termination of Gaussian 16 at Mon Jul 13 17:26:32 2020.
