 Gaussian 16, Revision C.01,
 Gaussian 16:  ES64L-G16RevC.01  3-Jul-2019

 ----------------------------------------------------------------------
 #p opt=addgic freq td wb97xd/cc-pvdz nosymm int=ultrafine scrf=(solven
 t=CarbonTetraChloride)
 ----------------------------------------------------------------------

 ------------------------------------------------
 NM 2D-scan of HBT TD-WB97XD pVDZ in CTC Relaxed.
 ------------------------------------------------
 Symbolic Z-matrix:
 Charge =  0 Multiplicity = 1

 SCF Done:  E(RwB97XD) =  -1028.71488461     A.U. after   15 cycles
 Total Energy, E(TD-HF/TD-DFT) =  -1028.58395463
 SCF Done:  E(RwB97XD) =  -1028.80550636     A.U. after   13 cycles
 Total Energy, E(TD-HF/TD-DFT) =  -1028.67598889
 SCF Done:  E(RwB97XD) =  -1028.79599340     A.U. after   14 cycles
 Total Energy, E(TD-HF/TD-DFT) =  -1028.67050065
 SCF Done:  E(RwB97XD) =  -1028.81682722     A.U. after   12 cycles
 Total Energy, E(TD-HF/TD-DFT) =  -1028.68936920
 SCF Done:  E(RwB97XD) =  -1028.81773183     A.U. after   11 cycles
 Total Energy, E(TD-HF/TD-DFT) =  -1028.68966151
 SCF Done:  E(RwB97XD) =  -1028.81814970     A.U. after   10 cycles
 Total Energy, E(TD-HF/TD-DFT) =  -1028.68977098
 SCF Done:  E(RwB97XD) =  -1028.81814066     A.U. after    9 cycles
 Total Energy, E(TD-HF/TD-DFT) =  -1028.68977306
 Optimization completed.
    -- Stationary point found.
 Normal termination of Gaussian 16 at Tue Jul 14 16:37:09 2020.

 ----------------------------------------------------------------------
 #P Geom=AllCheck Guess=TCheck SCRF=Check GenChk RwB97XD TD(FC,Read)/CC
 -pVDZ Freq
 ----------------------------------------------------------------------

 Structure from the checkpoint file:  "config_1_19.chk"
 ------------------------------------------------
 NM 2D-scan of HBT TD-WB97XD pVDZ in CTC Relaxed.
 ------------------------------------------------
 Charge =  0 Multiplicity = 1

                          Input orientation:
 ---------------------------------------------------------------------
 Center     Atomic      Atomic             Coordinates (Angstroms)
 Number     Number       Type             X           Y           Z
 ---------------------------------------------------------------------
      1          6           0        1.511486   -3.286707   -0.000021
      2          6           0        0.970173   -2.003879   -0.000012
      3          6           0        1.781121   -0.811841   -0.000021
      4          6           0        3.194714   -0.988306   -0.000042
      5          6           0        3.718413   -2.267371   -0.000050
      6          6           0        2.894488   -3.417034   -0.000038
      7          1           0        0.861818   -4.162732   -0.000013
      8          1           0        3.841972   -0.110676   -0.000049
      9          1           0        4.802366   -2.396961   -0.000064
     10          1           0        3.347668   -4.409237   -0.000044
     11          7           0        1.106393    0.354232   -0.000002
     12         16           0       -0.709549   -1.588001    0.000008
     13          6           0       -1.260367    1.098725    0.000047
     14          6           0       -2.640863    0.727478    0.000051
     15          6           0       -0.951173    2.528680    0.000045
     16          6           0       -3.634644    1.683897    0.000023
     17          1           0       -2.910879   -0.328813    0.000067
     18          6           0       -1.982585    3.473185    0.000011
     19          6           0       -3.313772    3.060640   -0.000005
     20          1           0       -4.680530    1.373461    0.000018
     21          1           0       -1.710670    4.529122    0.000004
     22          1           0       -4.111674    3.804188   -0.000032
     23          6           0       -0.241627    0.134718    0.000023
     24          8           0        0.307853    2.932921    0.000091
     25          1           0        0.902867    2.130681    0.000133
 ---------------------------------------------------------------------

 SCF Done:  E(RwB97XD) =  -1028.81814066     A.U. after    1 cycles

 Excitation energies and oscillator strengths:

 Excited state symmetry could not be determined.
 Excited State   1:      Singlet-?Sym    3.4931 eV  354.94 nm  f=0.7315  <S**2>=0.000
      59 -> 60         0.68890
 This state for optimization and/or second-order correction.
 Total Energy, E(TD-HF/TD-DFT) =  -1028.68977306
 Copying the excited state density for this state as the 1-particle RhoCI density.

 Excited state symmetry could not be determined.
 Excited State   2:      Singlet-?Sym    4.3720 eV  283.59 nm  f=0.0749  <S**2>=0.000
      57 -> 60         0.65260
      59 -> 61         0.10954
      59 -> 62        -0.14019

 Excited state symmetry could not be determined.
 Excited State   3:      Singlet-?Sym    4.5484 eV  272.59 nm  f=0.1311  <S**2>=0.000
      58 -> 60         0.62800
      59 -> 61         0.18528
      59 -> 62         0.12020

 Alpha  occ. eigenvalues --  -89.08486 -19.29312 -14.47273 -10.39521 -10.38378
 Alpha  occ. eigenvalues --  -10.35047 -10.34412 -10.32643 -10.32414 -10.32215
 Alpha  occ. eigenvalues --  -10.31893 -10.31381 -10.31261 -10.31152 -10.30746
 Alpha  occ. eigenvalues --  -10.30703  -8.10531  -6.05364  -6.05030  -6.04597
 Alpha  occ. eigenvalues --   -1.17623  -1.07875  -0.96897  -0.95724  -0.91977
 Alpha  occ. eigenvalues --   -0.88765  -0.85250  -0.84554  -0.82104  -0.76010
 Alpha  occ. eigenvalues --   -0.71434  -0.70187  -0.69139  -0.68179  -0.63658
 Alpha  occ. eigenvalues --   -0.60283  -0.59109  -0.58599  -0.56212  -0.54525
 Alpha  occ. eigenvalues --   -0.53643  -0.53500  -0.52845  -0.50629  -0.50421
 Alpha  occ. eigenvalues --   -0.49170  -0.47716  -0.45990  -0.45576  -0.44839
 Alpha  occ. eigenvalues --   -0.44075  -0.43064  -0.41901  -0.39911  -0.37720
 Alpha  occ. eigenvalues --   -0.36429  -0.31868  -0.31747  -0.28117
 Alpha virt. eigenvalues --   -0.01909   0.05283   0.06824   0.07023   0.07928
 Alpha virt. eigenvalues --    0.11240   0.14282   0.15251   0.16987   0.18072
 Alpha virt. eigenvalues --    0.18523   0.20708   0.21508   0.22310   0.22661

 Mulliken charges:
               1
     1  C    0.020225
     2  C   -0.211207
     3  C    0.196976
     4  C   -0.020368
     5  C    0.004088
     6  C   -0.005921
     7  H    0.015853
     8  H    0.015511
     9  H    0.017652
    10  H    0.019396
    11  N   -0.357994
    12  S    0.148045
    13  C   -0.061672
    14  C   -0.029005
    15  C    0.074733
    16  C   -0.005151
    17  H    0.027043
    18  C    0.010460
    19  C    0.021754
    20  H    0.012436
    21  H    0.021477
    22  H    0.024098
    23  C    0.080402
    24  O   -0.189391
    25  H    0.170558
 Sum of Mulliken charges =  -0.00000

 Dipole moment (field-independent basis, Debye):
    X=             -0.9184    Y=             -1.7722    Z=              0.0000  Tot=              1.9960
 Quadrupole moment (field-independent basis, Debye-Ang):
   XX=            -83.1140   YY=            -89.3119   ZZ=           -104.3574
   XY=             -6.9727   XZ=              0.0000   YZ=             -0.0001

  Exact polarizability:     400.366    -196.464     394.338      -0.003       0.003      63.340
 Approx polarizability:     278.790     -37.091     261.347      -0.001       0.000      82.355

                      1                      2                      3
                      A                      A                      A
 Frequencies --     45.0392                64.3570               109.3129
 Red. masses --      6.2575                 4.8335                 5.6689
 Frc consts  --      0.0075                 0.0118                 0.0399
 IR Inten    --      1.2867                 0.0013                 1.9633

                      4                      5                      6
                      A                      A                      A
 Frequencies --    110.2564               181.5589               226.1760
 Red. masses --      5.2105                 6.7717                 5.3578
 Frc consts  --      0.0373                 0.1315                 0.1615
 IR Inten    --      0.2238                 1.5299                 0.0238

                      7                      8                      9
                      A                      A                      A
 Frequencies --    262.7980               273.6091               289.7057
 Red. masses --      7.8972                 4.8551                 6.6031
 Frc consts  --      0.3213                 0.2141                 0.3265
 IR Inten    --     15.8493                 0.0094                18.1966

                     10                     11                     12
                      A                      A                      A
 Frequencies --    392.7374               408.9684               442.4167
 Red. masses --      4.4534                 9.0719                 3.2649
 Frc consts  --      0.4047                 0.8940                 0.3765
 IR Inten    --      0.0506                13.2104                 3.8070

                     13                     14                     15
                      A                      A                      A
 Frequencies --    491.6992               499.1288               511.4793
 Red. masses --      4.3737                 7.5801                 3.1450
 Frc consts  --      0.6230                 1.1126                 0.4848
 IR Inten    --      0.2523                 5.0340                 0.2171

                     16                     17                     18
                      A                      A                      A
 Frequencies --    513.4314               524.5731               552.1161
 Red. masses --      5.1871                 8.4081                 3.9751
 Frc consts  --      0.8056                 1.3632                 0.7139
 IR Inten    --     18.0594                31.8227                 0.2206

                     19                     20                     21
                      A                      A                      A
 Frequencies --    576.0562               644.8442               690.8931
 Red. masses --      7.7060                 6.6615                10.5498
 Frc consts  --      1.5066                 1.6320                 2.9670
 IR Inten    --     48.3349                 3.5612                69.9461

                     22                     23                     24
                      A                      A                      A
 Frequencies --    718.1071               722.0008               734.2654
 Red. masses --      6.4236                 1.3791                 2.1755
 Frc consts  --      1.9517                 0.4236                 0.6911
 IR Inten    --      9.5853                83.3265                16.6959

                     25                     26                     27
                      A                      A                      A
 Frequencies --    738.7050               771.4248               812.3160
 Red. masses --      1.8984                 2.3728                 1.7481
 Frc consts  --      0.6103                 0.8320                 0.6796
 IR Inten    --     16.5107                44.4385                10.9626

                     28                     29                     30
                      A                      A                      A
 Frequencies --    818.6920               859.8406               873.8810
 Red. masses --      6.3192                 1.4362                 1.0767
 Frc consts  --      2.4955                 0.6256                 0.4845
 IR Inten    --     22.5461                 0.1887                67.1435

                     31                     32                     33
                      A                      A                      A
 Frequencies --    879.4678               921.7831               953.5149
 Red. masses --      6.3654                 1.3440                 1.3445
 Frc consts  --      2.9008                 0.6728                 0.7202
 IR Inten    --     70.9065                 0.7233                 2.0958

                     34                     35                     36
                      A                      A                      A
 Frequencies --    957.2903               968.3089               998.7092
 Red. masses --      7.3754                 1.3437                 1.3080
 Frc consts  --      3.9822                 0.7423                 0.7687
 IR Inten    --     15.3719                 0.1900                 0.0032

                     37                     38                     39
                      A                      A                      A
 Frequencies --   1039.3144              1042.7385              1089.7131
 Red. masses --      2.0983                 2.1319                 4.1843
 Frc consts  --      1.3354                 1.3658                 2.9275
 IR Inten    --      0.4888                 6.4046                45.9596

                     40                     41                     42
                      A                      A                      A
 Frequencies --   1139.7827              1153.5964              1176.1594
 Red. masses --      1.4872                 1.3531                 1.2172
 Frc consts  --      1.1383                 1.0610                 0.9921
 IR Inten    --     44.7935                15.8465                38.2065

                     43                     44                     45
                      A                      A                      A
 Frequencies --   1179.7556              1205.2363              1237.6944
 Red. masses --      1.2870                 3.6944                 1.6601
 Frc consts  --      1.0554                 3.1618                 1.4984
 IR Inten    --      7.3210                40.4439               140.6244

                     46                     47                     48
                      A                      A                      A
 Frequencies --   1275.4854              1322.1108              1353.4501
 Red. masses --      1.7028                 3.2771                 2.9862
 Frc consts  --      1.6321                 3.3750                 3.2229
 IR Inten    --      0.2818               204.0798                42.3404

                     49                     50                     51
                      A                      A                      A
 Frequencies --   1368.5439              1392.9913              1436.5650
 Red. masses --      4.8106                 2.0516                 2.5964
 Frc consts  --      5.3085                 2.3456                 3.1570
 IR Inten    --     51.7409                 6.7856               200.7936

                     52                     53                     54
                      A                      A                      A
 Frequencies --   1470.2918              1494.8000              1507.0190
 Red. masses --      3.5794                 3.2033                 2.2067
 Frc consts  --      4.5590                 4.2171                 2.9528
 IR Inten    --     97.0894                67.3516               163.0814

                     55                     56                     57
                      A                      A                      A
 Frequencies --   1545.6610              1578.2556              1589.9603
 Red. masses --      5.0482                 6.1280                 2.7711
 Frc consts  --      7.1059                 8.9934                 4.1273
 IR Inten    --     95.5550                 1.2554               723.1065

                     58                     59                     60
                      A                      A                      A
 Frequencies --   1601.0952              1631.2845              1643.7446
 Red. masses --      5.0707                 4.8873                 5.2883
 Frc consts  --      7.6586                 7.6626                 8.4185
 IR Inten    --     49.7501               197.6388               272.0687

                     61                     62                     63
                      A                      A                      A
 Frequencies --   3156.8974              3205.1104              3212.4488
 Red. masses --      1.0731                 1.0862                 1.0858
 Frc consts  --      6.3011                 6.5744                 6.6021
 IR Inten    --      8.5773                 9.2934                 4.5795

                     64                     65                     66
                      A                      A                      A
 Frequencies --   3215.7374              3221.9806              3227.3013
 Red. masses --      1.0896                 1.0885                 1.0954
 Frc consts  --      6.6388                 6.6578                 6.7219
 IR Inten    --      2.3486                 6.0691                10.0421

                     67                     68                     69
                      A                      A                      A
 Frequencies --   3230.9816              3233.5337              3239.8847
 Red. masses --      1.0951                 1.0992                 1.0986
 Frc consts  --      6.7357                 6.7713                 6.7945
 IR Inten    --      9.3336                42.7627                30.3497

 - Thermochemistry -
 -------------------
 Temperature   298.150 Kelvin.  Pressure   1.00000 Atm.
 Atom     1 has atomic number  6 and mass  12.00000

 Molecular mass:   227.04049 amu.
 Principal axes and moments of inertia in atomic units:
                           1         2         3
     Eigenvalues --  1309.269406356.821537666.09093
           X           -0.69726   0.71682   0.00000
           Y            0.71682   0.69726  -0.00001
           Z            0.00001   0.00000   1.00000
 This molecule is an asymmetric top.
 Rotational symmetry number  1.
 Warning -- assumption of classical behavior for rotation
           may cause significant error
 Rotational temperatures (Kelvin)      0.06615     0.01363     0.01130
 Rotational constants (GHZ):           1.37843     0.28391     0.23542
 Zero-point vibrational energy     490221.2 (Joules/Mol)
                                  117.16569 (Kcal/Mol)
 Warning -- explicit consideration of  19 degrees of freedom as
           vibrations may cause significant error
 Vibrational temperatures:     64.80    92.60   157.28   158.63   261.22
          (Kelvin)            325.42   378.11   393.66   416.82   565.06
                              588.41   636.54   707.45   718.14   735.90
                              738.71   754.74   794.37   828.82   927.79
                              994.04  1033.20  1038.80  1056.44  1062.83
                             1109.91  1168.74  1177.92  1237.12  1257.32
                             1265.36  1326.24  1371.90  1377.33  1393.18
                             1436.92  1495.34  1500.27  1567.85  1639.89
                             1659.77  1692.23  1697.41  1734.07  1780.77
                             1835.14  1902.22  1947.31  1969.03  2004.20
                             2066.90  2115.42  2150.68  2168.26  2223.86
                             2270.76  2287.60  2303.62  2347.05  2364.98
                             4542.07  4611.44  4622.00  4626.73  4635.71
                             4643.37  4648.66  4652.33  4661.47

 Zero-point correction=                           0.186715 (Hartree/Particle)
 Thermal correction to Energy=                    0.199018
 Thermal correction to Enthalpy=                  0.199962
 Thermal correction to Gibbs Free Energy=         0.147413
 Sum of electronic and zero-point Energies=          -1028.503058
 Sum of electronic and thermal Energies=             -1028.490755
 Sum of electronic and thermal Enthalpies=           -1028.489811
 Sum of electronic and thermal Free Energies=        -1028.542360

                     E (Thermal)             CV                S
                      KCal/Mol        Cal/Mol-Kelvin    Cal/Mol-Kelvin
 Total                  124.886             49.451            110.599
 Electronic               0.000              0.000              0.000
 Translational            0.889              2.981             42.162
 Rotational               0.889              2.981             32.523
 Vibrational            123.108             43.490             35.914
 Vibration     1          0.595              1.979              5.024
 Vibration     2          0.597              1.971              4.319
 Vibration     3          0.606              1.942              3.281
 Vibration     4          0.606              1.941              3.264
 Vibration     5          0.630              1.865              2.312
 Vibration     6          0.650              1.801              1.909
 Vibration     7          0.670              1.741              1.643
 Vibration     8          0.676              1.722              1.573
 Vibration     9          0.686              1.693              1.476
 Vibration    10          0.760              1.486              0.990
 Vibration    11          0.773              1.451              0.930
 Vibration    12          0.802              1.378              0.819
 Vibration    13          0.847              1.268              0.679
 Vibration    14          0.855              1.252              0.660
 Vibration    15          0.867              1.225              0.630
 Vibration    16          0.868              1.220              0.625
 Vibration    17          0.880              1.196              0.599
 Vibration    18          0.907              1.135              0.540
 Vibration    19          0.932              1.083              0.493

 Optimization completed.
    -- Stationary point found.
 Normal termination of Gaussian 16 at Tue Jul 14 16:54:52 2020.
