 Gaussian 16, Revision C.01,
 Gaussian 16:  ES64L-G16RevC.01  3-Jul-2019

 ----------------------------------------------------------------------
 #p opt=addgic freq td wb97xd/cc-pvdz nosymm int=ultrafine scrf=(solven
 t=CarbonTetraChloride)
 ----------------------------------------------------------------------

 ------------------------------------------------
 NM 2D-scan of HBT TD-WB97XD pVDZ in CTC Relaxed.
 ------------------------------------------------
 Symbolic Z-matrix:
 Charge =  0 Multiplicity = 1

 SCF Done:  E(RwB97XD) =  -1028.77847379     A.U. after   16 cycles
 Total Energy, E(TD-HF/TD-DFT) =  -1028.67071860
 SCF Done:  E(RwB97XD) =  -1028.79769435     A.U. after   13 cycles
 Total Energy, E(TD-HF/TD-DFT) =  -1028.69561460
 SCF Done:  E(RwB97XD) =  -1028.80357387     A.U. after   13 cycles
 Total Energy, E(TD-HF/TD-DFT) =  -1028.69798300
 SCF Done:  E(RwB97XD) =  -1028.80317182     A.U. after   12 cycles
 Total Energy, E(TD-HF/TD-DFT) =  -1028.69865851
 SCF Done:  E(RwB97XD) =  -1028.80322390     A.U. after   10 cycles
 Total Energy, E(TD-HF/TD-DFT) =  -1028.69867270
 Optimization completed.
    -- Stationary point found.
 Normal termination of Gaussian 16 at Mon Jul 13 17:05:46 2020.

 ----------------------------------------------------------------------
 #P Geom=AllCheck Guess=TCheck SCRF=Check GenChk RwB97XD TD(FC,Read)/CC
 -pVDZ Freq
 ----------------------------------------------------------------------

 Structure from the checkpoint file:  "config_10_7.chk"
 ------------------------------------------------
 NM 2D-scan of HBT TD-WB97XD pVDZ in CTC Relaxed.
 ------------------------------------------------
 Charge =  0 Multiplicity = 1

                          Input orientation:
 ---------------------------------------------------------------------
 Center     Atomic      Atomic             Coordinates (Angstroms)
 Number     Number       Type             X           Y           Z
 ---------------------------------------------------------------------
      1          6           0        1.696013   -3.288684   -0.000005
      2          6           0        1.014542   -2.075183   -0.000011
      3          6           0        1.726209   -0.864000   -0.000029
      4          6           0        3.127347   -0.838346   -0.000037
      5          6           0        3.796228   -2.054413   -0.000030
      6          6           0        3.092831   -3.266793   -0.000015
      7          1           0        1.155257   -4.235470    0.000008
      8          1           0        3.660825    0.112495   -0.000048
      9          1           0        4.887229   -2.064552   -0.000036
     10          1           0        3.640845   -4.209599   -0.000011
     11          7           0        0.895595    0.207562   -0.000036
     12         16           0       -0.730232   -1.755992    0.000002
     13          6           0       -1.398378    1.061570    0.000002
     14          6           0       -2.772995    0.871054   -0.000020
     15          6           0       -0.875954    2.457377    0.000044
     16          6           0       -3.683098    1.965522    0.000014
     17          1           0       -3.179592   -0.143552   -0.000063
     18          6           0       -1.840509    3.514316    0.000074
     19          6           0       -3.219510    3.277301    0.000063
     20          1           0       -4.753998    1.757112    0.000000
     21          1           0       -1.436302    4.528222    0.000113
     22          1           0       -3.922880    4.111098    0.000090
     23          6           0       -0.445193   -0.019979   -0.000016
     24          8           0        0.360999    2.694854    0.000052
     25          1           0        1.197342    1.184885   -0.000027
 ---------------------------------------------------------------------

 SCF Done:  E(RwB97XD) =  -1028.80322390     A.U. after    1 cycles

 Excitation energies and oscillator strengths:

 Excited state symmetry could not be determined.
 Excited State   1:      Singlet-?Sym    2.8450 eV  435.80 nm  f=0.4364  <S**2>=0.000
      59 -> 60         0.69646
 This state for optimization and/or second-order correction.
 Total Energy, E(TD-HF/TD-DFT) =  -1028.69867272
 Copying the excited state density for this state as the 1-particle RhoCI density.

 Excited state symmetry could not be determined.
 Excited State   2:      Singlet-?Sym    3.6061 eV  343.81 nm  f=0.0000  <S**2>=0.000
      57 -> 60         0.68350
      57 -> 62         0.11756
      57 -> 64         0.11348

 Excited state symmetry could not be determined.
 Excited State   3:      Singlet-?Sym    4.3298 eV  286.35 nm  f=0.4538  <S**2>=0.000
      58 -> 60         0.68093

 Alpha  occ. eigenvalues --  -89.10714 -19.20996 -14.52202 -10.42308 -10.37320
 Alpha  occ. eigenvalues --  -10.36340 -10.35871 -10.33543 -10.33056 -10.32688
 Alpha  occ. eigenvalues --  -10.32477 -10.31489 -10.31263 -10.30668 -10.29138
 Alpha  occ. eigenvalues --  -10.28259  -8.12658  -6.07541  -6.07162  -6.06676
 Alpha  occ. eigenvalues --   -1.13201  -1.09452  -0.98457  -0.95179  -0.93238
 Alpha  occ. eigenvalues --   -0.89178  -0.86604  -0.84062  -0.80986  -0.76041
 Alpha  occ. eigenvalues --   -0.73496  -0.71920  -0.69056  -0.67584  -0.64999
 Alpha  occ. eigenvalues --   -0.60995  -0.59775  -0.56634  -0.56053  -0.55727
 Alpha  occ. eigenvalues --   -0.55008  -0.53659  -0.53098  -0.50771  -0.48992
 Alpha  occ. eigenvalues --   -0.48760  -0.48309  -0.46973  -0.45523  -0.44821
 Alpha  occ. eigenvalues --   -0.44341  -0.42919  -0.42118  -0.40170  -0.36880
 Alpha  occ. eigenvalues --   -0.33724  -0.31572  -0.31496  -0.25758
 Alpha virt. eigenvalues --   -0.02131   0.03650   0.05879   0.06345   0.09369
 Alpha virt. eigenvalues --    0.10687   0.12547   0.14565   0.16092   0.17165
 Alpha virt. eigenvalues --    0.18679   0.20001   0.20953   0.21329   0.23008

 Mulliken charges:
               1
     1  C    0.014366
     2  C   -0.247445
     3  C    0.254199
     4  C   -0.009947
     5  C    0.014024
     6  C    0.000729
     7  H    0.026607
     8  H    0.032922
     9  H    0.028283
    10  H    0.027269
    11  N   -0.109803
    12  S    0.199978
    13  C   -0.104453
    14  C   -0.025901
    15  C    0.116772
    16  C   -0.038102
    17  H    0.002861
    18  C   -0.032203
    19  C    0.033938
    20  H    0.001969
    21  H    0.000526
    22  H    0.014058
    23  C    0.066646
    24  O   -0.401684
    25  H    0.134390
 Sum of Mulliken charges =  -0.00000

 Dipole moment (field-independent basis, Debye):
    X=              2.0188    Y=             -5.6989    Z=             -0.0001  Tot=              6.0459
 Quadrupole moment (field-independent basis, Debye-Ang):
   XX=            -82.2309   YY=            -95.5230   ZZ=           -104.2310
   XY=             -6.5337   XZ=             -0.0002   YZ=             -0.0001

  Exact polarizability:     348.904    -122.166     297.585      -0.002       0.002      63.308
 Approx polarizability:     274.862     -38.173     265.943      -0.001       0.002      82.084

 ******    1 imaginary frequencies (negative Signs) ******

                      1                      2                      3
                      A                      A                      A
 Frequencies --    -66.2096                44.2920               107.2451
 Red. masses --      6.5143                 6.4735                 4.9633
 Frc consts  --      0.0168                 0.0075                 0.0336
 IR Inten    --      1.6124                 1.7078                 0.2071

                      4                      5                      6
                      A                      A                      A
 Frequencies --    109.9053               175.5973               225.6645
 Red. masses --      5.7338                 5.2928                 5.4409
 Frc consts  --      0.0408                 0.0962                 0.1632
 IR Inten    --      8.2611                 0.0749                 0.3008

                      7                      8                      9
                      A                      A                      A
 Frequencies --    263.0490               271.3822               312.9022
 Red. masses --      7.6264                 4.6131                 7.4548
 Frc consts  --      0.3109                 0.2002                 0.4300
 IR Inten    --      1.3708                 0.8963                 4.6796

                     10                     11                     12
                      A                      A                      A
 Frequencies --    350.4311               382.6587               431.1098
 Red. masses --      4.7702                 8.4856                 3.4390
 Frc consts  --      0.3451                 0.7321                 0.3766
 IR Inten    --      0.9770                 6.3851                 3.9629

                     13                     14                     15
                      A                      A                      A
 Frequencies --    451.2820               500.9564               509.8651
 Red. masses --      4.5622                 8.3726                 3.2018
 Frc consts  --      0.5474                 1.2380                 0.4904
 IR Inten    --      3.0587                10.0421                 0.4831

                     16                     17                     18
                      A                      A                      A
 Frequencies --    539.9038               556.6098               558.9581
 Red. masses --      8.7344                 3.8134                 6.7380
 Frc consts  --      1.5001                 0.6961                 1.2403
 IR Inten    --      9.7807                 1.0439                35.1942

                     19                     20                     21
                      A                      A                      A
 Frequencies --    568.3166               638.2255               688.9263
 Red. masses --      7.3775                 6.1053                 1.5572
 Frc consts  --      1.4039                 1.4652                 0.4354
 IR Inten    --     15.9929                49.8790                40.2337

                     22                     23                     24
                      A                      A                      A
 Frequencies --    703.2623               729.1682               743.2012
 Red. masses --      6.2577                 8.1279                 2.5508
 Frc consts  --      1.8235                 2.5461                 0.8301
 IR Inten    --      1.6390                 3.7416                12.7509

                     25                     26                     27
                      A                      A                      A
 Frequencies --    761.4417               766.8698               812.3975
 Red. masses --      1.7395                 1.6052                 1.1051
 Frc consts  --      0.5942                 0.5562                 0.4297
 IR Inten    --      7.6905                55.8437                87.7954

                     28                     29                     30
                      A                      A                      A
 Frequencies --    813.2836               841.3289               866.5370
 Red. masses --      6.3765                 1.7987                 1.3799
 Frc consts  --      2.4850                 0.7501                 0.6105
 IR Inten    --     17.9433                 2.8524                 3.5033

                     31                     32                     33
                      A                      A                      A
 Frequencies --    886.0102               905.8651               953.5916
 Red. masses --      4.8233                 1.4271                 1.3628
 Frc consts  --      2.2309                 0.6900                 0.7302
 IR Inten    --      3.5319                 9.3106                 0.9514

                     34                     35                     36
                      A                      A                      A
 Frequencies --    956.9756               958.1904              1004.5601
 Red. masses --      5.2853                 1.3481                 1.2941
 Frc consts  --      2.8518                 0.7293                 0.7694
 IR Inten    --      1.2036                 1.6818                 0.0076

                     37                     38                     39
                      A                      A                      A
 Frequencies --   1043.4459              1052.8153              1081.8601
 Red. masses --      2.1982                 2.1528                 4.1684
 Frc consts  --      1.4101                 1.4059                 2.8745
 IR Inten    --      0.3324                 7.9430                 1.7445

                     40                     41                     42
                      A                      A                      A
 Frequencies --   1107.3608              1150.6660              1159.5260
 Red. masses --      1.5979                 1.3189                 1.1850
 Frc consts  --      1.1544                 1.0288                 0.9387
 IR Inten    --     42.3342                 5.9352                71.1798

                     43                     44                     45
                      A                      A                      A
 Frequencies --   1180.2764              1207.8763              1247.6110
 Red. masses --      1.1418                 1.7465                 2.2504
 Frc consts  --      0.9372                 1.5013                 2.0638
 IR Inten    --     32.0397                86.6388                27.1452

                     46                     47                     48
                      A                      A                      A
 Frequencies --   1280.3280              1297.8914              1337.0253
 Red. masses --      1.8389                 1.8109                 4.9669
 Frc consts  --      1.7761                 1.7973                 5.2314
 IR Inten    --    110.8337                 5.5320                20.4538

                     49                     50                     51
                      A                      A                      A
 Frequencies --   1369.5176              1392.9271              1398.8172
 Red. masses --      3.4771                 2.3976                 3.4338
 Frc consts  --      3.8424                 2.7409                 3.9586
 IR Inten    --     96.6554                47.6944                18.8962

                     52                     53                     54
                      A                      A                      A
 Frequencies --   1440.3971              1477.5656              1512.0985
 Red. masses --      3.1285                 2.8837                 2.9746
 Frc consts  --      3.8243                 3.7094                 4.0072
 IR Inten    --    248.5421                 4.0758                27.9912

                     55                     56                     57
                      A                      A                      A
 Frequencies --   1528.7679              1566.7803              1589.5901
 Red. masses --      3.9385                 5.4376                 4.8570
 Frc consts  --      5.4233                 7.8645                 7.2308
 IR Inten    --     54.9618               201.2501                94.1675

                     58                     59                     60
                      A                      A                      A
 Frequencies --   1626.7838              1657.8741              1671.7862
 Red. masses --      7.0336                 6.6427                 6.8637
 Frc consts  --     10.9670                10.7572                11.3024
 IR Inten    --    167.5755                 7.9461               184.4109

                     61                     62                     63
                      A                      A                      A
 Frequencies --   3188.7323              3208.9652              3213.0279
 Red. masses --      1.0893                 1.0862                 1.0864
 Frc consts  --      6.5256                 6.5901                 6.6082
 IR Inten    --     20.4676                 2.2000                 5.7260

                     64                     65                     66
                      A                      A                      A
 Frequencies --   3221.0118              3224.2189              3233.2799
 Red. masses --      1.0918                 1.0902                 1.0960
 Frc consts  --      6.6742                 6.6776                 6.7509
 IR Inten    --     13.1640                 2.9004                 7.2331

                     67                     68                     69
                      A                      A                      A
 Frequencies --   3233.6604              3240.6264              3417.7595
 Red. masses --      1.0989                 1.0995                 1.0845
 Frc consts  --      6.7699                 6.8032                 7.4636
 IR Inten    --     27.7230                13.4046               781.3978

 - Thermochemistry -
 -------------------
 Temperature   298.150 Kelvin.  Pressure   1.00000 Atm.
 Atom     1 has atomic number  6 and mass  12.00000

 Molecular mass:   227.04049 amu.
 Principal axes and moments of inertia in atomic units:
                           1         2         3
     Eigenvalues --  1304.710836449.683347754.39417
           X           -0.70306   0.71113   0.00000
           Y            0.71113   0.70306  -0.00001
           Z            0.00001   0.00001   1.00000
 This molecule is an asymmetric top.
 Rotational symmetry number  1.
 Warning -- assumption of classical behavior for rotation
           may cause significant error
 Rotational temperatures (Kelvin)      0.06639     0.01343     0.01117
 Rotational constants (GHZ):           1.38325     0.27982     0.23274
    1 imaginary frequencies ignored.
 Zero-point vibrational energy     490174.8 (Joules/Mol)
                                  117.15460 (Kcal/Mol)
 Warning -- explicit consideration of  18 degrees of freedom as
           vibrations may cause significant error
 Vibrational temperatures:     63.73   154.30   158.13   252.65   324.68
          (Kelvin)            378.47   390.46   450.20   504.19   550.56
                              620.27   649.29   720.76   733.58   776.80
                              800.84   804.22   817.68   918.26   991.21
                             1011.84  1049.11  1069.30  1095.54  1103.35
                             1168.86  1170.13  1210.48  1246.75  1274.77
                             1303.34  1372.01  1376.87  1378.62  1445.34
                             1501.29  1514.77  1556.56  1593.25  1655.55
                             1668.30  1698.15  1737.86  1795.03  1842.11
                             1867.38  1923.68  1970.43  2004.11  2012.59
                             2072.41  2125.89  2175.57  2199.56  2254.25
                             2287.07  2340.58  2385.31  2405.33  4587.87
                             4616.99  4622.83  4634.32  4638.93  4651.97
                             4652.52  4662.54  4917.39

 Zero-point correction=                           0.186698 (Hartree/Particle)
 Thermal correction to Energy=                    0.198273
 Thermal correction to Enthalpy=                  0.199217
 Thermal correction to Gibbs Free Energy=         0.148540
 Sum of electronic and zero-point Energies=          -1028.511975
 Sum of electronic and thermal Energies=             -1028.500400
 Sum of electronic and thermal Enthalpies=           -1028.499456
 Sum of electronic and thermal Free Energies=        -1028.550132

                     E (Thermal)             CV                S
                      KCal/Mol        Cal/Mol-Kelvin    Cal/Mol-Kelvin
 Total                  124.418             47.690            106.658
 Electronic               0.000              0.000              0.000
 Translational            0.889              2.981             42.162
 Rotational               0.889              2.981             32.545
 Vibrational            122.641             41.729             31.951
 Vibration     1          0.595              1.980              5.057
 Vibration     2          0.606              1.943              3.318
 Vibration     3          0.606              1.941              3.271
 Vibration     4          0.628              1.872              2.375
 Vibration     5          0.650              1.802              1.913
 Vibration     6          0.670              1.741              1.641
 Vibration     7          0.675              1.726              1.587
 Vibration     8          0.701              1.649              1.347
 Vibration     9          0.727              1.574              1.164
 Vibration    10          0.752              1.507              1.029
 Vibration    11          0.792              1.402              0.855
 Vibration    12          0.810              1.358              0.792
 Vibration    13          0.856              1.248              0.656
 Vibration    14          0.865              1.228              0.634
 Vibration    15          0.895              1.162              0.565
 Vibration    16          0.912              1.125              0.531
 Vibration    17          0.915              1.120              0.526
 Vibration    18          0.924              1.100              0.507

 Optimization completed.
    -- Stationary point found.
 Normal termination of Gaussian 16 at Mon Jul 13 17:26:13 2020.
