 Gaussian 16, Revision C.01,
 Gaussian 16:  ES64L-G16RevC.01  3-Jul-2019

 ----------------------------------------------------------------------
 #p opt=addgic freq td wb97xd/cc-pvdz nosymm int=ultrafine scrf=(solven
 t=CarbonTetraChloride)
 ----------------------------------------------------------------------

 ------------------------------------------------
 NM 2D-scan of HBT TD-WB97XD pVDZ in CTC Relaxed.
 ------------------------------------------------
 Symbolic Z-matrix:
 Charge =  0 Multiplicity = 1

 SCF Done:  E(RwB97XD) =  -1028.80154762     A.U. after   15 cycles
 Total Energy, E(TD-HF/TD-DFT) =  -1028.68310008
 SCF Done:  E(RwB97XD) =  -1028.80289920     A.U. after   12 cycles
 Total Energy, E(TD-HF/TD-DFT) =  -1028.68398748
 SCF Done:  E(RwB97XD) =  -1028.80262694     A.U. after   11 cycles
 Total Energy, E(TD-HF/TD-DFT) =  -1028.68409264
 SCF Done:  E(RwB97XD) =  -1028.80161803     A.U. after   12 cycles
 Total Energy, E(TD-HF/TD-DFT) =  -1028.68427719
 SCF Done:  E(RwB97XD) =  -1028.80126552     A.U. after   11 cycles
 Total Energy, E(TD-HF/TD-DFT) =  -1028.68429906
 SCF Done:  E(RwB97XD) =  -1028.80103771     A.U. after   11 cycles
 Total Energy, E(TD-HF/TD-DFT) =  -1028.68430671
 Optimization completed.
    -- Stationary point found.
 Normal termination of Gaussian 16 at Tue Jul 14 15:17:20 2020.

 ----------------------------------------------------------------------
 #P Geom=AllCheck Guess=TCheck SCRF=Check GenChk RwB97XD TD(FC,Read)/CC
 -pVDZ Freq
 ----------------------------------------------------------------------

 Structure from the checkpoint file:  "config_6_18.chk"
 ------------------------------------------------
 NM 2D-scan of HBT TD-WB97XD pVDZ in CTC Relaxed.
 ------------------------------------------------
 Charge =  0 Multiplicity = 1

                          Input orientation:
 ---------------------------------------------------------------------
 Center     Atomic      Atomic             Coordinates (Angstroms)
 Number     Number       Type             X           Y           Z
 ---------------------------------------------------------------------
      1          6           0        1.520216   -3.253572   -0.000055
      2          6           0        0.995235   -1.965572   -0.000059
      3          6           0        1.797865   -0.782596   -0.000029
      4          6           0        3.198078   -0.962428   -0.000004
      5          6           0        3.719101   -2.253633    0.000001
      6          6           0        2.901470   -3.396950   -0.000022
      7          1           0        0.857022   -4.119578   -0.000075
      8          1           0        3.859671   -0.095513    0.000017
      9          1           0        4.803373   -2.379514    0.000024
     10          1           0        3.349222   -4.391361   -0.000015
     11          7           0        1.063735    0.385226   -0.000023
     12         16           0       -0.695804   -1.578050   -0.000094
     13          6           0       -1.299910    1.080450    0.000025
     14          6           0       -2.656469    0.719384    0.000076
     15          6           0       -0.922749    2.497718    0.000027
     16          6           0       -3.643961    1.705095    0.000063
     17          1           0       -2.946268   -0.332306    0.000116
     18          6           0       -1.955864    3.465352    0.000016
     19          6           0       -3.296677    3.068991    0.000025
     20          1           0       -4.694599    1.411029    0.000082
     21          1           0       -1.671573    4.518302    0.000003
     22          1           0       -4.083216    3.824289    0.000010
     23          6           0       -0.272510    0.116584   -0.000036
     24          8           0        0.335835    2.789683    0.000033
     25          1           0        1.028949    1.629042    0.000005
 ---------------------------------------------------------------------

 SCF Done:  E(RwB97XD) =  -1028.80103771     A.U. after    1 cycles

 Excitation energies and oscillator strengths:

 Excited state symmetry could not be determined.
 Excited State   1:      Singlet-?Sym    3.1764 eV  390.33 nm  f=0.4701  <S**2>=0.000
      59 -> 60         0.69420
 This state for optimization and/or second-order correction.
 Total Energy, E(TD-HF/TD-DFT) =  -1028.68430672
 Copying the excited state density for this state as the 1-particle RhoCI density.

 Excited state symmetry could not be determined.
 Excited State   2:      Singlet-?Sym    4.3201 eV  287.00 nm  f=0.2772  <S**2>=0.000
      58 -> 60         0.67478

 Excited state symmetry could not be determined.
 Excited State   3:      Singlet-?Sym    4.4833 eV  276.55 nm  f=0.0000  <S**2>=0.000
      56 -> 60         0.68777
      56 -> 62         0.10011
      56 -> 64        -0.10648

 Alpha  occ. eigenvalues --  -89.09490 -19.24019 -14.50535 -10.40724 -10.36994
 Alpha  occ. eigenvalues --  -10.36851 -10.35465 -10.32694 -10.32449 -10.32011
 Alpha  occ. eigenvalues --  -10.31919 -10.31884 -10.31567 -10.31144 -10.29827
 Alpha  occ. eigenvalues --  -10.29495  -8.11602  -6.06445  -6.06097  -6.05643
 Alpha  occ. eigenvalues --   -1.12587  -1.09510  -0.97516  -0.95821  -0.92965
 Alpha  occ. eigenvalues --   -0.88936  -0.86103  -0.83660  -0.82135  -0.75763
 Alpha  occ. eigenvalues --   -0.71794  -0.71297  -0.68568  -0.67441  -0.63694
 Alpha  occ. eigenvalues --   -0.60962  -0.59388  -0.57592  -0.55321  -0.54849
 Alpha  occ. eigenvalues --   -0.54389  -0.53737  -0.52919  -0.50581  -0.49760
 Alpha  occ. eigenvalues --   -0.49337  -0.47275  -0.46511  -0.45480  -0.45085
 Alpha  occ. eigenvalues --   -0.44274  -0.43060  -0.42052  -0.40715  -0.36595
 Alpha  occ. eigenvalues --   -0.34634  -0.32842  -0.31276  -0.27286
 Alpha virt. eigenvalues --   -0.01845   0.04367   0.06120   0.07200   0.08276
 Alpha virt. eigenvalues --    0.10653   0.14532   0.14954   0.16889   0.17778
 Alpha virt. eigenvalues --    0.18669   0.20730   0.20913   0.21800   0.22593

 Mulliken charges:
               1
     1  C    0.023026
     2  C   -0.219397
     3  C    0.254717
     4  C   -0.019613
     5  C    0.005859
     6  C    0.001542
     7  H    0.021833
     8  H    0.026257
     9  H    0.023655
    10  H    0.023781
    11  N   -0.305983
    12  S    0.184908
    13  C   -0.095644
    14  C   -0.033118
    15  C    0.134947
    16  C   -0.023216
    17  H    0.020382
    18  C   -0.016893
    19  C    0.028957
    20  H    0.005621
    21  H    0.010504
    22  H    0.019340
    23  C    0.076653
    24  O   -0.396124
    25  H    0.248005
 Sum of Mulliken charges =  -0.00000

 Dipole moment (field-independent basis, Debye):
    X=              0.4908    Y=             -4.2674    Z=             -0.0000  Tot=              4.2955
 Quadrupole moment (field-independent basis, Debye-Ang):
   XX=            -82.6862   YY=            -93.2281   ZZ=           -104.2204
   XY=             -6.9343   XZ=              0.0000   YZ=             -0.0001

  Exact polarizability:     351.754    -134.743     313.981      -0.002       0.003      63.178
 Approx polarizability:     272.721     -34.385     261.747       0.000       0.001      82.196

 ******    1 imaginary frequencies (negative Signs) ******

                      1                      2                      3
                      A                      A                      A
 Frequencies --  -1351.3990                39.6338                59.8802
 Red. masses --      1.0646                 6.5351                 4.5972
 Frc consts  --      1.1455                 0.0060                 0.0097
 IR Inten    --   2137.0678                 1.4622                 0.0476

                      4                      5                      6
                      A                      A                      A
 Frequencies --    125.3151               136.8523               184.2859
 Red. masses --      5.8554                 5.5393                 6.7886
 Frc consts  --      0.0542                 0.0611                 0.1358
 IR Inten    --      0.2730                 1.7889                 0.4834

                      7                      8                      9
                      A                      A                      A
 Frequencies --    218.6999               271.3518               275.2768
 Red. masses --      5.4739                 4.6280                 7.1097
 Frc consts  --      0.1543                 0.2008                 0.3174
 IR Inten    --      0.0369                 0.0164                 9.7059

                     10                     11                     12
                      A                      A                      A
 Frequencies --    365.7793               366.2153               417.4342
 Red. masses --      6.7698                 4.9293                10.7501
 Frc consts  --      0.5337                 0.3895                 1.1037
 IR Inten    --      7.7802                 0.3864                 5.1935

                     13                     14                     15
                      A                      A                      A
 Frequencies --    439.1052               467.0294               502.5547
 Red. masses --      3.2379                 4.6508                 3.1766
 Frc consts  --      0.3678                 0.5977                 0.4727
 IR Inten    --      3.7380                 0.8162                 0.3725

                     16                     17                     18
                      A                      A                      A
 Frequencies --    509.0184               547.1428               560.3786
 Red. masses --      8.7814                 8.6728                 3.8695
 Frc consts  --      1.3405                 1.5297                 0.7159
 IR Inten    --      3.8019                 2.8106                 0.2317

                     19                     20                     21
                      A                      A                      A
 Frequencies --    573.4229               589.3272               656.2993
 Red. masses --      7.5643                 6.7630                 6.6964
 Frc consts  --      1.4654                 1.3839                 1.6994
 IR Inten    --     22.9012                 4.9630                49.1353

                     22                     23                     24
                      A                      A                      A
 Frequencies --    700.1556               730.5986               743.2470
 Red. masses --      1.5496                 6.3169                 2.3502
 Frc consts  --      0.4476                 1.9866                 0.7649
 IR Inten    --     46.8702                 3.4955                22.2111

                     25                     26                     27
                      A                      A                      A
 Frequencies --    749.1926               755.4809               766.4372
 Red. masses --      8.4524                 1.7518                 1.7415
 Frc consts  --      2.7952                 0.5891                 0.6027
 IR Inten    --     34.4565                13.7047                69.4036

                     28                     29                     30
                      A                      A                      A
 Frequencies --    810.7659               833.6521               867.5576
 Red. masses --      1.9251                 5.8547                 1.3881
 Frc consts  --      0.7456                 2.3973                 0.6156
 IR Inten    --      0.6770                10.0961                 0.9127

                     31                     32                     33
                      A                      A                      A
 Frequencies --    903.5420               908.7633               955.3625
 Red. masses --      1.3810                 6.7404                 1.3766
 Frc consts  --      0.6643                 3.2797                 0.7403
 IR Inten    --      4.7399                39.9098                 0.7218

                     34                     35                     36
                      A                      A                      A
 Frequencies --    955.7850               997.1004              1001.6863
 Red. masses --      1.3531                 7.6553                 1.2994
 Frc consts  --      0.7283                 4.4843                 0.7682
 IR Inten    --      1.5637                24.7729                 0.0028

                     37                     38                     39
                      A                      A                      A
 Frequencies --   1028.3582              1050.1792              1099.5436
 Red. masses --      1.9528                 2.0698                 3.1970
 Frc consts  --      1.2167                 1.3450                 2.2773
 IR Inten    --      3.4241                 1.6236                75.3422

                     40                     41                     42
                      A                      A                      A
 Frequencies --   1127.5361              1153.9512              1164.6495
 Red. masses --      1.4243                 1.3075                 1.2422
 Frc consts  --      1.0668                 1.0258                 0.9927
 IR Inten    --     17.7263                47.1965                22.4523

                     43                     44                     45
                      A                      A                      A
 Frequencies --   1178.8224              1210.9530              1232.3763
 Red. masses --      1.2250                 1.0497                 1.9245
 Frc consts  --      1.0029                 0.9069                 1.7221
 IR Inten    --     16.9355                70.8346                35.5032

                     46                     47                     48
                      A                      A                      A
 Frequencies --   1263.7941              1302.3107              1322.1894
 Red. masses --      2.5823                 2.6490                 3.0337
 Frc consts  --      2.4300                 2.6470                 3.1247
 IR Inten    --     26.7253                13.5409                 8.2386

                     49                     50                     51
                      A                      A                      A
 Frequencies --   1355.1214              1382.5133              1399.8456
 Red. masses --      6.1916                 2.6912                 3.1813
 Frc consts  --      6.6990                 3.0307                 3.6730
 IR Inten    --    214.4612                71.9345                27.6975

                     52                     53                     54
                      A                      A                      A
 Frequencies --   1433.2468              1473.4498              1500.6783
 Red. masses --      3.5415                 3.1047                 3.1616
 Frc consts  --      4.2862                 3.9714                 4.1950
 IR Inten    --    563.7503                20.2231                41.0381

                     55                     56                     57
                      A                      A                      A
 Frequencies --   1511.5255              1551.8850              1569.1149
 Red. masses --      4.8471                 4.9472                 5.2338
 Frc consts  --      6.5248                 7.0198                 7.5923
 IR Inten    --    355.9957                60.5102                32.3902

                     58                     59                     60
                      A                      A                      A
 Frequencies --   1618.3897              1627.2739              1656.1820
 Red. masses --      5.9530                 6.3526                 6.3637
 Frc consts  --      9.1865                 9.9112                10.2844
 IR Inten    --     18.7531               905.3501               103.5949

                     61                     62                     63
                      A                      A                      A
 Frequencies --   1884.5499              3206.3212              3209.9262
 Red. masses --      1.1017                 1.0862                 1.0867
 Frc consts  --      2.3053                 6.5790                 6.5968
 IR Inten    --    296.8453                 5.6842                14.6342

                     64                     65                     66
                      A                      A                      A
 Frequencies --   3216.1240              3219.2036              3226.6621
 Red. masses --      1.0902                 1.0885                 1.0952
 Frc consts  --      6.6439                 6.6463                 6.7179
 IR Inten    --      2.3473                11.5822                 8.8882

                     67                     68                     69
                      A                      A                      A
 Frequencies --   3228.4411              3234.4583              3239.3891
 Red. masses --      1.0940                 1.0995                 1.0983
 Frc consts  --      6.7183                 6.7774                 6.7905
 IR Inten    --     13.7782                22.0541                19.0310

 - Thermochemistry -
 -------------------
 Temperature   298.150 Kelvin.  Pressure   1.00000 Atm.
 Atom     1 has atomic number  6 and mass  12.00000

 Molecular mass:   227.04049 amu.
 Principal axes and moments of inertia in atomic units:
                           1         2         3
     Eigenvalues --  1280.477296297.419927577.89721
           X           -0.70405   0.71015  -0.00000
           Y            0.71015   0.70405  -0.00002
           Z            0.00001   0.00001   1.00000
 This molecule is an asymmetric top.
 Rotational symmetry number  1.
 Warning -- assumption of classical behavior for rotation
           may cause significant error
 Rotational temperatures (Kelvin)      0.06764     0.01375     0.01143
 Rotational constants (GHZ):           1.40943     0.28658     0.23816
    1 imaginary frequencies ignored.
 Zero-point vibrational energy     477688.6 (Joules/Mol)
                                  114.17031 (Kcal/Mol)
 Warning -- explicit consideration of  19 degrees of freedom as
           vibrations may cause significant error
 Vibrational temperatures:     57.02    86.15   180.30   196.90   265.15
          (Kelvin)            314.66   390.41   396.06   526.27   526.90
                              600.59   631.77   671.95   723.06   732.36
                              787.22   806.26   825.03   847.91   944.27
                             1007.37  1051.17  1069.37  1077.92  1086.97
                             1102.73  1166.51  1199.44  1248.22  1300.00
                             1307.51  1374.55  1375.16  1434.61  1441.20
                             1479.58  1510.97  1582.00  1622.27  1660.28
                             1675.67  1696.06  1742.29  1773.11  1818.32
                             1873.73  1902.34  1949.72  1989.13  2014.07
                             2062.12  2119.97  2159.14  2174.75  2232.82
                             2257.61  2328.50  2341.28  2382.88  2711.45
                             4613.18  4618.37  4627.29  4631.72  4642.45
                             4645.01  4653.66  4660.76

 Zero-point correction=                           0.181942 (Hartree/Particle)
 Thermal correction to Energy=                    0.193971
 Thermal correction to Enthalpy=                  0.194915
 Thermal correction to Gibbs Free Energy=         0.142872
 Sum of electronic and zero-point Energies=          -1028.502365
 Sum of electronic and thermal Energies=             -1028.490336
 Sum of electronic and thermal Enthalpies=           -1028.489392
 Sum of electronic and thermal Free Energies=        -1028.541435

                     E (Thermal)             CV                S
                      KCal/Mol        Cal/Mol-Kelvin    Cal/Mol-Kelvin
 Total                  121.719             48.468            109.535
 Electronic               0.000              0.000              0.000
 Translational            0.889              2.981             42.162
 Rotational               0.889              2.981             32.480
 Vibrational            119.941             42.506             34.893
 Vibration     1          0.594              1.981              5.277
 Vibration     2          0.597              1.973              4.461
 Vibration     3          0.610              1.928              3.017
 Vibration     4          0.614              1.917              2.847
 Vibration     5          0.631              1.861              2.285
 Vibration     6          0.646              1.813              1.970
 Vibration     7          0.675              1.726              1.588
 Vibration     8          0.677              1.719              1.563
 Vibration     9          0.739              1.543              1.097
 Vibration    10          0.739              1.542              1.096
 Vibration    11          0.780              1.432              0.901
 Vibration    12          0.799              1.385              0.829
 Vibration    13          0.824              1.323              0.746
 Vibration    14          0.858              1.244              0.652
 Vibration    15          0.864              1.230              0.636
 Vibration    16          0.902              1.146              0.550
 Vibration    17          0.916              1.117              0.523
 Vibration    18          0.930              1.089              0.498
 Vibration    19          0.947              1.055              0.468

 Optimization completed.
    -- Stationary point found.
 Normal termination of Gaussian 16 at Tue Jul 14 15:35:13 2020.
