 Gaussian 16, Revision C.01,
 Gaussian 16:  ES64L-G16RevC.01  3-Jul-2019

 ----------------------------------------------------------------------
 #p opt=addgic freq td wb97xd/cc-pvdz nosymm int=ultrafine scrf=(solven
 t=CarbonTetraChloride)
 ----------------------------------------------------------------------

 ------------------------------------------------
 NM 2D-scan of HBT TD-WB97XD pVDZ in CTC Relaxed.
 ------------------------------------------------
 Symbolic Z-matrix:
 Charge =  0 Multiplicity = 1

 SCF Done:  E(RwB97XD) =  -1028.80836128     A.U. after   15 cycles
 Total Energy, E(TD-HF/TD-DFT) =  -1028.69505832
 SCF Done:  E(RwB97XD) =  -1028.79960720     A.U. after   14 cycles
 Total Energy, E(TD-HF/TD-DFT) =  -1028.69356683
 SCF Done:  E(RwB97XD) =  -1028.80703371     A.U. after   11 cycles
 Total Energy, E(TD-HF/TD-DFT) =  -1028.69685193
 SCF Done:  E(RwB97XD) =  -1028.80736528     A.U. after   10 cycles
 Total Energy, E(TD-HF/TD-DFT) =  -1028.69687598
 Optimization completed.
    -- Stationary point found.
 Normal termination of Gaussian 16 at Mon Jul 13 15:48:54 2020.

 ----------------------------------------------------------------------
 #P Geom=AllCheck Guess=TCheck SCRF=Check GenChk RwB97XD TD(FC,Read)/CC
 -pVDZ Freq
 ----------------------------------------------------------------------

 Structure from the checkpoint file:  "config_8_7.chk"
 ------------------------------------------------
 NM 2D-scan of HBT TD-WB97XD pVDZ in CTC Relaxed.
 ------------------------------------------------
 Charge =  0 Multiplicity = 1

                          Input orientation:
 ---------------------------------------------------------------------
 Center     Atomic      Atomic             Coordinates (Angstroms)
 Number     Number       Type             X           Y           Z
 ---------------------------------------------------------------------
      1          6           0        1.683305   -3.280730   -0.000017
      2          6           0        0.997900   -2.066357   -0.000010
      3          6           0        1.706857   -0.835583   -0.000015
      4          6           0        3.111213   -0.824992   -0.000025
      5          6           0        3.780861   -2.037341   -0.000030
      6          6           0        3.079476   -3.254642   -0.000028
      7          1           0        1.144745   -4.229157   -0.000015
      8          1           0        3.644433    0.126051   -0.000030
      9          1           0        4.872033   -2.046161   -0.000039
     10          1           0        3.631217   -4.195496   -0.000033
     11          7           0        0.905243    0.259034   -0.000018
     12         16           0       -0.740926   -1.766298    0.000002
     13          6           0       -1.381704    1.039728    0.000005
     14          6           0       -2.766792    0.848367   -0.000003
     15          6           0       -0.874387    2.441064    0.000038
     16          6           0       -3.654011    1.942977    0.000014
     17          1           0       -3.175123   -0.164930   -0.000024
     18          6           0       -1.812674    3.503783    0.000058
     19          6           0       -3.184055    3.263198    0.000047
     20          1           0       -4.727744    1.749165    0.000006
     21          1           0       -1.400250    4.513636    0.000087
     22          1           0       -3.888735    4.095344    0.000064
     23          6           0       -0.424973   -0.019538   -0.000009
     24          8           0        0.377353    2.702116    0.000067
     25          1           0        1.031851    1.367096   -0.000005
 ---------------------------------------------------------------------

 SCF Done:  E(RwB97XD) =  -1028.80736528     A.U. after    1 cycles

 Excitation energies and oscillator strengths:

 Excited state symmetry could not be determined.
 Excited State   1:      Singlet-?Sym    3.0066 eV  412.38 nm  f=0.4479  <S**2>=0.000
      59 -> 60         0.69552
 This state for optimization and/or second-order correction.
 Total Energy, E(TD-HF/TD-DFT) =  -1028.69687598
 Copying the excited state density for this state as the 1-particle RhoCI density.

 Excited state symmetry could not be determined.
 Excited State   2:      Singlet-?Sym    4.0189 eV  308.50 nm  f=0.0000  <S**2>=0.000
      57 -> 60         0.68497
      57 -> 62         0.11264
      57 -> 64         0.11717

 Excited state symmetry could not be determined.
 Excited State   3:      Singlet-?Sym    4.3332 eV  286.12 nm  f=0.4039  <S**2>=0.000
      58 -> 60         0.67802

 Alpha  occ. eigenvalues --  -89.10437 -19.22347 -14.51251 -10.41685 -10.37076
 Alpha  occ. eigenvalues --  -10.36421 -10.36165 -10.33260 -10.32570 -10.32309
 Alpha  occ. eigenvalues --  -10.32217 -10.31720 -10.31469 -10.31035 -10.29437
 Alpha  occ. eigenvalues --  -10.28701  -8.12364  -6.07239  -6.06878  -6.06387
 Alpha  occ. eigenvalues --   -1.12605  -1.09775  -0.97940  -0.95156  -0.93007
 Alpha  occ. eigenvalues --   -0.89094  -0.86228  -0.83847  -0.81572  -0.75944
 Alpha  occ. eigenvalues --   -0.72171  -0.71665  -0.68613  -0.67753  -0.64498
 Alpha  occ. eigenvalues --   -0.60916  -0.59543  -0.56982  -0.55435  -0.55250
 Alpha  occ. eigenvalues --   -0.54693  -0.53615  -0.52979  -0.50874  -0.49563
 Alpha  occ. eigenvalues --   -0.48957  -0.48083  -0.46718  -0.45293  -0.45081
 Alpha  occ. eigenvalues --   -0.44208  -0.43118  -0.41949  -0.40537  -0.36736
 Alpha  occ. eigenvalues --   -0.33359  -0.33046  -0.31328  -0.26477
 Alpha virt. eigenvalues --   -0.01995   0.03976   0.06098   0.06338   0.08804
 Alpha virt. eigenvalues --    0.10533   0.13006   0.14734   0.16123   0.17493
 Alpha virt. eigenvalues --    0.18852   0.20395   0.21101   0.21548   0.22968

 Mulliken charges:
               1
     1  C    0.014303
     2  C   -0.237374
     3  C    0.271679
     4  C   -0.011955
     5  C    0.012301
     6  C   -0.001457
     7  H    0.025305
     8  H    0.029933
     9  H    0.025792
    10  H    0.025647
    11  N   -0.197087
    12  S    0.195553
    13  C   -0.114553
    14  C   -0.022935
    15  C    0.124098
    16  C   -0.033059
    17  H    0.005884
    18  C   -0.013135
    19  C    0.031492
    20  H    0.003796
    21  H    0.005092
    22  H    0.016088
    23  C    0.061372
    24  O   -0.408491
    25  H    0.191711
 Sum of Mulliken charges =  -0.00000

 Dipole moment (field-independent basis, Debye):
    X=              1.2389    Y=             -4.9042    Z=             -0.0001  Tot=              5.0583
 Quadrupole moment (field-independent basis, Debye-Ang):
   XX=            -82.7734   YY=            -94.0054   ZZ=           -104.2940
   XY=             -6.8586   XZ=             -0.0002   YZ=             -0.0001

  Exact polarizability:     350.797    -127.369     305.799      -0.002       0.003      63.308
 Approx polarizability:     273.930     -35.862     266.137      -0.001       0.002      82.189

                      1                      2                      3
                      A                      A                      A
 Frequencies --     35.8763                49.6647               113.7651
 Red. masses --      5.9788                 6.5919                 5.0743
 Frc consts  --      0.0045                 0.0096                 0.0387
 IR Inten    --      1.2963                 1.1540                 0.1845

                      4                      5                      6
                      A                      A                      A
 Frequencies --    113.8074               179.9063               219.4042
 Red. masses --      5.6402                 5.7414                 5.4013
 Frc consts  --      0.0430                 0.1095                 0.1532
 IR Inten    --     28.3137                 0.1909                 0.1762

                      7                      8                      9
                      A                      A                      A
 Frequencies --    255.9254               269.1507               303.1516
 Red. masses --      7.2715                 4.6811                 5.9007
 Frc consts  --      0.2806                 0.1998                 0.3195
 IR Inten    --     28.4309                 0.2596                52.1368

                     10                     11                     12
                      A                      A                      A
 Frequencies --    362.4035               398.3388               436.6880
 Red. masses --      5.0658                10.0700                 3.2882
 Frc consts  --      0.3920                 0.9414                 0.3695
 IR Inten    --      0.8748                 2.7316                 4.5381

                     13                     14                     15
                      A                      A                      A
 Frequencies --    464.6843               502.9233               504.7913
 Red. masses --      4.7218                 3.1746                 8.9155
 Frc consts  --      0.6007                 0.4731                 1.3385
 IR Inten    --      1.2657                 0.5270                11.4373

                     16                     17                     18
                      A                      A                      A
 Frequencies --    536.6350               553.5638               557.2813
 Red. masses --      6.6200                 5.6276                 3.8611
 Frc consts  --      1.1232                 1.0160                 0.7065
 IR Inten    --     50.1643                82.7926                 0.4873

                     19                     20                     21
                      A                      A                      A
 Frequencies --    577.3017               610.2310               685.4042
 Red. masses --      7.6590                 5.1104                 6.9826
 Frc consts  --      1.5039                 1.1212                 1.9327
 IR Inten    --     52.6235               162.0255                 5.1162

                     22                     23                     24
                      A                      A                      A
 Frequencies --    693.8962               711.4382               742.0955
 Red. masses --      1.5887                 6.1365                 2.6357
 Frc consts  --      0.4507                 1.8300                 0.8552
 IR Inten    --     37.6400                 6.2381                13.0071

                     25                     26                     27
                      A                      A                      A
 Frequencies --    764.8546               768.9506               813.6773
 Red. masses --      1.7645                 1.6978                 5.9154
 Frc consts  --      0.6082                 0.5915                 2.3075
 IR Inten    --      0.5755                91.5944                 5.9468

                     28                     29                     30
                      A                      A                      A
 Frequencies --    834.4109               836.5012               867.3152
 Red. masses --      1.6725                 3.6311                 1.3865
 Frc consts  --      0.6861                 1.4970                 0.6145
 IR Inten    --      0.0001                92.9223                 0.8673

                     31                     32                     33
                      A                      A                      A
 Frequencies --    907.1768               943.7064               954.6952
 Red. masses --      1.4034                 5.6326                 1.3709
 Frc consts  --      0.6805                 2.9555                 0.7362
 IR Inten    --      6.2894                19.7015                 0.6254

                     34                     35                     36
                      A                      A                      A
 Frequencies --    957.8330              1003.9900              1045.0343
 Red. masses --      1.3471                 1.2947                 2.1694
 Frc consts  --      0.7282                 0.7689                 1.3959
 IR Inten    --      1.6992                 0.0082                 3.3344

                     37                     38                     39
                      A                      A                      A
 Frequencies --   1051.0969              1072.2587              1114.1166
 Red. masses --      2.1640                 4.0445                 1.0598
 Frc consts  --      1.4086                 2.7398                 0.7751
 IR Inten    --      9.1037                34.9195                68.4562

                     40                     41                     42
                      A                      A                      A
 Frequencies --   1119.6094              1148.4796              1162.4470
 Red. masses --      1.5264                 1.4818                 1.3476
 Frc consts  --      1.1273                 1.1516                 1.0729
 IR Inten    --    101.1676               103.2425                 0.6620

                     43                     44                     45
                      A                      A                      A
 Frequencies --   1169.3219              1183.0151              1259.0371
 Red. masses --      1.3232                 1.2544                 1.8160
 Frc consts  --      1.0660                 1.0344                 1.6961
 IR Inten    --    330.4605                22.5302                94.2206

                     46                     47                     48
                      A                      A                      A
 Frequencies --   1266.2849              1308.8957              1341.5938
 Red. masses --      2.4518                 2.1003                 5.1068
 Frc consts  --      2.3163                 2.1201                 5.4155
 IR Inten    --     42.3479                39.6097                43.6765

                     49                     50                     51
                      A                      A                      A
 Frequencies --   1361.8158              1391.3227              1406.1428
 Red. masses --      6.3941                 2.7608                 2.1329
 Frc consts  --      6.9866                 3.1488                 2.4847
 IR Inten    --    165.9025                 0.3614                 4.7693

                     52                     53                     54
                      A                      A                      A
 Frequencies --   1438.9212              1483.5697              1497.5955
 Red. masses --      3.4485                 2.9765                 3.2483
 Frc consts  --      4.2068                 3.8599                 4.2923
 IR Inten    --    613.1435                 0.6182                43.4763

                     55                     56                     57
                      A                      A                      A
 Frequencies --   1538.1667              1542.2484              1576.1155
 Red. masses --      4.7149                 5.0253                 4.4277
 Frc consts  --      6.5725                 7.0424                 6.4804
 IR Inten    --     59.6845               160.1840                53.7361

                     58                     59                     60
                      A                      A                      A
 Frequencies --   1624.4504              1636.3900              1663.6506
 Red. masses --      5.6702                 5.8268                 6.7328
 Frc consts  --      8.8158                 9.1930                10.9791
 IR Inten    --    248.2044               285.2154               146.4458

                     61                     62                     63
                      A                      A                      A
 Frequencies --   2310.7457              3195.2718              3211.1381
 Red. masses --      1.1157                 1.0888                 1.0864
 Frc consts  --      3.5100                 6.5496                 6.6001
 IR Inten    --   1222.1230                21.9488                 5.5366

                     64                     65                     66
                      A                      A                      A
 Frequencies --   3213.5937              3221.8671              3224.5494
 Red. masses --      1.0867                 1.0904                 1.0926
 Frc consts  --      6.6124                 6.6688                 6.6932
 IR Inten    --      1.6819                 3.4983                16.2941

                     67                     68                     69
                      A                      A                      A
 Frequencies --   3232.9749              3236.1362              3239.1977
 Red. masses --      1.0955                 1.0989                 1.0994
 Frc consts  --      6.7461                 6.7804                 6.7964
 IR Inten    --      9.2051                23.1127                12.6769

 - Thermochemistry -
 -------------------
 Temperature   298.150 Kelvin.  Pressure   1.00000 Atm.
 Atom     1 has atomic number  6 and mass  12.00000

 Molecular mass:   227.04049 amu.
 Principal axes and moments of inertia in atomic units:
                           1         2         3
     Eigenvalues --  1320.312026362.158537682.47055
           X           -0.70126   0.71291   0.00000
           Y            0.71291   0.70126  -0.00001
           Z            0.00001   0.00001   1.00000
 This molecule is an asymmetric top.
 Rotational symmetry number  1.
 Warning -- assumption of classical behavior for rotation
           may cause significant error
 Rotational temperatures (Kelvin)      0.06560     0.01361     0.01127
 Rotational constants (GHZ):           1.36691     0.28367     0.23492
 Zero-point vibrational energy     484598.2 (Joules/Mol)
                                  115.82175 (Kcal/Mol)
 Warning -- explicit consideration of  20 degrees of freedom as
           vibrations may cause significant error
 Vibrational temperatures:     51.62    71.46   163.68   163.74   258.85
          (Kelvin)            315.67   368.22   387.25   436.17   521.42
                              573.12   628.30   668.58   723.59   726.28
                              772.10   796.45   801.80   830.61   877.99
                              986.14   998.36  1023.60  1067.71  1100.46
                             1106.35  1170.70  1200.53  1203.54  1247.87
                             1305.23  1357.78  1373.59  1378.11  1444.52
                             1503.57  1512.29  1542.74  1602.97  1610.87
                             1652.41  1672.50  1682.39  1702.09  1811.47
                             1821.90  1883.21  1930.25  1959.35  2001.80
                             2023.13  2070.29  2134.53  2154.71  2213.08
                             2218.95  2267.68  2337.22  2354.40  2393.62
                             3324.65  4597.28  4620.11  4623.64  4635.55
                             4639.41  4651.53  4656.08  4660.48

 Zero-point correction=                           0.184574 (Hartree/Particle)
 Thermal correction to Energy=                    0.196959
 Thermal correction to Enthalpy=                  0.197903
 Thermal correction to Gibbs Free Energy=         0.144851
 Sum of electronic and zero-point Energies=          -1028.512302
 Sum of electronic and thermal Energies=             -1028.499917
 Sum of electronic and thermal Enthalpies=           -1028.498973
 Sum of electronic and thermal Free Energies=        -1028.552025

                     E (Thermal)             CV                S
                      KCal/Mol        Cal/Mol-Kelvin    Cal/Mol-Kelvin
 Total                  123.593             49.482            111.656
 Electronic               0.000              0.000              0.000
 Translational            0.889              2.981             42.162
 Rotational               0.889              2.981             32.534
 Vibrational            121.816             43.520             36.960
 Vibration     1          0.594              1.982              5.475
 Vibration     2          0.595              1.978              4.831
 Vibration     3          0.607              1.938              3.204
 Vibration     4          0.607              1.938              3.203
 Vibration     5          0.629              1.867              2.329
 Vibration     6          0.647              1.812              1.964
 Vibration     7          0.666              1.753              1.689
 Vibration     8          0.674              1.730              1.602
 Vibration     9          0.695              1.668              1.399
 Vibration    10          0.736              1.550              1.112
 Vibration    11          0.765              1.474              0.969
 Vibration    12          0.797              1.390              0.837
 Vibration    13          0.822              1.328              0.753
 Vibration    14          0.858              1.244              0.651
 Vibration    15          0.860              1.239              0.646
 Vibration    16          0.892              1.169              0.573
 Vibration    17          0.909              1.132              0.537
 Vibration    18          0.913              1.124              0.529
 Vibration    19          0.934              1.080              0.490
 Vibration    20          0.969              1.010              0.432

 Optimization completed.
    -- Stationary point found.
 Normal termination of Gaussian 16 at Mon Jul 13 16:06:53 2020.
