 Gaussian 16, Revision C.01,
 Gaussian 16:  ES64L-G16RevC.01  3-Jul-2019

 ----------------------------------------------------------------------
 #p opt=addgic freq td wb97xd/cc-pvdz nosymm int=ultrafine scrf=(solven
 t=CarbonTetraChloride)
 ----------------------------------------------------------------------

 ------------------------------------------------
 NM 2D-scan of HBT TD-WB97XD pVDZ in CTC Relaxed.
 ------------------------------------------------
 Symbolic Z-matrix:
 Charge =  0 Multiplicity = 1

 SCF Done:  E(RwB97XD) =  -1028.78077199     A.U. after   15 cycles
 Total Energy, E(TD-HF/TD-DFT) =  -1028.64956323
 SCF Done:  E(RwB97XD) =  -1028.81801955     A.U. after   13 cycles
 Total Energy, E(TD-HF/TD-DFT) =  -1028.68866157
 SCF Done:  E(RwB97XD) =  -1028.81856896     A.U. after   12 cycles
 Total Energy, E(TD-HF/TD-DFT) =  -1028.69023970
 SCF Done:  E(RwB97XD) =  -1028.81949539     A.U. after   12 cycles
 Total Energy, E(TD-HF/TD-DFT) =  -1028.69098901
 SCF Done:  E(RwB97XD) =  -1028.81963711     A.U. after   10 cycles
 Total Energy, E(TD-HF/TD-DFT) =  -1028.69131429
 SCF Done:  E(RwB97XD) =  -1028.81966120     A.U. after    9 cycles
 Total Energy, E(TD-HF/TD-DFT) =  -1028.69131729
 SCF Done:  E(RwB97XD) =  -1028.81969353     A.U. after    8 cycles
 Total Energy, E(TD-HF/TD-DFT) =  -1028.69131761
 SCF Done:  E(RwB97XD) =  -1028.81970266     A.U. after    7 cycles
 Total Energy, E(TD-HF/TD-DFT) =  -1028.69131767
 Optimization completed.
    -- Stationary point found.
 Normal termination of Gaussian 16 at Tue Jul 14 13:41:24 2020.

 ----------------------------------------------------------------------
 #P Geom=AllCheck Guess=TCheck SCRF=Check GenChk RwB97XD TD(FC,Read)/CC
 -pVDZ Freq
 ----------------------------------------------------------------------

 Structure from the checkpoint file:  "config_2_17.chk"
 ------------------------------------------------
 NM 2D-scan of HBT TD-WB97XD pVDZ in CTC Relaxed.
 ------------------------------------------------
 Charge =  0 Multiplicity = 1

                          Input orientation:
 ---------------------------------------------------------------------
 Center     Atomic      Atomic             Coordinates (Angstroms)
 Number     Number       Type             X           Y           Z
 ---------------------------------------------------------------------
      1          6           0        1.537355   -3.279678   -0.000098
      2          6           0        0.976276   -2.006009   -0.000091
      3          6           0        1.769905   -0.806079    0.000037
      4          6           0        3.184643   -0.957516    0.000162
      5          6           0        3.729032   -2.228739    0.000152
      6          6           0        2.922950   -3.389125    0.000022
      7          1           0        0.901832   -4.166058   -0.000194
      8          1           0        3.817423   -0.069370    0.000259
      9          1           0        4.814885   -2.341256    0.000245
     10          1           0        3.390388   -4.374685    0.000019
     11          7           0        1.072636    0.347340    0.000009
     12         16           0       -0.713240   -1.612523   -0.000211
     13          6           0       -1.283517    1.082867   -0.000115
     14          6           0       -2.666880    0.741375   -0.000024
     15          6           0       -0.937280    2.505949   -0.000071
     16          6           0       -3.638935    1.723775    0.000139
     17          1           0       -2.959189   -0.309311   -0.000042
     18          6           0       -1.947768    3.476277    0.000128
     19          6           0       -3.287793    3.093376    0.000235
     20          1           0       -4.691864    1.437856    0.000224
     21          1           0       -1.651312    4.525555    0.000157
     22          1           0       -4.069604    3.853726    0.000375
     23          6           0       -0.271762    0.110154   -0.000141
     24          8           0        0.329930    2.866364   -0.000322
     25          1           0        0.900450    2.031393   -0.000732
 ---------------------------------------------------------------------

 SCF Done:  E(RwB97XD) =  -1028.81970266     A.U. after    1 cycles

 Excitation energies and oscillator strengths:

 Excited state symmetry could not be determined.
 Excited State   1:      Singlet-?Sym    3.4935 eV  354.90 nm  f=0.7096  <S**2>=0.000
      59 -> 60         0.68876
 This state for optimization and/or second-order correction.
 Total Energy, E(TD-HF/TD-DFT) =  -1028.69131765
 Copying the excited state density for this state as the 1-particle RhoCI density.

 Excited state symmetry could not be determined.
 Excited State   2:      Singlet-?Sym    4.3809 eV  283.01 nm  f=0.1207  <S**2>=0.000
      57 -> 60         0.42152
      58 -> 60         0.50829
      59 -> 62        -0.13964

 Excited state symmetry could not be determined.
 Excited State   3:      Singlet-?Sym    4.5726 eV  271.14 nm  f=0.1106  <S**2>=0.000
      57 -> 60         0.47613
      57 -> 62         0.10383
      58 -> 60        -0.41073
      59 -> 61         0.20105

 Alpha  occ. eigenvalues --  -89.08646 -19.28853 -14.47305 -10.39585 -10.38253
 Alpha  occ. eigenvalues --  -10.35127 -10.34510 -10.32490 -10.32371 -10.32156
 Alpha  occ. eigenvalues --  -10.31973 -10.31454 -10.31313 -10.31225 -10.30641
 Alpha  occ. eigenvalues --  -10.30625  -8.10684  -6.05519  -6.05183  -6.04749
 Alpha  occ. eigenvalues --   -1.17351  -1.08049  -0.96840  -0.95774  -0.92014
 Alpha  occ. eigenvalues --   -0.88789  -0.85118  -0.84583  -0.82207  -0.75985
 Alpha  occ. eigenvalues --   -0.71347  -0.70203  -0.69172  -0.68163  -0.63641
 Alpha  occ. eigenvalues --   -0.60364  -0.59027  -0.58660  -0.56101  -0.54497
 Alpha  occ. eigenvalues --   -0.53748  -0.53431  -0.52903  -0.50548  -0.50537
 Alpha  occ. eigenvalues --   -0.49252  -0.47628  -0.45955  -0.45622  -0.44815
 Alpha  occ. eigenvalues --   -0.44068  -0.43021  -0.42064  -0.39979  -0.37597
 Alpha  occ. eigenvalues --   -0.36444  -0.31919  -0.31675  -0.28123
 Alpha virt. eigenvalues --   -0.01857   0.05219   0.06870   0.07067   0.07829
 Alpha virt. eigenvalues --    0.11172   0.14306   0.15232   0.16874   0.18071
 Alpha virt. eigenvalues --    0.18553   0.21043   0.21511   0.22337   0.22752

 Mulliken charges:
               1
     1  C    0.019667
     2  C   -0.215374
     3  C    0.208387
     4  C   -0.020071
     5  C    0.004824
     6  C   -0.005517
     7  H    0.016421
     8  H    0.016508
     9  H    0.018216
    10  H    0.019751
    11  N   -0.363952
    12  S    0.153084
    13  C   -0.069712
    14  C   -0.027215
    15  C    0.081744
    16  C   -0.007793
    17  H    0.023854
    18  C    0.007557
    19  C    0.022202
    20  H    0.011892
    21  H    0.020519
    22  H    0.023748
    23  C    0.083979
    24  O   -0.198729
    25  H    0.176010
 Sum of Mulliken charges =  -0.00000

 Dipole moment (field-independent basis, Debye):
    X=             -0.7831    Y=             -1.9562    Z=             -0.0004  Tot=              2.1071
 Quadrupole moment (field-independent basis, Debye-Ang):
   XX=            -83.1551   YY=            -89.3980   ZZ=           -104.3365
   XY=             -7.0496   XZ=             -0.0010   YZ=              0.0004

  Exact polarizability:     398.902    -193.113     387.877      -0.001       0.006      63.331
 Approx polarizability:     278.112     -36.571     260.540       0.001       0.006      82.356

                      1                      2                      3
                      A                      A                      A
 Frequencies --     45.7675                63.0642               109.5479
 Red. masses --      6.1736                 5.1069                 5.2008
 Frc consts  --      0.0076                 0.0120                 0.0368
 IR Inten    --      1.3852                 0.0021                 0.1927

                      4                      5                      6
                      A                      A                      A
 Frequencies --    120.2197               180.2687               224.7346
 Red. masses --      5.7154                 6.6542                 5.3379
 Frc consts  --      0.0487                 0.1274                 0.1588
 IR Inten    --      1.4791                 1.4696                 0.0056

                      7                      8                      9
                      A                      A                      A
 Frequencies --    273.0606               273.0708               297.2277
 Red. masses --      6.7555                 5.4341                 6.6394
 Frc consts  --      0.2968                 0.2387                 0.3456
 IR Inten    --     14.8102                 5.6685                15.1733

                     10                     11                     12
                      A                      A                      A
 Frequencies --    390.4162               409.4897               441.6842
 Red. masses --      4.5139                 9.2216                 3.2548
 Frc consts  --      0.4054                 0.9110                 0.3741
 IR Inten    --      0.0561                12.7548                 3.8917

                     13                     14                     15
                      A                      A                      A
 Frequencies --    489.8449               500.1487               508.9088
 Red. masses --      4.4669                 7.8153                 3.1555
 Frc consts  --      0.6315                 1.1518                 0.4815
 IR Inten    --      0.2011                 4.5739                 0.0683

                     16                     17                     18
                      A                      A                      A
 Frequencies --    516.9368               525.8578               553.2461
 Red. masses --      5.0319                 8.4243                 3.9681
 Frc consts  --      0.7922                 1.3725                 0.7156
 IR Inten    --     21.7947                36.3819                 0.1574

                     19                     20                     21
                      A                      A                      A
 Frequencies --    576.8381               645.0267               699.8012
 Red. masses --      7.7101                 6.6092                10.3925
 Frc consts  --      1.5115                 1.6201                 2.9986
 IR Inten    --     40.7801                13.2463                57.6690

                     22                     23                     24
                      A                      A                      A
 Frequencies --    718.9232               721.6144               736.5194
 Red. masses --      6.6138                 1.5339                 1.8079
 Frc consts  --      2.0140                 0.4706                 0.5778
 IR Inten    --     12.6200                64.8602                46.9951

                     25                     26                     27
                      A                      A                      A
 Frequencies --    740.4693               770.7787               812.8699
 Red. masses --      2.0115                 2.3151                 1.7346
 Frc consts  --      0.6498                 0.8104                 0.6753
 IR Inten    --      0.0001                45.9867                 4.9827

                     28                     29                     30
                      A                      A                      A
 Frequencies --    822.2075               860.1621               883.9078
 Red. masses --      6.5210                 1.4335                 6.4220
 Frc consts  --      2.5973                 0.6249                 2.9562
 IR Inten    --     19.7501                 0.9123                67.7479

                     31                     32                     33
                      A                      A                      A
 Frequencies --    917.4570               947.2249               953.3416
 Red. masses --      1.3309                 1.0766                 1.3444
 Frc consts  --      0.6601                 0.5691                 0.7199
 IR Inten    --     13.6191                58.9638                 1.8270

                     34                     35                     36
                      A                      A                      A
 Frequencies --    964.1891               967.2000               998.4844
 Red. masses --      7.3935                 1.3489                 1.3058
 Frc consts  --      4.0497                 0.7435                 0.7670
 IR Inten    --     12.5620                 0.4011                 0.0152

                     37                     38                     39
                      A                      A                      A
 Frequencies --   1041.0537              1048.8460              1087.9503
 Red. masses --      2.1018                 2.1456                 4.2861
 Frc consts  --      1.3421                 1.3907                 2.9890
 IR Inten    --      0.5271                 5.5567                48.5651

                     40                     41                     42
                      A                      A                      A
 Frequencies --   1140.4857              1152.0948              1176.6907
 Red. masses --      1.4696                 1.3557                 1.2102
 Frc consts  --      1.1263                 1.0602                 0.9873
 IR Inten    --     53.0218                14.2585                33.9737

                     43                     44                     45
                      A                      A                      A
 Frequencies --   1182.9378              1223.0003              1264.6911
 Red. masses --      1.4049                 4.2186                 1.6775
 Frc consts  --      1.1583                 3.7177                 1.5808
 IR Inten    --      8.3527                47.1395               162.8736

                     46                     47                     48
                      A                      A                      A
 Frequencies --   1279.5162              1322.6999              1358.5234
 Red. masses --      1.6426                 3.7663                 2.6778
 Frc consts  --      1.5844                 3.8823                 2.9118
 IR Inten    --     12.6601               278.9488                33.3830

                     49                     50                     51
                      A                      A                      A
 Frequencies --   1370.7850              1404.1276              1454.9993
 Red. masses --      5.5164                 2.3081                 2.1103
 Frc consts  --      6.1072                 2.6811                 2.6322
 IR Inten    --     93.1237                82.5192                81.6926

                     52                     53                     54
                      A                      A                      A
 Frequencies --   1470.5645              1496.2107              1526.9078
 Red. masses --      3.6611                 3.5649                 2.3085
 Frc consts  --      4.6647                 4.7020                 3.1711
 IR Inten    --     80.5167                27.8102               190.8790

                     55                     56                     57
                      A                      A                      A
 Frequencies --   1546.4914              1581.3115              1598.3084
 Red. masses --      4.8481                 6.4897                 5.5260
 Frc consts  --      6.8316                 9.5612                 8.3172
 IR Inten    --     43.5620                 9.2266               414.3892

                     58                     59                     60
                      A                      A                      A
 Frequencies --   1610.8782              1628.0522              1646.2173
 Red. masses --      2.2168                 3.8663                 4.7462
 Frc consts  --      3.3892                 6.0378                 7.5783
 IR Inten    --    515.7230               226.5022               254.9252

                     61                     62                     63
                      A                      A                      A
 Frequencies --   2904.7018              3205.1206              3213.0292
 Red. masses --      1.0788                 1.0862                 1.0860
 Frc consts  --      5.3628                 6.5746                 6.6055
 IR Inten    --     39.1057                 9.4858                 5.8506

                     64                     65                     66
                      A                      A                      A
 Frequencies --   3215.9358              3224.0076              3227.5649
 Red. masses --      1.0897                 1.0884                 1.0953
 Frc consts  --      6.6401                 6.6652                 6.7226
 IR Inten    --      2.4214                12.1825                 9.9481

                     67                     68                     69
                      A                      A                      A
 Frequencies --   3232.9670              3233.7020              3240.8372
 Red. masses --      1.0948                 1.0991                 1.0985
 Frc consts  --      6.7418                 6.7717                 6.7975
 IR Inten    --      7.3252                40.5619                26.7220

 - Thermochemistry -
 -------------------
 Temperature   298.150 Kelvin.  Pressure   1.00000 Atm.
 Atom     1 has atomic number  6 and mass  12.00000

 Molecular mass:   227.04049 amu.
 Principal axes and moments of inertia in atomic units:
                           1         2         3
     Eigenvalues --  1306.156566338.687257644.84377
           X           -0.69935   0.71478  -0.00001
           Y            0.71478   0.69935  -0.00001
           Z            0.00000   0.00002   1.00000
 This molecule is an asymmetric top.
 Rotational symmetry number  1.
 Warning -- assumption of classical behavior for rotation
           may cause significant error
 Rotational temperatures (Kelvin)      0.06631     0.01366     0.01133
 Rotational constants (GHZ):           1.38172     0.28472     0.23607
 Zero-point vibrational energy     490299.8 (Joules/Mol)
                                  117.18446 (Kcal/Mol)
 Warning -- explicit consideration of  19 degrees of freedom as
           vibrations may cause significant error
 Vibrational temperatures:     65.85    90.74   157.62   172.97   259.37
          (Kelvin)            323.34   392.87   392.89   427.64   561.72
                              589.16   635.48   704.78   719.60   732.21
                              743.76   756.59   796.00   829.94   928.05
                             1006.86  1034.37  1038.24  1059.69  1065.37
                             1108.98  1169.54  1182.97  1237.58  1271.75
                             1320.02  1362.85  1371.65  1387.25  1391.59
                             1436.60  1497.84  1509.06  1565.32  1640.90
                             1657.61  1693.00  1701.98  1759.62  1819.61
                             1840.94  1903.07  1954.61  1972.25  2020.23
                             2093.42  2115.81  2152.71  2196.88  2225.06
                             2275.15  2299.61  2317.69  2342.40  2368.54
                             4179.22  4611.45  4622.83  4627.01  4638.63
                             4643.75  4651.52  4652.58  4662.84

 Zero-point correction=                           0.186745 (Hartree/Particle)
 Thermal correction to Energy=                    0.198985
 Thermal correction to Enthalpy=                  0.199929
 Thermal correction to Gibbs Free Energy=         0.147534
 Sum of electronic and zero-point Energies=          -1028.504572
 Sum of electronic and thermal Energies=             -1028.492333
 Sum of electronic and thermal Enthalpies=           -1028.491389
 Sum of electronic and thermal Free Energies=        -1028.543783

                     E (Thermal)             CV                S
                      KCal/Mol        Cal/Mol-Kelvin    Cal/Mol-Kelvin
 Total                  124.865             49.219            110.274
 Electronic               0.000              0.000              0.000
 Translational            0.889              2.981             42.162
 Rotational               0.889              2.981             32.515
 Vibrational            123.087             43.257             35.597
 Vibration     1          0.595              1.979              4.992
 Vibration     2          0.597              1.972              4.359
 Vibration     3          0.606              1.942              3.277
 Vibration     4          0.609              1.932              3.097
 Vibration     5          0.629              1.866              2.326
 Vibration     6          0.649              1.803              1.921
 Vibration     7          0.676              1.723              1.577
 Vibration     8          0.676              1.723              1.577
 Vibration     9          0.691              1.679              1.432
 Vibration    10          0.758              1.491              0.999
 Vibration    11          0.774              1.450              0.928
 Vibration    12          0.801              1.379              0.821
 Vibration    13          0.846              1.273              0.684
 Vibration    14          0.856              1.250              0.658
 Vibration    15          0.864              1.230              0.636
 Vibration    16          0.872              1.212              0.617
 Vibration    17          0.881              1.193              0.597
 Vibration    18          0.909              1.133              0.537
 Vibration    19          0.933              1.081              0.491

 Optimization completed.
    -- Stationary point found.
 Normal termination of Gaussian 16 at Tue Jul 14 13:58:48 2020.
