 Gaussian 16, Revision C.01,
 Gaussian 16:  ES64L-G16RevC.01  3-Jul-2019

 ----------------------------------------------------------------------
 #p opt=addgic freq td wb97xd/cc-pvdz nosymm int=ultrafine scrf=(solven
 t=CarbonTetraChloride)
 ----------------------------------------------------------------------

 ------------------------------------------------
 NM 2D-scan of HBT TD-WB97XD pVDZ in CTC Relaxed.
 ------------------------------------------------
 Symbolic Z-matrix:
 Charge =  0 Multiplicity = 1

 SCF Done:  E(RwB97XD) =  -1028.80937843     A.U. after   15 cycles
 Total Energy, E(TD-HF/TD-DFT) =  -1028.68561367
 SCF Done:  E(RwB97XD) =  -1028.81051938     A.U. after   11 cycles
 Total Energy, E(TD-HF/TD-DFT) =  -1028.68601559
 SCF Done:  E(RwB97XD) =  -1028.81096227     A.U. after   11 cycles
 Total Energy, E(TD-HF/TD-DFT) =  -1028.68591097
 SCF Done:  E(RwB97XD) =  -1028.81069650     A.U. after    9 cycles
 Total Energy, E(TD-HF/TD-DFT) =  -1028.68609731
 Optimization completed.
    -- Stationary point found.
 Normal termination of Gaussian 16 at Tue Jul 14 13:21:45 2020.

 ----------------------------------------------------------------------
 #P Geom=AllCheck Guess=TCheck SCRF=Check GenChk RwB97XD TD(FC,Read)/CC
 -pVDZ Freq
 ----------------------------------------------------------------------

 Structure from the checkpoint file:  "config_5_17.chk"
 ------------------------------------------------
 NM 2D-scan of HBT TD-WB97XD pVDZ in CTC Relaxed.
 ------------------------------------------------
 Charge =  0 Multiplicity = 1

                          Input orientation:
 ---------------------------------------------------------------------
 Center     Atomic      Atomic             Coordinates (Angstroms)
 Number     Number       Type             X           Y           Z
 ---------------------------------------------------------------------
      1          6           0        1.533667   -3.246278   -0.000036
      2          6           0        1.002015   -1.962742   -0.000032
      3          6           0        1.794468   -0.774386   -0.000021
      4          6           0        3.200877   -0.947170   -0.000020
      5          6           0        3.727709   -2.235474   -0.000024
      6          6           0        2.915272   -3.384156   -0.000030
      7          1           0        0.874288   -4.115293   -0.000042
      8          1           0        3.858000   -0.076576   -0.000012
      9          1           0        4.812718   -2.357175   -0.000020
     10          1           0        3.367711   -4.376551   -0.000031
     11          7           0        1.052369    0.374181   -0.000012
     12         16           0       -0.692418   -1.588081   -0.000037
     13          6           0       -1.309004    1.070044    0.000030
     14          6           0       -2.673307    0.726377    0.000052
     15          6           0       -0.918697    2.480220    0.000036
     16          6           0       -3.645269    1.724384    0.000043
     17          1           0       -2.972269   -0.322531    0.000067
     18          6           0       -1.934176    3.464868    0.000018
     19          6           0       -3.281400    3.086835    0.000017
     20          1           0       -4.700267    1.445563    0.000051
     21          1           0       -1.638535    4.514710    0.000012
     22          1           0       -4.058437    3.852016    0.000004
     23          6           0       -0.284718    0.105687   -0.000006
     24          8           0        0.352869    2.740653    0.000057
     25          1           0        0.931355    1.751241    0.000050
 ---------------------------------------------------------------------

 SCF Done:  E(RwB97XD) =  -1028.81069650     A.U. after    1 cycles

 Excitation energies and oscillator strengths:

 Excited state symmetry could not be determined.
 Excited State   1:      Singlet-?Sym    3.3905 eV  365.68 nm  f=0.5553  <S**2>=0.000
      59 -> 60         0.69157
 This state for optimization and/or second-order correction.
 Total Energy, E(TD-HF/TD-DFT) =  -1028.68609729
 Copying the excited state density for this state as the 1-particle RhoCI density.

 Excited state symmetry could not be determined.
 Excited State   2:      Singlet-?Sym    4.3715 eV  283.62 nm  f=0.2452  <S**2>=0.000
      57 -> 60         0.15950
      58 -> 60         0.65301
      59 -> 63        -0.10145

 Excited state symmetry could not be determined.
 Excited State   3:      Singlet-?Sym    4.7130 eV  263.07 nm  f=0.0907  <S**2>=0.000
      57 -> 60         0.59418
      57 -> 62        -0.15173
      58 -> 60        -0.16562
      58 -> 61        -0.15720
      59 -> 61        -0.20565

 Alpha  occ. eigenvalues --  -89.09040 -19.26323 -14.48545 -10.40019 -10.37576
 Alpha  occ. eigenvalues --  -10.36051 -10.34875 -10.32295 -10.32107 -10.32061
 Alpha  occ. eigenvalues --  -10.31885 -10.31684 -10.31610 -10.31605 -10.30214
 Alpha  occ. eigenvalues --  -10.30165  -8.11162  -6.05996  -6.05650  -6.05219
 Alpha  occ. eigenvalues --   -1.15041  -1.08895  -0.97031  -0.95918  -0.92573
 Alpha  occ. eigenvalues --   -0.88859  -0.85513  -0.84044  -0.82388  -0.75859
 Alpha  occ. eigenvalues --   -0.71404  -0.70759  -0.68907  -0.67757  -0.63588
 Alpha  occ. eigenvalues --   -0.60761  -0.59153  -0.58384  -0.55712  -0.54378
 Alpha  occ. eigenvalues --   -0.54359  -0.53514  -0.53006  -0.50728  -0.49972
 Alpha  occ. eigenvalues --   -0.49573  -0.46777  -0.46218  -0.45738  -0.44905
 Alpha  occ. eigenvalues --   -0.44323  -0.42667  -0.42578  -0.40423  -0.36511
 Alpha  occ. eigenvalues --   -0.36297  -0.32330  -0.31342  -0.27945
 Alpha virt. eigenvalues --   -0.01735   0.04785   0.06597   0.07626   0.07657
 Alpha virt. eigenvalues --    0.10832   0.14666   0.15095   0.17087   0.17926
 Alpha virt. eigenvalues --    0.18696   0.21043   0.21512   0.22302   0.22466

 Mulliken charges:
               1
     1  C    0.022834
     2  C   -0.221971
     3  C    0.242958
     4  C   -0.022178
     5  C    0.004529
     6  C   -0.000440
     7  H    0.019023
     8  H    0.022558
     9  H    0.021458
    10  H    0.021820
    11  N   -0.353575
    12  S    0.172638
    13  C   -0.088546
    14  C   -0.030471
    15  C    0.119576
    16  C   -0.017944
    17  H    0.021183
    18  C   -0.012469
    19  C    0.025975
    20  H    0.008600
    21  H    0.015621
    22  H    0.021861
    23  C    0.084111
    24  O   -0.300857
    25  H    0.223705
 Sum of Mulliken charges =  -0.00000

 Dipole moment (field-independent basis, Debye):
    X=             -0.1561    Y=             -3.1697    Z=             -0.0000  Tot=              3.1736
 Quadrupole moment (field-independent basis, Debye-Ang):
   XX=            -83.0778   YY=            -90.9884   ZZ=           -104.2154
   XY=             -7.0727   XZ=             -0.0000   YZ=             -0.0001

  Exact polarizability:     372.294    -159.603     342.047      -0.002       0.003      63.231
 Approx polarizability:     274.181     -34.602     258.509      -0.000       0.001      82.301

 ******    1 imaginary frequencies (negative Signs) ******

                      1                      2                      3
                      A                      A                      A
 Frequencies --   -884.4187                45.5523                50.7242
 Red. masses --      1.1761                 4.9921                 7.0084
 Frc consts  --      0.5420                 0.0061                 0.0106
 IR Inten    --    512.4943                 0.3079                 1.1983

                      4                      5                      6
                      A                      A                      A
 Frequencies --    113.6125               158.9695               176.2473
 Red. masses --      5.5118                 5.6894                 6.2189
 Frc consts  --      0.0419                 0.0847                 0.1138
 IR Inten    --      0.0006                 5.4476                 1.0945

                      7                      8                      9
                      A                      A                      A
 Frequencies --    222.3244               273.9989               283.1162
 Red. masses --      5.3212                 4.7398                 7.5572
 Frc consts  --      0.1550                 0.2097                 0.3569
 IR Inten    --      0.0248                 0.0261                22.1630

                     10                     11                     12
                      A                      A                      A
 Frequencies --    375.0340               392.5372               424.3084
 Red. masses --      4.7535                 5.7235                11.4344
 Frc consts  --      0.3939                 0.5196                 1.2129
 IR Inten    --      0.1116                 2.3886                 5.8363

                     13                     14                     15
                      A                      A                      A
 Frequencies --    440.8601               475.9669               501.5833
 Red. masses --      3.2043                 4.7627                 3.1672
 Frc consts  --      0.3669                 0.6357                 0.4695
 IR Inten    --      4.0405                 0.0443                 0.2234

                     16                     17                     18
                      A                      A                      A
 Frequencies --    508.1926               541.3302               559.9559
 Red. masses --      8.7650                 8.2158                 3.8843
 Frc consts  --      1.3337                 1.4185                 0.7176
 IR Inten    --      1.1618                22.7834                 0.1803

                     19                     20                     21
                      A                      A                      A
 Frequencies --    575.5049               627.0945               703.1292
 Red. masses --      7.6674                 6.8842                 6.7224
 Frc consts  --      1.4962                 1.5950                 1.9581
 IR Inten    --      0.0557                 3.9175                76.7843

                     22                     23                     24
                      A                      A                      A
 Frequencies --    705.5027               741.2395               742.6389
 Red. masses --      1.5920                 7.7582                 1.9537
 Frc consts  --      0.4669                 2.5115                 0.6348
 IR Inten    --     50.3482                 3.5442                33.6218

                     25                     26                     27
                      A                      A                      A
 Frequencies --    750.8713               757.1999               767.6021
 Red. masses --      1.7956                 6.7604                 2.0192
 Frc consts  --      0.5965                 2.2837                 0.7010
 IR Inten    --     17.3610               129.5530                54.4635

                     28                     29                     30
                      A                      A                      A
 Frequencies --    806.1411               836.1659               863.9071
 Red. masses --      1.8578                 6.3857                 1.4046
 Frc consts  --      0.7113                 2.6305                 0.6176
 IR Inten    --      1.0476                 6.6172                 0.9855

                     31                     32                     33
                      A                      A                      A
 Frequencies --    907.1367               910.7830               953.7669
 Red. masses --      1.3613                 6.6631                 1.3486
 Frc consts  --      0.6600                 3.2566                 0.7228
 IR Inten    --      4.5247                21.0082                 2.0302

                     34                     35                     36
                      A                      A                      A
 Frequencies --    959.2674               997.3582               999.4550
 Red. masses --      1.3795                 7.6523                 1.3004
 Frc consts  --      0.7479                 4.4848                 0.7653
 IR Inten    --      0.1184                 1.1799                 0.0011

                     37                     38                     39
                      A                      A                      A
 Frequencies --   1044.7102              1048.5710              1096.7520
 Red. masses --      2.0754                 2.0308                 3.7648
 Frc consts  --      1.3346                 1.3156                 2.6681
 IR Inten    --      5.3418                 1.8221                68.8459

                     40                     41                     42
                      A                      A                      A
 Frequencies --   1139.3820              1156.4575              1177.8411
 Red. masses --      1.4578                 1.4169                 1.1627
 Frc consts  --      1.1150                 1.1165                 0.9504
 IR Inten    --     29.6475                30.7575                 6.9038

                     43                     44                     45
                      A                      A                      A
 Frequencies --   1179.7917              1206.2129              1258.2857
 Red. masses --      1.2494                 1.0504                 2.0613
 Frc consts  --      1.0247                 0.9004                 1.9229
 IR Inten    --     71.2420                66.6452               126.6062

                     46                     47                     48
                      A                      A                      A
 Frequencies --   1264.5002              1293.5734              1349.5951
 Red. masses --      2.5139                 2.1786                 3.6381
 Frc consts  --      2.3683                 2.1478                 3.9042
 IR Inten    --     78.2408                 9.9210                 9.3093

                     49                     50                     51
                      A                      A                      A
 Frequencies --   1372.7140              1383.2063              1410.0866
 Red. masses --      4.8853                 2.4451                 3.2122
 Frc consts  --      5.4237                 2.7562                 3.7631
 IR Inten    --    412.3227                18.8479               174.1461

                     52                     53                     54
                      A                      A                      A
 Frequencies --   1449.5326              1473.9355              1502.8272
 Red. masses --      2.5844                 3.0705                 3.3637
 Frc consts  --      3.1994                 3.9302                 4.4759
 IR Inten    --    147.7311                64.7089                15.6838

                     55                     56                     57
                      A                      A                      A
 Frequencies --   1535.3658              1552.5604              1578.8873
 Red. masses --      4.5533                 4.5089                 6.4413
 Frc consts  --      6.3241                 6.4035                 9.4607
 IR Inten    --    234.7129                73.8942               253.5172

                     58                     59                     60
                      A                      A                      A
 Frequencies --   1614.3034              1639.8623              1650.3907
 Red. masses --      6.0054                 5.7831                 6.1430
 Frc consts  --      9.2207                 9.1628                 9.8584
 IR Inten    --    227.4405              1309.6889                36.1390

                     61                     62                     63
                      A                      A                      A
 Frequencies --   1807.8413              3203.6698              3212.0302
 Red. masses --      1.0916                 1.0862                 1.0861
 Frc consts  --      2.1020                 6.5684                 6.6019
 IR Inten    --     93.1738                 7.7610                 8.8642

                     64                     65                     66
                      A                      A                      A
 Frequencies --   3213.8112              3221.9713              3224.4686
 Red. masses --      1.0901                 1.0885                 1.0950
 Frc consts  --      6.6335                 6.6574                 6.7077
 IR Inten    --      2.0050                17.5626                10.5746

                     67                     68                     69
                      A                      A                      A
 Frequencies --   3229.8887              3232.6616              3239.5596
 Red. masses --      1.0946                 1.0994                 1.0982
 Frc consts  --      6.7277                 6.7689                 6.7904
 IR Inten    --      9.6374                29.9301                19.5264

 - Thermochemistry -
 -------------------
 Temperature   298.150 Kelvin.  Pressure   1.00000 Atm.
 Atom     1 has atomic number  6 and mass  12.00000

 Molecular mass:   227.04049 amu.
 Principal axes and moments of inertia in atomic units:
                           1         2         3
     Eigenvalues --  1276.504086286.908517563.41259
           X           -0.70575   0.70846   0.00000
           Y            0.70846   0.70575  -0.00001
           Z            0.00001   0.00001   1.00000
 This molecule is an asymmetric top.
 Rotational symmetry number  1.
 Warning -- assumption of classical behavior for rotation
           may cause significant error
 Rotational temperatures (Kelvin)      0.06785     0.01378     0.01145
 Rotational constants (GHZ):           1.41382     0.28706     0.23861
    1 imaginary frequencies ignored.
 Zero-point vibrational energy     479190.1 (Joules/Mol)
                                  114.52918 (Kcal/Mol)
 Warning -- explicit consideration of  18 degrees of freedom as
           vibrations may cause significant error
 Vibrational temperatures:     65.54    72.98   163.46   228.72   253.58
          (Kelvin)            319.88   394.22   407.34   539.59   564.77
                              610.49   634.30   684.81   721.67   731.18
                              778.85   805.65   828.02   902.25  1011.65
                             1015.06  1066.48  1068.49  1080.34  1089.44
                             1104.41  1159.86  1203.06  1242.97  1305.17
                             1310.41  1372.26  1380.17  1434.98  1437.99
                             1503.11  1508.66  1577.98  1639.32  1663.88
                             1694.65  1697.46  1735.47  1810.39  1819.33
                             1861.16  1941.77  1975.03  1990.13  2028.80
                             2085.55  2120.66  2162.23  2209.05  2233.79
                             2271.67  2322.62  2359.40  2374.54  2601.08
                             4609.37  4621.40  4623.96  4635.70  4639.29
                             4647.09  4651.08  4661.00

 Zero-point correction=                           0.182514 (Hartree/Particle)
 Thermal correction to Energy=                    0.194424
 Thermal correction to Enthalpy=                  0.195368
 Thermal correction to Gibbs Free Energy=         0.143518
 Sum of electronic and zero-point Energies=          -1028.503583
 Sum of electronic and thermal Energies=             -1028.491674
 Sum of electronic and thermal Enthalpies=           -1028.490729
 Sum of electronic and thermal Free Energies=        -1028.542579

                     E (Thermal)             CV                S
                      KCal/Mol        Cal/Mol-Kelvin    Cal/Mol-Kelvin
 Total                  122.003             48.062            109.128
 Electronic               0.000              0.000              0.000
 Translational            0.889              2.981             42.162
 Rotational               0.889              2.981             32.473
 Vibrational            120.225             42.101             34.492
 Vibration     1          0.595              1.979              5.002
 Vibration     2          0.595              1.977              4.789
 Vibration     3          0.607              1.938              3.206
 Vibration     4          0.621              1.893              2.562
 Vibration     5          0.628              1.872              2.368
 Vibration     6          0.648              1.807              1.940
 Vibration     7          0.676              1.721              1.571
 Vibration     8          0.682              1.705              1.515
 Vibration     9          0.746              1.523              1.059
 Vibration    10          0.760              1.486              0.990
 Vibration    11          0.786              1.417              0.877
 Vibration    12          0.801              1.381              0.824
 Vibration    13          0.833              1.303              0.721
 Vibration    14          0.857              1.246              0.654
 Vibration    15          0.863              1.232              0.638
 Vibration    16          0.896              1.159              0.562
 Vibration    17          0.916              1.118              0.524
 Vibration    18          0.932              1.084              0.494

                           ! Non-Optimized Parameters !
 Normal termination of Gaussian 16 at Tue Jul 14 13:39:24 2020.
