 Gaussian 16, Revision C.01,
 Gaussian 16:  ES64L-G16RevC.01  3-Jul-2019

 ----------------------------------------------------------------------
 #p opt=addgic freq td wb97xd/cc-pvdz nosymm int=ultrafine scrf=(solven
 t=CarbonTetraChloride)
 ----------------------------------------------------------------------

 ------------------------------------------------
 NM 2D-scan of HBT TD-WB97XD pVDZ in CTC Relaxed.
 ------------------------------------------------
 Symbolic Z-matrix:
 Charge =  0 Multiplicity = 1

 SCF Done:  E(RwB97XD) =  -1028.79303660     A.U. after   16 cycles
 Total Energy, E(TD-HF/TD-DFT) =  -1028.68389156
 SCF Done:  E(RwB97XD) =  -1028.80109346     A.U. after   14 cycles
 Total Energy, E(TD-HF/TD-DFT) =  -1028.69847205
 SCF Done:  E(RwB97XD) =  -1028.80577670     A.U. after   13 cycles
 Total Energy, E(TD-HF/TD-DFT) =  -1028.70072546
 SCF Done:  E(RwB97XD) =  -1028.80622106     A.U. after   11 cycles
 Total Energy, E(TD-HF/TD-DFT) =  -1028.70084939
 SCF Done:  E(RwB97XD) =  -1028.80621134     A.U. after    9 cycles
 Total Energy, E(TD-HF/TD-DFT) =  -1028.70085288
 Optimization completed.
    -- Stationary point found.
 Normal termination of Gaussian 16 at Mon Jul 13 16:21:19 2020.

 ----------------------------------------------------------------------
 #P Geom=AllCheck Guess=TCheck SCRF=Check GenChk RwB97XD TD(FC,Read)/CC
 -pVDZ Freq
 ----------------------------------------------------------------------

 Structure from the checkpoint file:  "config_9_13.chk"
 ------------------------------------------------
 NM 2D-scan of HBT TD-WB97XD pVDZ in CTC Relaxed.
 ------------------------------------------------
 Charge =  0 Multiplicity = 1

                          Input orientation:
 ---------------------------------------------------------------------
 Center     Atomic      Atomic             Coordinates (Angstroms)
 Number     Number       Type             X           Y           Z
 ---------------------------------------------------------------------
      1          6           0        1.607829   -3.287952   -0.000022
      2          6           0        1.001228   -2.035522   -0.000015
      3          6           0        1.766693   -0.847361   -0.000015
      4          6           0        3.167852   -0.915816   -0.000023
      5          6           0        3.764994   -2.170435   -0.000030
      6          6           0        3.000685   -3.346580   -0.000030
      7          1           0        1.007832   -4.198578   -0.000021
      8          1           0        3.762472   -0.001933   -0.000022
      9          1           0        4.853918   -2.239452   -0.000036
     10          1           0        3.498257   -4.316978   -0.000035
     11          7           0        0.985602    0.273282   -0.000009
     12         16           0       -0.717431   -1.664660   -0.000002
     13          6           0       -1.345536    1.087810    0.000018
     14          6           0       -2.708598    0.803905    0.000013
     15          6           0       -0.906557    2.503656    0.000039
     16          6           0       -3.676044    1.836185    0.000027
     17          1           0       -3.050972   -0.233865   -0.000003
     18          6           0       -1.925013    3.501909    0.000043
     19          6           0       -3.285298    3.175058    0.000040
     20          1           0       -4.733873    1.569693    0.000024
     21          1           0       -1.587592    4.539810    0.000054
     22          1           0       -4.037631    3.964948    0.000046
     23          6           0       -0.358212    0.052668    0.000001
     24          8           0        0.324896    2.800564    0.000035
     25          1           0        1.233950    1.287055    0.000018
 ---------------------------------------------------------------------

 SCF Done:  E(RwB97XD) =  -1028.80621134     A.U. after    1 cycles

 Excitation energies and oscillator strengths:

 Excited state symmetry could not be determined.
 Excited State   1:      Singlet-?Sym    2.8670 eV  432.46 nm  f=0.4414  <S**2>=0.000
      59 -> 60         0.69683
 This state for optimization and/or second-order correction.
 Total Energy, E(TD-HF/TD-DFT) =  -1028.70085287
 Copying the excited state density for this state as the 1-particle RhoCI density.

 Excited state symmetry could not be determined.
 Excited State   2:      Singlet-?Sym    3.6364 eV  340.96 nm  f=0.0000  <S**2>=0.000
      57 -> 60         0.68352
      57 -> 62         0.11724
      57 -> 64         0.11442

 Excited state symmetry could not be determined.
 Excited State   3:      Singlet-?Sym    4.3031 eV  288.12 nm  f=0.3950  <S**2>=0.000
      58 -> 60         0.68202

 Alpha  occ. eigenvalues --  -89.10434 -19.21046 -14.52613 -10.42021 -10.37611
 Alpha  occ. eigenvalues --  -10.36263 -10.35807 -10.33404 -10.33030 -10.32601
 Alpha  occ. eigenvalues --  -10.32412 -10.31512 -10.31011 -10.30801 -10.29214
 Alpha  occ. eigenvalues --  -10.28376  -8.12438  -6.07310  -6.06941  -6.06458
 Alpha  occ. eigenvalues --   -1.12850  -1.09086  -0.98394  -0.95436  -0.93267
 Alpha  occ. eigenvalues --   -0.89117  -0.86707  -0.83827  -0.81216  -0.75939
 Alpha  occ. eigenvalues --   -0.73156  -0.72129  -0.68811  -0.67645  -0.65090
 Alpha  occ. eigenvalues --   -0.61018  -0.59703  -0.56668  -0.55926  -0.55634
 Alpha  occ. eigenvalues --   -0.55010  -0.53815  -0.53077  -0.50548  -0.48940
 Alpha  occ. eigenvalues --   -0.48742  -0.48447  -0.46961  -0.45493  -0.44879
 Alpha  occ. eigenvalues --   -0.44206  -0.42979  -0.42190  -0.40113  -0.36834
 Alpha  occ. eigenvalues --   -0.33650  -0.31674  -0.31428  -0.25887
 Alpha virt. eigenvalues --   -0.02073   0.03721   0.05709   0.06490   0.09296
 Alpha virt. eigenvalues --    0.10731   0.13521   0.14677   0.16199   0.17275
 Alpha virt. eigenvalues --    0.18444   0.20047   0.20784   0.21291   0.22745

 Mulliken charges:
               1
     1  C    0.018384
     2  C   -0.238094
     3  C    0.256220
     4  C   -0.010360
     5  C    0.011651
     6  C    0.001680
     7  H    0.025777
     8  H    0.031351
     9  H    0.027625
    10  H    0.026911
    11  N   -0.139890
    12  S    0.200476
    13  C   -0.087976
    14  C   -0.032661
    15  C    0.112626
    16  C   -0.034194
    17  H    0.008891
    18  C   -0.029102
    19  C    0.032953
    20  H    0.001864
    21  H    0.001685
    22  H    0.014685
    23  C    0.059777
    24  O   -0.407885
    25  H    0.147605
 Sum of Mulliken charges =  -0.00000

 Dipole moment (field-independent basis, Debye):
    X=              1.8705    Y=             -5.7448    Z=             -0.0000  Tot=              6.0417
 Quadrupole moment (field-independent basis, Debye-Ang):
   XX=            -82.0294   YY=            -96.1778   ZZ=           -104.2068
   XY=             -6.5087   XZ=             -0.0001   YZ=              0.0000

  Exact polarizability:     347.793    -122.128     298.274      -0.002       0.002      63.232
 Approx polarizability:     273.346     -36.633     265.091      -0.001       0.002      82.015

                      1                      2                      3
                      A                      A                      A
 Frequencies --     23.3940                39.8871               111.8631
 Red. masses --      5.4600                 6.2119                 5.7424
 Frc consts  --      0.0018                 0.0058                 0.0423
 IR Inten    --      1.4128                 1.3994                 9.9805

                      4                      5                      6
                      A                      A                      A
 Frequencies --    112.9813               180.3208               223.0438
 Red. masses --      5.6006                 5.6262                 5.4627
 Frc consts  --      0.0421                 0.1078                 0.1601
 IR Inten    --      0.7337                 0.0756                 0.2191

                      7                      8                      9
                      A                      A                      A
 Frequencies --    264.7991               271.8938               300.6963
 Red. masses --      7.9806                 4.6126                 7.4179
 Frc consts  --      0.3297                 0.2009                 0.3952
 IR Inten    --      2.6831                 0.4394                 4.7297

                     10                     11                     12
                      A                      A                      A
 Frequencies --    352.9924               392.2169               432.8948
 Red. masses --      4.8068                 8.4961                 3.4348
 Frc consts  --      0.3529                 0.7701                 0.3792
 IR Inten    --      0.9933                 6.0315                 3.1013

                     13                     14                     15
                      A                      A                      A
 Frequencies --    454.6200               505.0952               510.2357
 Red. masses --      4.4717                 8.6621                 3.2084
 Frc consts  --      0.5445                 1.3020                 0.4921
 IR Inten    --      3.2265                 9.5499                 0.4209

                     16                     17                     18
                      A                      A                      A
 Frequencies --    542.0753               552.5232               558.3327
 Red. masses --      8.6643                 6.4858                 3.8475
 Frc consts  --      1.5000                 1.1666                 0.7067
 IR Inten    --      7.7244                40.7873                 0.6302

                     19                     20                     21
                      A                      A                      A
 Frequencies --    568.3672               632.9031               693.0546
 Red. masses --      7.2434                 6.0753                 1.5395
 Frc consts  --      1.3786                 1.4338                 0.4357
 IR Inten    --     11.6179                51.3893                39.7300

                     22                     23                     24
                      A                      A                      A
 Frequencies --    715.0161               726.6027               743.6209
 Red. masses --      6.2557                 7.9965                 2.6309
 Frc consts  --      1.8843                 2.4874                 0.8571
 IR Inten    --      2.5076                 3.4456                13.6872

                     25                     26                     27
                      A                      A                      A
 Frequencies --    760.4665               767.4063               820.9743
 Red. masses --      1.7023                 1.6597                 6.3193
 Frc consts  --      0.5800                 0.5759                 2.5095
 IR Inten    --      3.2408                84.3782                17.8010

                     28                     29                     30
                      A                      A                      A
 Frequencies --    834.4513               868.2476               870.4860
 Red. masses --      1.8113                 1.3807                 4.4679
 Frc consts  --      0.7431                 0.6132                 1.9947
 IR Inten    --      0.0000                 0.1658                 6.0206

                     31                     32                     33
                      A                      A                      A
 Frequencies --    885.7610               902.6513               953.1397
 Red. masses --      1.0860                 1.4259                 1.3625
 Frc consts  --      0.5020                 0.6845                 0.7293
 IR Inten    --     71.0223                13.4972                 1.1050

                     34                     35                     36
                      A                      A                      A
 Frequencies --    957.6920               958.8272              1004.2234
 Red. masses --      1.3511                 5.4138                 1.2968
 Frc consts  --      0.7301                 2.9324                 0.7705
 IR Inten    --      1.3727                 0.9884                 0.0268

                     37                     38                     39
                      A                      A                      A
 Frequencies --   1049.1195              1053.4150              1087.4339
 Red. masses --      2.1125                 2.1111                 4.1266
 Frc consts  --      1.3699                 1.3803                 2.8750
 IR Inten    --      2.0152                 7.7732                 1.7056

                     40                     41                     42
                      A                      A                      A
 Frequencies --   1114.1802              1153.6062              1162.4252
 Red. masses --      1.5580                 1.3209                 1.2249
 Frc consts  --      1.1396                 1.0357                 0.9752
 IR Inten    --     30.9730                19.7217                57.2709

                     43                     44                     45
                      A                      A                      A
 Frequencies --   1179.0688              1215.0971              1254.3133
 Red. masses --      1.1478                 1.7423                 2.0830
 Frc consts  --      0.9401                 1.5157                 1.9309
 IR Inten    --     33.0062                78.3560                43.5241

                     46                     47                     48
                      A                      A                      A
 Frequencies --   1274.4172              1303.5504              1342.8650
 Red. masses --      1.9151                 1.9393                 5.7351
 Frc consts  --      1.8326                 1.9415                 6.0933
 IR Inten    --     68.2356                14.3149                 6.3266

                     49                     50                     51
                      A                      A                      A
 Frequencies --   1364.6654              1395.6357              1400.3492
 Red. masses --      5.2107                 2.8191                 2.3611
 Frc consts  --      5.7175                 3.2352                 2.7279
 IR Inten    --    162.9017                 2.5425                 3.0464

                     52                     53                     54
                      A                      A                      A
 Frequencies --   1435.4859              1481.5403              1503.1381
 Red. masses --      3.0634                 2.8898                 3.1081
 Frc consts  --      3.7193                 3.7372                 4.1376
 IR Inten    --    319.6451                 0.7909                40.4691

                     55                     56                     57
                      A                      A                      A
 Frequencies --   1528.5840              1558.4067              1578.4233
 Red. masses --      3.9783                 5.0353                 4.3568
 Frc consts  --      5.4768                 7.2050                 6.3954
 IR Inten    --     33.8758               215.7315                84.3238

                     58                     59                     60
                      A                      A                      A
 Frequencies --   1618.8463              1647.2735              1666.8010
 Red. masses --      6.5218                 6.3702                 6.8047
 Frc consts  --     10.0700                10.1844                11.1385
 IR Inten    --    197.3517                48.3647               140.8487

                     61                     62                     63
                      A                      A                      A
 Frequencies --   3182.6387              3195.8247              3212.1278
 Red. masses --      1.0866                 1.0885                 1.0865
 Frc consts  --      6.4850                 6.5502                 6.6051
 IR Inten    --    735.0685                99.9734                 1.7126

                     64                     65                     66
                      A                      A                      A
 Frequencies --   3213.0531              3222.9073              3223.0665
 Red. masses --      1.0861                 1.0923                 1.0904
 Frc consts  --      6.6064                 6.6850                 6.6738
 IR Inten    --      3.7962                13.1576                 5.7617

                     67                     68                     69
                      A                      A                      A
 Frequencies --   3233.0948              3235.6025              3239.6746
 Red. masses --      1.0956                 1.0989                 1.0995
 Frc consts  --      6.7474                 6.7782                 6.7993
 IR Inten    --     10.7080                23.3929                 8.8729

 - Thermochemistry -
 -------------------
 Temperature   298.150 Kelvin.  Pressure   1.00000 Atm.
 Atom     1 has atomic number  6 and mass  12.00000

 Molecular mass:   227.04049 amu.
 Principal axes and moments of inertia in atomic units:
                           1         2         3
     Eigenvalues --  1293.199326435.790707728.99002
           X           -0.70208   0.71210   0.00000
           Y            0.71210   0.70208  -0.00001
           Z            0.00001   0.00000   1.00000
 This molecule is an asymmetric top.
 Rotational symmetry number  1.
 Warning -- assumption of classical behavior for rotation
           may cause significant error
 Rotational temperatures (Kelvin)      0.06698     0.01346     0.01121
 Rotational constants (GHZ):           1.39556     0.28042     0.23350
 Zero-point vibrational energy     489394.6 (Joules/Mol)
                                  116.96812 (Kcal/Mol)
 Warning -- explicit consideration of  19 degrees of freedom as
           vibrations may cause significant error
 Vibrational temperatures:     33.66    57.39   160.95   162.55   259.44
          (Kelvin)            320.91   380.99   391.19   432.63   507.88
                              564.31   622.84   654.10   726.72   734.12
                              779.93   794.96   803.32   817.75   910.61
                              997.15  1028.75  1045.42  1069.90  1094.14
                             1104.13  1181.20  1200.59  1249.21  1252.44
                             1274.41  1298.71  1371.36  1377.91  1379.54
                             1444.85  1509.45  1515.63  1564.57  1603.06
                             1659.78  1672.47  1696.42  1748.25  1804.68
                             1833.60  1875.52  1932.08  1963.45  2008.01
                             2014.79  2065.34  2131.61  2162.68  2199.29
                             2242.20  2271.00  2329.16  2370.06  2398.15
                             4579.11  4598.08  4621.54  4622.87  4637.04
                             4637.27  4651.70  4655.31  4661.17

 Zero-point correction=                           0.186401 (Hartree/Particle)
 Thermal correction to Energy=                    0.198832
 Thermal correction to Enthalpy=                  0.199776
 Thermal correction to Gibbs Free Energy=         0.146117
 Sum of electronic and zero-point Energies=          -1028.514452
 Sum of electronic and thermal Energies=             -1028.502021
 Sum of electronic and thermal Enthalpies=           -1028.501077
 Sum of electronic and thermal Free Energies=        -1028.554736

                     E (Thermal)             CV                S
                      KCal/Mol        Cal/Mol-Kelvin    Cal/Mol-Kelvin
 Total                  124.769             49.523            112.936
 Electronic               0.000              0.000              0.000
 Translational            0.889              2.981             42.162
 Rotational               0.889              2.981             32.531
 Vibrational            122.991             43.561             38.243
 Vibration     1          0.593              1.985              6.323
 Vibration     2          0.594              1.981              5.265
 Vibration     3          0.607              1.940              3.236
 Vibration     4          0.607              1.939              3.217
 Vibration     5          0.629              1.866              2.325
 Vibration     6          0.649              1.806              1.934
 Vibration     7          0.671              1.738              1.630
 Vibration     8          0.675              1.725              1.584
 Vibration     9          0.693              1.672              1.413
 Vibration    10          0.729              1.569              1.153
 Vibration    11          0.760              1.487              0.992
 Vibration    12          0.794              1.399              0.849
 Vibration    13          0.813              1.351              0.782
 Vibration    14          0.860              1.239              0.646
 Vibration    15          0.865              1.227              0.633
 Vibration    16          0.897              1.157              0.561
 Vibration    17          0.908              1.134              0.539
 Vibration    18          0.914              1.121              0.527
 Vibration    19          0.924              1.100              0.507

 Optimization completed.
    -- Stationary point found.
 Normal termination of Gaussian 16 at Mon Jul 13 16:39:35 2020.
