 Gaussian 16, Revision C.01,
 Gaussian 16:  ES64L-G16RevC.01  3-Jul-2019

 ----------------------------------------------------------------------
 #p opt=addgic freq td wb97xd/cc-pvdz nosymm int=ultrafine scrf=(solven
 t=CarbonTetraChloride)
 ----------------------------------------------------------------------

 ------------------------------------------------
 NM 2D-scan of HBT TD-WB97XD pVDZ in CTC Relaxed.
 ------------------------------------------------
 Symbolic Z-matrix:
 Charge =  0 Multiplicity = 1

 SCF Done:  E(RwB97XD) =  -1028.36604485     A.U. after   16 cycles
 Total Energy, E(TD-HF/TD-DFT) =  -1028.26228050
 SCF Done:  E(RwB97XD) =  -1028.65268848     A.U. after   14 cycles
 Total Energy, E(TD-HF/TD-DFT) =  -1028.55176305
 SCF Done:  E(RwB97XD) =  -1028.76628942     A.U. after   15 cycles
 Total Energy, E(TD-HF/TD-DFT) =  -1028.67072401
 SCF Done:  E(RwB97XD) =  -1028.77861674     A.U. after   14 cycles
 Total Energy, E(TD-HF/TD-DFT) =  -1028.68297354
 SCF Done:  E(RwB97XD) =  -1028.78227589     A.U. after   12 cycles
 Total Energy, E(TD-HF/TD-DFT) =  -1028.68456712
 SCF Done:  E(RwB97XD) =  -1028.78256387     A.U. after   12 cycles
 Total Energy, E(TD-HF/TD-DFT) =  -1028.68472508
 SCF Done:  E(RwB97XD) =  -1028.78269005     A.U. after   11 cycles
 Total Energy, E(TD-HF/TD-DFT) =  -1028.68474972
 SCF Done:  E(RwB97XD) =  -1028.78269085     A.U. after    9 cycles
 Total Energy, E(TD-HF/TD-DFT) =  -1028.68475055
 Optimization completed.
    -- Stationary point found.
 Normal termination of Gaussian 16 at Tue Jul 14 13:50:14 2020.

 ----------------------------------------------------------------------
 #P Geom=AllCheck Guess=TCheck SCRF=Check GenChk RwB97XD TD(FC,Read)/CC
 -pVDZ Freq
 ----------------------------------------------------------------------

 Structure from the checkpoint file:  "config_12_17.chk"
 ------------------------------------------------
 NM 2D-scan of HBT TD-WB97XD pVDZ in CTC Relaxed.
 ------------------------------------------------
 Charge =  0 Multiplicity = 1

                          Input orientation:
 ---------------------------------------------------------------------
 Center     Atomic      Atomic             Coordinates (Angstroms)
 Number     Number       Type             X           Y           Z
 ---------------------------------------------------------------------
      1          6           0        1.570277   -3.297501    0.000326
      2          6           0        1.015925   -2.025976    0.000161
      3          6           0        1.817392   -0.890809   -0.000145
      4          6           0        3.214843   -0.992277   -0.000284
      5          6           0        3.766956   -2.272268   -0.000120
      6          6           0        2.959403   -3.414141    0.000179
      7          1           0        0.933093   -4.181675    0.000549
      8          1           0        3.846034   -0.102166   -0.000517
      9          1           0        4.852801   -2.378879   -0.000229
     10          1           0        3.417922   -4.403205    0.000294
     11          7           0        1.043870    0.242979   -0.000298
     12         16           0       -0.685691   -1.571250    0.000241
     13          6           0       -1.357622    1.135437   -0.000095
     14          6           0       -2.692641    0.792361   -0.000329
     15          6           0       -0.949178    2.547302    0.000244
     16          6           0       -3.722563    1.789527   -0.000203
     17          1           0       -2.995304   -0.257983   -0.000632
     18          6           0       -2.027277    3.508302    0.000366
     19          6           0       -3.387713    3.131275    0.000153
     20          1           0       -4.764993    1.467075   -0.000380
     21          1           0       -1.747368    4.563871    0.000702
     22          1           0       -4.170123    3.892249    0.000272
     23          6           0       -0.321751    0.120713   -0.000108
     24          8           0        0.271160    2.795357    0.000493
     25          1           0        1.628648    1.039690   -0.000550
 ---------------------------------------------------------------------

 SCF Done:  E(RwB97XD) =  -1028.78269085     A.U. after    1 cycles

 Excitation energies and oscillator strengths:

 Excited state symmetry could not be determined.
 Excited State   1:      Singlet-?Sym    2.6651 eV  465.22 nm  f=0.4334  <S**2>=0.000
      59 -> 60         0.69796
 This state for optimization and/or second-order correction.
 Total Energy, E(TD-HF/TD-DFT) =  -1028.68475054
 Copying the excited state density for this state as the 1-particle RhoCI density.

 Excited state symmetry could not be determined.
 Excited State   2:      Singlet-?Sym    3.2355 eV  383.20 nm  f=0.0000  <S**2>=0.000
      58 -> 60         0.68464
      58 -> 62         0.11186

 Excited state symmetry could not be determined.
 Excited State   3:      Singlet-?Sym    4.2567 eV  291.27 nm  f=0.4163  <S**2>=0.000
      57 -> 60         0.68484

 Alpha  occ. eigenvalues --  -89.10408 -19.19797 -14.53429 -10.42842 -10.37455
 Alpha  occ. eigenvalues --  -10.36101 -10.35075 -10.33565 -10.33563 -10.32982
 Alpha  occ. eigenvalues --  -10.32628 -10.31301 -10.30706 -10.30530 -10.28973
 Alpha  occ. eigenvalues --  -10.28099  -8.12483  -6.07360  -6.06963  -6.06505
 Alpha  occ. eigenvalues --   -1.13382  -1.08939  -0.98752  -0.96006  -0.93278
 Alpha  occ. eigenvalues --   -0.89030  -0.86943  -0.84034  -0.80585  -0.75964
 Alpha  occ. eigenvalues --   -0.74866  -0.72097  -0.69462  -0.67450  -0.64743
 Alpha  occ. eigenvalues --   -0.61103  -0.59774  -0.56522  -0.56326  -0.56128
 Alpha  occ. eigenvalues --   -0.55117  -0.53712  -0.53031  -0.50280  -0.48697
 Alpha  occ. eigenvalues --   -0.48678  -0.48139  -0.47111  -0.45628  -0.44911
 Alpha  occ. eigenvalues --   -0.43873  -0.42716  -0.42290  -0.39741  -0.36972
 Alpha  occ. eigenvalues --   -0.33889  -0.31570  -0.30351  -0.25173
 Alpha virt. eigenvalues --   -0.02321   0.03478   0.05549   0.06792   0.09855
 Alpha virt. eigenvalues --    0.10978   0.13601   0.14415   0.15778   0.16432
 Alpha virt. eigenvalues --    0.17713   0.19713   0.20756   0.21201   0.22586

 Mulliken charges:
               1
     1  C    0.017605
     2  C   -0.235760
     3  C    0.193386
     4  C   -0.012329
     5  C    0.011684
     6  C    0.005288
     7  H    0.025253
     8  H    0.032620
     9  H    0.029755
    10  H    0.028169
    11  N   -0.090856
    12  S    0.199485
    13  C   -0.058313
    14  C   -0.043729
    15  C    0.098737
    16  C   -0.038265
    17  H    0.010853
    18  C   -0.064495
    19  C    0.035202
    20  H    0.000214
    21  H   -0.001820
    22  H    0.013568
    23  C    0.095533
    24  O   -0.373720
    25  H    0.121938
 Sum of Mulliken charges =  -0.00000

 Dipole moment (field-independent basis, Debye):
    X=              2.8842    Y=             -6.4265    Z=             -0.0014  Tot=              7.0440
 Quadrupole moment (field-independent basis, Debye-Ang):
   XX=            -80.6900   YY=            -97.7361   ZZ=           -104.1149
   XY=             -5.7374   XZ=             -0.0024   YZ=             -0.0040

  Exact polarizability:     344.543    -115.460     286.752       0.001      -0.000      63.259
 Approx polarizability:     276.769     -40.524     264.124      -0.002       0.002      81.965

 ******    2 imaginary frequencies (negative Signs) ******

                      1                      2                      3
                      A                      A                      A
 Frequencies --   -152.0990               -46.9141                65.8093
 Red. masses --      1.7635                 6.1925                 6.2504
 Frc consts  --      0.0240                 0.0080                 0.0159
 IR Inten    --     35.4376                 0.2007                 2.0660

                      4                      5                      6
                      A                      A                      A
 Frequencies --    116.0252               149.8281               178.8334
 Red. masses --      5.7419                 3.0817                 5.6966
 Frc consts  --      0.0455                 0.0408                 0.1073
 IR Inten    --      4.2931                24.1963                 2.5682

                      7                      8                      9
                      A                      A                      A
 Frequencies --    243.4949               263.4396               282.4388
 Red. masses --      3.8689                 8.1229                 8.4708
 Frc consts  --      0.1352                 0.3321                 0.3981
 IR Inten    --      5.0166                 0.8465                 2.3279

                     10                     11                     12
                      A                      A                      A
 Frequencies --    312.5899               334.9798               379.9154
 Red. masses --      2.9477                 4.5816                 6.9846
 Frc consts  --      0.1697                 0.3029                 0.5940
 IR Inten    --     13.4461                 0.0213                 5.5653

                     13                     14                     15
                      A                      A                      A
 Frequencies --    431.3090               441.9817               503.3552
 Red. masses --      3.9470                 3.1043                 8.2765
 Frc consts  --      0.4326                 0.3573                 1.2355
 IR Inten    --      5.9636                 0.2814                 8.8361

                     16                     17                     18
                      A                      A                      A
 Frequencies --    517.6125               539.1232               543.9571
 Red. masses --      3.2423                 6.5335                 8.5648
 Frc consts  --      0.5118                 1.1189                 1.4931
 IR Inten    --      0.4326                34.6278                19.7008

                     19                     20                     21
                      A                      A                      A
 Frequencies --    559.9266               565.8168               643.3999
 Red. masses --      3.8020                 7.4422                 6.6774
 Frc consts  --      0.7023                 1.4038                 1.6286
 IR Inten    --      0.1208                 3.3228                 7.8145

                     22                     23                     24
                      A                      A                      A
 Frequencies --    689.9281               711.7638               740.9896
 Red. masses --      1.4845                 5.8013                 7.3911
 Frc consts  --      0.4163                 1.7316                 2.3910
 IR Inten    --     34.3587                 1.4011                 5.8124

                     25                     26                     27
                      A                      A                      A
 Frequencies --    744.1986               756.0285               766.2533
 Red. masses --      2.2916                 1.6539                 1.7755
 Frc consts  --      0.7478                 0.5570                 0.6142
 IR Inten    --     23.2260                13.0571                78.4892

                     28                     29                     30
                      A                      A                      A
 Frequencies --    823.0744               835.9495               864.1781
 Red. masses --      6.2013                 2.1300                 1.3846
 Frc consts  --      2.4752                 0.8770                 0.6092
 IR Inten    --     14.5732                 1.6898                 1.0804

                     31                     32                     33
                      A                      A                      A
 Frequencies --    893.6627               897.7341               952.9181
 Red. masses --      6.0364                 1.4581                 1.3558
 Frc consts  --      2.8404                 0.6924                 0.7253
 IR Inten    --      4.6752                 9.4367                 0.2486

                     34                     35                     36
                      A                      A                      A
 Frequencies --    957.2815               977.1918              1002.7955
 Red. masses --      1.3538                 5.9379                 1.2976
 Frc consts  --      0.7309                 3.3407                 0.7688
 IR Inten    --      1.7354                 7.2786                 0.0000

                     37                     38                     39
                      A                      A                      A
 Frequencies --   1037.7384              1056.6055              1089.2079
 Red. masses --      2.2762                 2.1354                 2.5640
 Frc consts  --      1.4442                 1.4046                 1.7922
 IR Inten    --      1.0057                10.0211                13.0599

                     40                     41                     42
                      A                      A                      A
 Frequencies --   1099.6168              1153.6448              1160.0415
 Red. masses --      2.0806                 1.3699                 1.1921
 Frc consts  --      1.4822                 1.0742                 0.9452
 IR Inten    --      8.0423                 7.5779                30.7137

                     43                     44                     45
                      A                      A                      A
 Frequencies --   1179.0454              1207.2149              1218.6648
 Red. masses --      1.1375                 1.6233                 3.2210
 Frc consts  --      0.9317                 1.3938                 2.8185
 IR Inten    --     17.4511                21.4873                21.6608

                     46                     47                     48
                      A                      A                      A
 Frequencies --   1245.4140              1307.0983              1331.8885
 Red. masses --      1.9636                 1.5758                 3.0573
 Frc consts  --      1.7944                 1.5863                 3.1954
 IR Inten    --     38.6045                 6.4011                17.3989

                     49                     50                     51
                      A                      A                      A
 Frequencies --   1355.1305              1403.1341              1407.2806
 Red. masses --      2.5494                 4.3473                 2.8896
 Frc consts  --      2.7583                 5.0428                 3.3717
 IR Inten    --     29.6564               121.2933                15.4581

                     52                     53                     54
                      A                      A                      A
 Frequencies --   1443.7884              1461.7093              1510.5014
 Red. masses --      2.7548                 3.3245                 3.6842
 Frc consts  --      3.3834                 4.1850                 4.9526
 IR Inten    --     62.7456                14.9381                90.7201

                     55                     56                     57
                      A                      A                      A
 Frequencies --   1528.9695              1535.3048              1619.7736
 Red. masses --      2.7916                 4.4110                 5.2939
 Frc consts  --      3.8450                 6.1261                 8.1834
 IR Inten    --     11.1163               189.0728                75.9000

                     58                     59                     60
                      A                      A                      A
 Frequencies --   1646.8767              1665.8748              1688.7923
 Red. masses --      9.6542                 6.8341                 7.1806
 Frc consts  --     15.4273                11.1741                12.0660
 IR Inten    --    171.0217                85.2335                25.8930

                     61                     62                     63
                      A                      A                      A
 Frequencies --   3191.5518              3206.8838              3209.6351
 Red. masses --      1.0890                 1.0863                 1.0872
 Frc consts  --      6.5354                 6.5820                 6.5990
 IR Inten    --     28.1413                 3.1826                 4.2903

                     64                     65                     66
                      A                      A                      A
 Frequencies --   3218.5999              3220.4465              3228.7668
 Red. masses --      1.0912                 1.0909                 1.0949
 Frc consts  --      6.6603                 6.6660                 6.7251
 IR Inten    --     15.6148                 1.4977                 7.5717

                     67                     68                     69
                      A                      A                      A
 Frequencies --   3232.3529              3240.2287              3952.6206
 Red. masses --      1.0991                 1.0991                 1.0781
 Frc consts  --      6.7658                 6.7991                 9.9234
 IR Inten    --     27.2477                12.5215               156.2408

 - Thermochemistry -
 -------------------
 Temperature   298.150 Kelvin.  Pressure   1.00000 Atm.
 Atom     1 has atomic number  6 and mass  12.00000

 Molecular mass:   227.04049 amu.
 Principal axes and moments of inertia in atomic units:
                           1         2         3
     Eigenvalues --  1248.234376566.564147814.79839
           X           -0.70675   0.70747   0.00000
           Y            0.70747   0.70675  -0.00001
           Z            0.00001   0.00001   1.00000
 This molecule is an asymmetric top.
 Rotational symmetry number  1.
 Warning -- assumption of classical behavior for rotation
           may cause significant error
 Rotational temperatures (Kelvin)      0.06939     0.01319     0.01108
 Rotational constants (GHZ):           1.44584     0.27484     0.23094
    2 imaginary frequencies ignored.
 Zero-point vibrational energy     488926.9 (Joules/Mol)
                                  116.85632 (Kcal/Mol)
 Warning -- explicit consideration of  18 degrees of freedom as
           vibrations may cause significant error
 Vibrational temperatures:     94.68   166.93   215.57   257.30   350.33
          (Kelvin)            379.03   406.37   449.75   481.96   546.61
                              620.56   635.91   724.22   744.73   775.68
                              782.63   805.61   814.08   925.71   992.65
                             1024.07  1066.12  1070.74  1087.76  1102.47
                             1184.22  1202.74  1243.36  1285.78  1291.64
                             1371.04  1377.31  1405.96  1442.80  1493.07
                             1520.22  1567.13  1582.10  1659.84  1669.04
                             1696.38  1736.91  1753.39  1791.87  1880.62
                             1916.29  1949.73  2018.80  2024.76  2077.29
                             2103.07  2173.27  2199.85  2208.96  2330.49
                             2369.49  2396.82  2429.80  4591.93  4613.99
                             4617.95  4630.85  4633.50  4645.48  4650.63
                             4661.97  5686.94

 Zero-point correction=                           0.186222 (Hartree/Particle)
 Thermal correction to Energy=                    0.197565
 Thermal correction to Enthalpy=                  0.198509
 Thermal correction to Gibbs Free Energy=         0.148733
 Sum of electronic and zero-point Energies=          -1028.498528
 Sum of electronic and thermal Energies=             -1028.487186
 Sum of electronic and thermal Enthalpies=           -1028.486242
 Sum of electronic and thermal Free Energies=        -1028.536017

                     E (Thermal)             CV                S
                      KCal/Mol        Cal/Mol-Kelvin    Cal/Mol-Kelvin
 Total                  123.974             46.987            104.761
 Electronic               0.000              0.000              0.000
 Translational            0.889              2.981             42.162
 Rotational               0.889              2.981             32.527
 Vibrational            122.196             41.025             30.073
 Vibration     1          0.597              1.971              4.275
 Vibration     2          0.608              1.936              3.166
 Vibration     3          0.618              1.903              2.674
 Vibration     4          0.629              1.868              2.341
 Vibration     5          0.659              1.774              1.777
 Vibration     6          0.670              1.740              1.639
 Vibration     7          0.681              1.706              1.519
 Vibration     8          0.701              1.650              1.349
 Vibration     9          0.716              1.606              1.236
 Vibration    10          0.750              1.513              1.040
 Vibration    11          0.792              1.402              0.854
 Vibration    12          0.802              1.379              0.820
 Vibration    13          0.859              1.243              0.650
 Vibration    14          0.873              1.211              0.616
 Vibration    15          0.894              1.164              0.567
 Vibration    16          0.899              1.153              0.557
 Vibration    17          0.916              1.118              0.524
 Vibration    18          0.922              1.105              0.512

 Optimization completed.
    -- Stationary point found.
 Normal termination of Gaussian 16 at Tue Jul 14 14:09:36 2020.
