 Gaussian 16, Revision C.01,
 Gaussian 16:  ES64L-G16RevC.01  3-Jul-2019

 ----------------------------------------------------------------------
 #p opt=addgic freq td wb97xd/cc-pvdz nosymm int=ultrafine scrf=(solven
 t=CarbonTetraChloride)
 ----------------------------------------------------------------------

 ------------------------------------------------
 NM 2D-scan of HBT TD-WB97XD pVDZ in CTC Relaxed.
 ------------------------------------------------
 Symbolic Z-matrix:
 Charge =  0 Multiplicity = 1

 SCF Done:  E(RwB97XD) =  -1028.81143983     A.U. after   15 cycles
 Total Energy, E(TD-HF/TD-DFT) =  -1028.68152530
 SCF Done:  E(RwB97XD) =  -1028.81880744     A.U. after   13 cycles
 Total Energy, E(TD-HF/TD-DFT) =  -1028.69038456
 SCF Done:  E(RwB97XD) =  -1028.81750349     A.U. after   12 cycles
 Total Energy, E(TD-HF/TD-DFT) =  -1028.69104335
 SCF Done:  E(RwB97XD) =  -1028.81831298     A.U. after   11 cycles
 Total Energy, E(TD-HF/TD-DFT) =  -1028.69151771
 SCF Done:  E(RwB97XD) =  -1028.81846136     A.U. after   10 cycles
 Total Energy, E(TD-HF/TD-DFT) =  -1028.69154046
 SCF Done:  E(RwB97XD) =  -1028.81847701     A.U. after    9 cycles
 Total Energy, E(TD-HF/TD-DFT) =  -1028.69154231
 Optimization completed.
    -- Stationary point found.
 Normal termination of Gaussian 16 at Mon Jul 13 14:10:59 2020.

 ----------------------------------------------------------------------
 #P Geom=AllCheck Guess=TCheck SCRF=Check GenChk RwB97XD TD(FC,Read)/CC
 -pVDZ Freq
 ----------------------------------------------------------------------

 Structure from the checkpoint file:  "config_4_6.chk"
 ------------------------------------------------
 NM 2D-scan of HBT TD-WB97XD pVDZ in CTC Relaxed.
 ------------------------------------------------
 Charge =  0 Multiplicity = 1

                          Input orientation:
 ---------------------------------------------------------------------
 Center     Atomic      Atomic             Coordinates (Angstroms)
 Number     Number       Type             X           Y           Z
 ---------------------------------------------------------------------
      1          6           0        1.691692   -3.284001   -0.000032
      2          6           0        0.985635   -2.082271   -0.000014
      3          6           0        1.679448   -0.830370   -0.000003
      4          6           0        3.096356   -0.810358   -0.000008
      5          6           0        3.779076   -2.008176   -0.000026
      6          6           0        3.087974   -3.238073   -0.000039
      7          1           0        1.170551   -4.242191   -0.000041
      8          1           0        3.611808    0.150613    0.000001
      9          1           0        4.870565   -2.008258   -0.000032
     10          1           0        3.652143   -4.171869   -0.000053
     11          7           0        0.907260    0.259590    0.000011
     12         16           0       -0.750301   -1.793103   -0.000003
     13          6           0       -1.376015    1.021132    0.000012
     14          6           0       -2.785374    0.853050    0.000003
     15          6           0       -0.888836    2.422808    0.000026
     16          6           0       -3.642719    1.947770    0.000022
     17          1           0       -3.199079   -0.156898   -0.000016
     18          6           0       -1.788072    3.500220    0.000048
     19          6           0       -3.156766    3.276034    0.000048
     20          1           0       -4.720254    1.775242    0.000017
     21          1           0       -1.361813    4.503821    0.000062
     22          1           0       -3.852996    4.114932    0.000065
     23          6           0       -0.422163   -0.024639    0.000009
     24          8           0        0.390817    2.704749    0.000019
     25          1           0        0.894564    1.806165    0.000023
 ---------------------------------------------------------------------

 SCF Done:  E(RwB97XD) =  -1028.81847701     A.U. after    1 cycles

 Excitation energies and oscillator strengths:

 Excited state symmetry could not be determined.
 Excited State   1:      Singlet-?Sym    3.4541 eV  358.95 nm  f=0.6548  <S**2>=0.000
      59 -> 60         0.68999
 This state for optimization and/or second-order correction.
 Total Energy, E(TD-HF/TD-DFT) =  -1028.69154232
 Copying the excited state density for this state as the 1-particle RhoCI density.

 Excited state symmetry could not be determined.
 Excited State   2:      Singlet-?Sym    4.3887 eV  282.51 nm  f=0.2652  <S**2>=0.000
      57 -> 60         0.20641
      58 -> 60         0.63188
      59 -> 62         0.12405
      59 -> 64         0.11068

 Excited state symmetry could not be determined.
 Excited State   3:      Singlet-?Sym    4.6124 eV  268.81 nm  f=0.0480  <S**2>=0.000
      57 -> 60         0.57814
      57 -> 62        -0.14034
      58 -> 60        -0.19831
      58 -> 61        -0.14076
      59 -> 61         0.23984

 Alpha  occ. eigenvalues --  -89.09267 -19.27841 -14.47135 -10.40052 -10.38043
 Alpha  occ. eigenvalues --  -10.35041 -10.34963 -10.32685 -10.32334 -10.32269
 Alpha  occ. eigenvalues --  -10.31860 -10.31503 -10.31473 -10.31368 -10.30364
 Alpha  occ. eigenvalues --  -10.30141  -8.11157  -6.06016  -6.05673  -6.05210
 Alpha  occ. eigenvalues --   -1.16803  -1.08506  -0.96699  -0.95591  -0.91694
 Alpha  occ. eigenvalues --   -0.88824  -0.84907  -0.84356  -0.82382  -0.75960
 Alpha  occ. eigenvalues --   -0.71025  -0.70196  -0.69082  -0.68311  -0.63380
 Alpha  occ. eigenvalues --   -0.60435  -0.58840  -0.58581  -0.55785  -0.54388
 Alpha  occ. eigenvalues --   -0.53845  -0.53039  -0.52863  -0.51014  -0.50299
 Alpha  occ. eigenvalues --   -0.49450  -0.47733  -0.45925  -0.45552  -0.44744
 Alpha  occ. eigenvalues --   -0.43820  -0.42799  -0.42425  -0.40067  -0.37029
 Alpha  occ. eigenvalues --   -0.36466  -0.32264  -0.31344  -0.27938
 Alpha virt. eigenvalues --   -0.01795   0.05037   0.07004   0.07228   0.07244
 Alpha virt. eigenvalues --    0.11044   0.13348   0.15113   0.16018   0.17953
 Alpha virt. eigenvalues --    0.18628   0.20938   0.21701   0.22360   0.22647

 Mulliken charges:
               1
     1  C    0.010775
     2  C   -0.226233
     3  C    0.243901
     4  C   -0.016085
     5  C    0.009239
     6  C   -0.007151
     7  H    0.019162
     8  H    0.017976
     9  H    0.019268
    10  H    0.020957
    11  N   -0.355073
    12  S    0.158448
    13  C   -0.098132
    14  C   -0.017274
    15  C    0.093201
    16  C   -0.016649
    17  H    0.011276
    18  C    0.007784
    19  C    0.023332
    20  H    0.010837
    21  H    0.017599
    22  H    0.022039
    23  C    0.082990
    24  O   -0.214598
    25  H    0.182410
 Sum of Mulliken charges =  -0.00000

 Dipole moment (field-independent basis, Debye):
    X=             -0.2202    Y=             -2.1614    Z=             -0.0000  Tot=              2.1726
 Quadrupole moment (field-independent basis, Debye-Ang):
   XX=            -83.2760   YY=            -89.3771   ZZ=           -104.4222
   XY=             -6.9531   XZ=             -0.0001   YZ=              0.0003

  Exact polarizability:     397.894    -184.997     375.154      -0.002       0.004      63.457
 Approx polarizability:     278.852     -36.201     261.817      -0.001       0.002      82.440

                      1                      2                      3
                      A                      A                      A
 Frequencies --     40.7145                52.6814               107.8121
 Red. masses --      5.8429                 6.6802                 4.6549
 Frc consts  --      0.0057                 0.0109                 0.0319
 IR Inten    --      1.4933                 0.0297                 0.2030

                      4                      5                      6
                      A                      A                      A
 Frequencies --    111.4958               179.1182               223.2442
 Red. masses --      5.5944                 6.3236                 5.3662
 Frc consts  --      0.0410                 0.1195                 0.1576
 IR Inten    --      1.6628                 0.9373                 0.0069

                      7                      8                      9
                      A                      A                      A
 Frequencies --    266.0977               269.2915               307.8253
 Red. masses --      7.6017                 4.8134                 6.5997
 Frc consts  --      0.3171                 0.2057                 0.3685
 IR Inten    --     24.1156                 0.1477                 6.1381

                     10                     11                     12
                      A                      A                      A
 Frequencies --    388.7693               397.4427               438.3779
 Red. masses --      4.7021                 9.1543                 3.2560
 Frc consts  --      0.4187                 0.8520                 0.3687
 IR Inten    --      0.2078                11.9685                 4.5035

                     13                     14                     15
                      A                      A                      A
 Frequencies --    489.8590               499.0738               501.0774
 Red. masses --      4.5883                 7.1856                 3.1514
 Frc consts  --      0.6487                 1.0545                 0.4662
 IR Inten    --      0.1729                 8.4854                 0.0009

                     16                     17                     18
                      A                      A                      A
 Frequencies --    511.9363               526.8297               552.3842
 Red. masses --      5.0483                 8.3716                 3.9723
 Frc consts  --      0.7795                 1.3690                 0.7141
 IR Inten    --     22.3491                23.1053                 0.1183

                     19                     20                     21
                      A                      A                      A
 Frequencies --    579.3853               639.9884               689.9731
 Red. masses --      7.6244                 6.7313                 8.1724
 Frc consts  --      1.5080                 1.6244                 2.2923
 IR Inten    --     25.9227                53.8616                13.6320

                     22                     23                     24
                      A                      A                      A
 Frequencies --    711.2636               716.0343               736.8518
 Red. masses --      1.7502                 7.9327                 1.9352
 Frc consts  --      0.5217                 2.3963                 0.6191
 IR Inten    --     43.1531                17.6440                27.2490

                     25                     26                     27
                      A                      A                      A
 Frequencies --    753.3229               770.7412               809.8212
 Red. masses --      1.8907                 2.0009                 6.3638
 Frc consts  --      0.6322                 0.7003                 2.4589
 IR Inten    --     29.1853                53.8883                12.8767

                     28                     29                     30
                      A                      A                      A
 Frequencies --    821.7419               860.0815               895.5080
 Red. masses --      1.6288                 1.4198                 6.4481
 Frc consts  --      0.6480                 0.6188                 3.0466
 IR Inten    --      0.3717                 0.8485                49.5354

                     31                     32                     33
                      A                      A                      A
 Frequencies --    917.4392               953.8323               962.1553
 Red. masses --      1.3516                 1.3425                 7.1328
 Frc consts  --      0.6703                 0.7196                 3.8904
 IR Inten    --      6.3467                 1.7749                 6.3598

                     34                     35                     36
                      A                      A                      A
 Frequencies --    963.8651               999.9817              1036.6171
 Red. masses --      1.3627                 1.2975                 2.1926
 Frc consts  --      0.7459                 0.7644                 1.3882
 IR Inten    --      0.2513                 0.1014                 2.0792

                     37                     38                     39
                      A                      A                      A
 Frequencies --   1040.9488              1042.5989              1074.2372
 Red. masses --      1.0637                 2.1524                 4.5439
 Frc consts  --      0.6791                 1.3785                 3.0894
 IR Inten    --     66.1634                 0.8747                49.6936

                     40                     41                     42
                      A                      A                      A
 Frequencies --   1132.4428              1147.4508              1173.7200
 Red. masses --      1.4766                 1.3175                 1.1269
 Frc consts  --      1.1157                 1.0221                 0.9146
 IR Inten    --     65.9872                13.8297                12.9191

                     43                     44                     45
                      A                      A                      A
 Frequencies --   1177.7369              1236.5661              1240.9883
 Red. masses --      1.1812                 4.8079                 1.8007
 Frc consts  --      0.9653                 4.3315                 1.6339
 IR Inten    --     38.9110                40.4723               169.8602

                     46                     47                     48
                      A                      A                      A
 Frequencies --   1282.2160              1304.6886              1365.6886
 Red. masses --      1.6695                 3.5153                 2.7871
 Frc consts  --      1.6172                 3.5255                 3.0627
 IR Inten    --      7.6523               307.9118                20.9340

                     49                     50                     51
                      A                      A                      A
 Frequencies --   1375.9373              1401.8562              1441.7736
 Red. masses --      5.2523                 2.0352                 2.5969
 Frc consts  --      5.8586                 2.3565                 3.1806
 IR Inten    --     57.9975                 2.4108               160.3897

                     52                     53                     54
                      A                      A                      A
 Frequencies --   1476.8646              1504.5209              1525.9152
 Red. masses --      3.4389                 4.2318                 3.7108
 Frc consts  --      4.4193                 5.6438                 5.0907
 IR Inten    --     96.2704                77.7560               166.2560

                     55                     56                     57
                      A                      A                      A
 Frequencies --   1531.3606              1555.6787              1596.4286
 Red. masses --      4.5170                 5.6041                 3.7871
 Frc consts  --      6.2411                 7.9909                 5.6867
 IR Inten    --    138.7456               555.1000               172.2230

                     58                     59                     60
                      A                      A                      A
 Frequencies --   1619.6640              1632.3519              1654.6865
 Red. masses --      4.6110                 2.3230                 4.1977
 Frc consts  --      7.1269                 3.6470                 6.7717
 IR Inten    --    301.1302               558.9936                64.1137

                     61                     62                     63
                      A                      A                      A
 Frequencies --   2524.3987              3204.7991              3207.3937
 Red. masses --      1.0895                 1.0873                 1.0863
 Frc consts  --      4.0908                 6.5795                 6.5842
 IR Inten    --    221.7796                 5.7721                 9.3625

                     64                     65                     66
                      A                      A                      A
 Frequencies --   3217.8467              3218.5933              3226.4523
 Red. masses --      1.0887                 1.0898                 1.0936
 Frc consts  --      6.6422                 6.6518                 6.7074
 IR Inten    --      1.4058                 3.0592                18.2362

                     67                     68                     69
                      A                      A                      A
 Frequencies --   3230.1907              3236.3397              3238.5927
 Red. masses --      1.0953                 1.0991                 1.0988
 Frc consts  --      6.7336                 6.7827                 6.7903
 IR Inten    --     10.9769                41.6690                20.9616

 - Thermochemistry -
 -------------------
 Temperature   298.150 Kelvin.  Pressure   1.00000 Atm.
 Atom     1 has atomic number  6 and mass  12.00000

 Molecular mass:   227.04049 amu.
 Principal axes and moments of inertia in atomic units:
                           1         2         3
     Eigenvalues --  1338.260816335.695887673.95669
           X           -0.69954   0.71459   0.00000
           Y            0.71459   0.69954  -0.00001
           Z            0.00001   0.00000   1.00000
 This molecule is an asymmetric top.
 Rotational symmetry number  1.
 Warning -- assumption of classical behavior for rotation
           may cause significant error
 Rotational temperatures (Kelvin)      0.06472     0.01367     0.01129
 Rotational constants (GHZ):           1.34857     0.28485     0.23518
 Zero-point vibrational energy     487619.2 (Joules/Mol)
                                  116.54378 (Kcal/Mol)
 Warning -- explicit consideration of  19 degrees of freedom as
           vibrations may cause significant error
 Vibrational temperatures:     58.58    75.80   155.12   160.42   257.71
          (Kelvin)            321.20   382.86   387.45   442.89   559.35
                              571.83   630.73   704.80   718.06   720.94
                              736.56   757.99   794.76   833.61   920.80
                              992.72  1023.35  1030.21  1060.17  1083.86
                             1108.92  1165.15  1182.30  1237.47  1288.44
                             1319.99  1372.35  1384.33  1386.79  1438.75
                             1491.46  1497.69  1500.07  1545.59  1629.33
                             1650.93  1688.72  1694.50  1779.14  1785.51
                             1844.82  1877.16  1964.92  1979.67  2016.96
                             2074.39  2124.88  2164.67  2195.45  2203.29
                             2238.27  2296.90  2330.34  2348.59  2380.72
                             3632.05  4610.99  4614.72  4629.76  4630.84
                             4642.15  4647.52  4656.37  4659.61

 Zero-point correction=                           0.185724 (Hartree/Particle)
 Thermal correction to Energy=                    0.198043
 Thermal correction to Enthalpy=                  0.198988
 Thermal correction to Gibbs Free Energy=         0.146160
 Sum of electronic and zero-point Energies=          -1028.505818
 Sum of electronic and thermal Energies=             -1028.493499
 Sum of electronic and thermal Enthalpies=           -1028.492555
 Sum of electronic and thermal Free Energies=        -1028.545382

                     E (Thermal)             CV                S
                      KCal/Mol        Cal/Mol-Kelvin    Cal/Mol-Kelvin
 Total                  124.274             49.272            111.185
 Electronic               0.000              0.000              0.000
 Translational            0.889              2.981             42.162
 Rotational               0.889              2.981             32.542
 Vibrational            122.497             43.310             36.481
 Vibration     1          0.594              1.981              5.224
 Vibration     2          0.596              1.977              4.714
 Vibration     3          0.606              1.943              3.308
 Vibration     4          0.607              1.940              3.243
 Vibration     5          0.629              1.868              2.338
 Vibration     6          0.649              1.806              1.933
 Vibration     7          0.672              1.735              1.621
 Vibration     8          0.674              1.730              1.601
 Vibration     9          0.698              1.659              1.374
 Vibration    10          0.757              1.494              1.005
 Vibration    11          0.764              1.476              0.972
 Vibration    12          0.799              1.387              0.832
 Vibration    13          0.846              1.273              0.684
 Vibration    14          0.855              1.252              0.660
 Vibration    15          0.856              1.248              0.655
 Vibration    16          0.867              1.224              0.629
 Vibration    17          0.882              1.191              0.594
 Vibration    18          0.908              1.134              0.539
 Vibration    19          0.936              1.076              0.487

 Optimization completed.
    -- Stationary point found.
 Normal termination of Gaussian 16 at Mon Jul 13 14:28:45 2020.
