 Gaussian 16, Revision C.01,
 Gaussian 16:  ES64L-G16RevC.01  3-Jul-2019

 ----------------------------------------------------------------------
 #p opt=addgic freq td wb97xd/cc-pvdz nosymm int=ultrafine scrf=(solven
 t=CarbonTetraChloride)
 ----------------------------------------------------------------------

 ------------------------------------------------
 NM 2D-scan of HBT TD-WB97XD pVDZ in CTC Relaxed.
 ------------------------------------------------
 Symbolic Z-matrix:
 Charge =  0 Multiplicity = 1

 SCF Done:  E(RwB97XD) =  -1028.81423547     A.U. after   15 cycles
 Total Energy, E(TD-HF/TD-DFT) =  -1028.69122967
 SCF Done:  E(RwB97XD) =  -1028.81432986     A.U. after    9 cycles
 Total Energy, E(TD-HF/TD-DFT) =  -1028.69123212
 SCF Done:  E(RwB97XD) =  -1028.81426722     A.U. after   10 cycles
 Total Energy, E(TD-HF/TD-DFT) =  -1028.69123487
 SCF Done:  E(RwB97XD) =  -1028.81425700     A.U. after    8 cycles
 Total Energy, E(TD-HF/TD-DFT) =  -1028.69123808
 Optimization completed.
    -- Stationary point found.
 Normal termination of Gaussian 16 at Mon Jul 13 14:51:05 2020.

 ----------------------------------------------------------------------
 #P Geom=AllCheck Guess=TCheck SCRF=Check GenChk RwB97XD TD(FC,Read)/CC
 -pVDZ Freq
 ----------------------------------------------------------------------

 Structure from the checkpoint file:  "config_6_5.chk"
 ------------------------------------------------
 NM 2D-scan of HBT TD-WB97XD pVDZ in CTC Relaxed.
 ------------------------------------------------
 Charge =  0 Multiplicity = 1

                          Input orientation:
 ---------------------------------------------------------------------
 Center     Atomic      Atomic             Coordinates (Angstroms)
 Number     Number       Type             X           Y           Z
 ---------------------------------------------------------------------
      1          6           0        1.705225   -3.268229   -0.000034
      2          6           0        1.000785   -2.066567   -0.000023
      3          6           0        1.686359   -0.818298   -0.000007
      4          6           0        3.097758   -0.791639    0.000001
      5          6           0        3.784296   -1.992076   -0.000009
      6          6           0        3.100646   -3.222035   -0.000027
      7          1           0        1.181741   -4.225047   -0.000047
      8          1           0        3.615549    0.167984    0.000015
      9          1           0        4.875718   -1.986643   -0.000003
     10          1           0        3.666670   -4.154489   -0.000035
     11          7           0        0.882519    0.259724   -0.000002
     12         16           0       -0.740504   -1.794539   -0.000028
     13          6           0       -1.396723    1.012455   -0.000002
     14          6           0       -2.795628    0.859130   -0.000001
     15          6           0       -0.874450    2.403498    0.000019
     16          6           0       -3.644047    1.972680    0.000033
     17          1           0       -3.225739   -0.143985   -0.000022
     18          6           0       -1.767247    3.496228    0.000058
     19          6           0       -3.141923    3.290046    0.000067
     20          1           0       -4.723346    1.811579    0.000036
     21          1           0       -1.328751    4.494632    0.000076
     22          1           0       -3.827295    4.137674    0.000096
     23          6           0       -0.442128   -0.039893   -0.000014
     24          8           0        0.401835    2.624734   -0.000005
     25          1           0        0.893093    1.603994   -0.000051
 ---------------------------------------------------------------------

 SCF Done:  E(RwB97XD) =  -1028.81425700     A.U. after    1 cycles

 Excitation energies and oscillator strengths:

 Excited state symmetry could not be determined.
 Excited State   1:      Singlet-?Sym    3.3475 eV  370.38 nm  f=0.5441  <S**2>=0.000
      59 -> 60         0.69231
 This state for optimization and/or second-order correction.
 Total Energy, E(TD-HF/TD-DFT) =  -1028.69123808
 Copying the excited state density for this state as the 1-particle RhoCI density.

 Excited state symmetry could not be determined.
 Excited State   2:      Singlet-?Sym    4.3862 eV  282.67 nm  f=0.3563  <S**2>=0.000
      57 -> 60         0.14218
      58 -> 60         0.65897
      59 -> 62        -0.10037
      59 -> 64        -0.10751

 Excited state symmetry could not be determined.
 Excited State   3:      Singlet-?Sym    4.7029 eV  263.63 nm  f=0.0418  <S**2>=0.000
      55 -> 61        -0.11060
      57 -> 60         0.57956
      57 -> 62        -0.15112
      58 -> 60        -0.14122
      58 -> 61        -0.18873
      59 -> 61        -0.23782

 Alpha  occ. eigenvalues --  -89.09648 -19.25914 -14.48122 -10.40537 -10.37524
 Alpha  occ. eigenvalues --  -10.35658 -10.35296 -10.32611 -10.32184 -10.32071
 Alpha  occ. eigenvalues --  -10.31861 -10.31738 -10.31683 -10.31605 -10.30024
 Alpha  occ. eigenvalues --  -10.29694  -8.11570  -6.06432  -6.06080  -6.05616
 Alpha  occ. eigenvalues --   -1.15157  -1.09213  -0.97027  -0.95426  -0.92145
 Alpha  occ. eigenvalues --   -0.88899  -0.85299  -0.84001  -0.82329  -0.75924
 Alpha  occ. eigenvalues --   -0.71198  -0.70495  -0.68771  -0.68286  -0.63456
 Alpha  occ. eigenvalues --   -0.60721  -0.59070  -0.58179  -0.55561  -0.54356
 Alpha  occ. eigenvalues --   -0.54327  -0.53265  -0.52679  -0.51155  -0.49854
 Alpha  occ. eigenvalues --   -0.49823  -0.47351  -0.46197  -0.45550  -0.44884
 Alpha  occ. eigenvalues --   -0.43954  -0.42830  -0.42391  -0.40423  -0.36541
 Alpha  occ. eigenvalues --   -0.35844  -0.32599  -0.31189  -0.27663
 Alpha virt. eigenvalues --   -0.01764   0.04689   0.06819   0.07045   0.07753
 Alpha virt. eigenvalues --    0.10763   0.13380   0.15019   0.16073   0.17867
 Alpha virt. eigenvalues --    0.18764   0.20861   0.21653   0.22329   0.22519

 Mulliken charges:
               1
     1  C    0.012983
     2  C   -0.233700
     3  C    0.265679
     4  C   -0.015251
     5  C    0.010008
     6  C   -0.004232
     7  H    0.020850
     8  H    0.022471
     9  H    0.021586
    10  H    0.022473
    11  N   -0.326469
    12  S    0.172668
    13  C   -0.110028
    14  C   -0.018907
    15  C    0.112134
    16  C   -0.024264
    17  H    0.008235
    18  C   -0.003465
    19  C    0.027120
    20  H    0.008301
    21  H    0.013368
    22  H    0.020201
    23  C    0.077926
    24  O   -0.289200
    25  H    0.209512
 Sum of Mulliken charges =  -0.00000

 Dipole moment (field-independent basis, Debye):
    X=              0.2527    Y=             -3.0553    Z=             -0.0000  Tot=              3.0657
 Quadrupole moment (field-independent basis, Debye-Ang):
   XX=            -83.2903   YY=            -90.5326   ZZ=           -104.3406
   XY=             -6.9322   XZ=             -0.0001   YZ=              0.0003

  Exact polarizability:     375.755    -158.218     340.610      -0.002       0.004      63.376
 Approx polarizability:     276.248     -35.409     261.599      -0.001       0.003      82.379

 ******    1 imaginary frequencies (negative Signs) ******

                      1                      2                      3
                      A                      A                      A
 Frequencies --   -591.3794                22.2379                47.7202
 Red. masses --      1.2946                 6.5463                 6.6818
 Frc consts  --      0.2667                 0.0019                 0.0090
 IR Inten    --    546.2268                 0.2369                 1.3461

                      4                      5                      6
                      A                      A                      A
 Frequencies --    106.5341               145.2965               176.3263
 Red. masses --      4.6366                 5.6987                 5.9093
 Frc consts  --      0.0310                 0.0709                 0.1082
 IR Inten    --      0.0543                 9.8390                 0.6730

                      7                      8                      9
                      A                      A                      A
 Frequencies --    222.0701               270.0795               270.3839
 Red. masses --      5.3452                 4.7656                 7.4420
 Frc consts  --      0.1553                 0.2048                 0.3206
 IR Inten    --      0.0519                 0.1760                15.7659

                     10                     11                     12
                      A                      A                      A
 Frequencies --    377.4807               389.4805               413.4719
 Red. masses --      4.8553                 5.9264                 9.3788
 Frc consts  --      0.4076                 0.5297                 0.9447
 IR Inten    --      0.3776                 2.6330                 7.0313

                     13                     14                     15
                      A                      A                      A
 Frequencies --    437.7856               480.2556               496.0257
 Red. masses --      3.2255                 4.7443                 3.1695
 Frc consts  --      0.3642                 0.6447                 0.4595
 IR Inten    --      4.8625                 0.0040                 0.2901

                     16                     17                     18
                      A                      A                      A
 Frequencies --    505.0850               536.3346               555.8712
 Red. masses --      8.8334                 8.2971                 3.9136
 Frc consts  --      1.3277                 1.4062                 0.7125
 IR Inten    --      0.3530                12.8298                 0.2115

                     19                     20                     21
                      A                      A                      A
 Frequencies --    579.7273               626.9136               699.1626
 Red. masses --      7.5005                 7.1023                 1.6617
 Frc consts  --      1.4852                 1.6446                 0.4786
 IR Inten    --      0.0261                16.2723                41.3594

                     22                     23                     24
                      A                      A                      A
 Frequencies --    701.3916               739.8084               740.9665
 Red. masses --      6.7301                 2.0975                 9.6524
 Frc consts  --      1.9507                 0.6764                 3.1224
 IR Inten    --     10.0553                21.1659                14.1974

                     25                     26                     27
                      A                      A                      A
 Frequencies --    760.8278               768.3958               772.7127
 Red. masses --      1.9369                 1.8585                 4.8021
 Frc consts  --      0.6606                 0.6465                 1.6893
 IR Inten    --     25.5064                61.8145               269.5279

                     28                     29                     30
                      A                      A                      A
 Frequencies --    821.5777               821.7463               861.8228
 Red. masses --      6.1267                 1.6289                 1.4075
 Frc consts  --      2.4365                 0.6481                 0.6159
 IR Inten    --     16.4372                 0.0063                 0.9993

                     31                     32                     33
                      A                      A                      A
 Frequencies --    910.0074               916.0355               954.0943
 Red. masses --      1.3682                 6.6263                 1.3444
 Frc consts  --      0.6676                 3.2760                 0.7210
 IR Inten    --      5.2864                 7.8301                 1.7761

                     34                     35                     36
                      A                      A                      A
 Frequencies --    958.1650               987.5912              1000.3663
 Red. masses --      1.3806                 7.2232                 1.2946
 Frc consts  --      0.7468                 4.1508                 0.7633
 IR Inten    --      0.5481                 4.9601                 0.0059

                     37                     38                     39
                      A                      A                      A
 Frequencies --   1038.2487              1048.1307              1082.9077
 Red. masses --      2.1725                 2.0511                 4.7073
 Frc consts  --      1.3798                 1.3276                 3.2524
 IR Inten    --      0.4037                 2.4532                60.7362

                     40                     41                     42
                      A                      A                      A
 Frequencies --   1132.6549              1150.3336              1171.1926
 Red. masses --      1.4158                 1.3273                 1.1537
 Frc consts  --      1.0701                 1.0348                 0.9324
 IR Inten    --     54.9404                16.6255                88.5864

                     43                     44                     45
                      A                      A                      A
 Frequencies --   1178.5430              1213.2844              1251.3923
 Red. masses --      1.1572                 1.0542                 1.8232
 Frc consts  --      0.9470                 0.9143                 1.6822
 IR Inten    --     39.6302                63.8010               101.6981

                     46                     47                     48
                      A                      A                      A
 Frequencies --   1261.2174              1292.4873              1356.5199
 Red. masses --      3.3536                 1.9629                 3.1540
 Frc consts  --      3.1429                 1.9320                 3.4195
 IR Inten    --     38.9868                12.9973               164.8902

                     49                     50                     51
                      A                      A                      A
 Frequencies --   1372.4143              1403.6861              1405.8456
 Red. masses --      5.8098                 2.1801                 2.8390
 Frc consts  --      6.4473                 2.5309                 3.3059
 IR Inten    --    210.0681                12.8245                74.5985

                     52                     53                     54
                      A                      A                      A
 Frequencies --   1447.3291              1480.1700              1511.1472
 Red. masses --      3.1537                 3.3055                 4.9551
 Frc consts  --      3.8923                 4.2669                 6.6668
 IR Inten    --    327.2703               206.2288               400.6928

                     55                     56                     57
                      A                      A                      A
 Frequencies --   1533.2011              1541.1790              1561.6500
 Red. masses --      5.0626                 4.8266                 4.4381
 Frc consts  --      7.0117                 6.7546                 6.3769
 IR Inten    --     12.5402                98.5798               437.9841

                     58                     59                     60
                      A                      A                      A
 Frequencies --   1619.9825              1649.2999              1656.9228
 Red. masses --      6.0563                 5.9099                 5.9434
 Frc consts  --      9.3643                 9.4717                 9.6137
 IR Inten    --    153.4184              1034.9908                14.5246

                     61                     62                     63
                      A                      A                      A
 Frequencies --   1836.6389              3204.8172              3208.1933
 Red. masses --      1.0924                 1.0875                 1.0864
 Frc consts  --      2.1712                 6.5812                 6.5879
 IR Inten    --     59.8184                12.0846                 8.6352

                     64                     65                     66
                      A                      A                      A
 Frequencies --   3217.7018              3219.7847              3226.5608
 Red. masses --      1.0886                 1.0900                 1.0930
 Frc consts  --      6.6408                 6.6575                 6.7045
 IR Inten    --      2.5516                 3.0515                17.9803

                     67                     68                     69
                      A                      A                      A
 Frequencies --   3231.0813              3237.3631              3238.9032
 Red. masses --      1.0953                 1.0991                 1.0987
 Frc consts  --      6.7371                 6.7871                 6.7907
 IR Inten    --     10.7072                32.5028                13.4685

 - Thermochemistry -
 -------------------
 Temperature   298.150 Kelvin.  Pressure   1.00000 Atm.
 Atom     1 has atomic number  6 and mass  12.00000

 Molecular mass:   227.04049 amu.
 Principal axes and moments of inertia in atomic units:
                           1         2         3
     Eigenvalues --  1322.782636315.084997637.86762
           X           -0.70276   0.71143   0.00000
           Y            0.71143   0.70276  -0.00001
           Z            0.00001   0.00001   1.00000
 This molecule is an asymmetric top.
 Rotational symmetry number  1.
 Warning -- assumption of classical behavior for rotation
           may cause significant error
 Rotational temperatures (Kelvin)      0.06548     0.01372     0.01134
 Rotational constants (GHZ):           1.36435     0.28578     0.23629
    1 imaginary frequencies ignored.
 Zero-point vibrational energy     478832.5 (Joules/Mol)
                                  114.44371 (Kcal/Mol)
 Warning -- explicit consideration of  18 degrees of freedom as
           vibrations may cause significant error
 Vibrational temperatures:     32.00    68.66   153.28   209.05   253.69
          (Kelvin)            319.51   388.58   389.02   543.11   560.38
                              594.89   629.88   690.98   713.67   726.70
                              771.67   799.77   834.10   901.99  1005.94
                             1009.15  1064.42  1066.09  1094.66  1105.55
                             1111.76  1182.07  1182.31  1239.97  1309.30
                             1317.97  1372.73  1378.59  1420.92  1439.30
                             1493.81  1508.03  1558.06  1629.64  1655.07
                             1685.08  1695.66  1745.65  1800.47  1814.61
                             1859.60  1951.73  1974.60  2019.59  2022.70
                             2082.38  2129.63  2174.20  2205.93  2217.41
                             2246.87  2330.79  2372.97  2383.94  2642.51
                             4611.02  4615.87  4629.56  4632.55  4642.30
                             4648.81  4657.84  4660.06

 Zero-point correction=                           0.182378 (Hartree/Particle)
 Thermal correction to Energy=                    0.194422
 Thermal correction to Enthalpy=                  0.195366
 Thermal correction to Gibbs Free Energy=         0.142538
 Sum of electronic and zero-point Energies=          -1028.508860
 Sum of electronic and thermal Energies=             -1028.496816
 Sum of electronic and thermal Enthalpies=           -1028.495872
 Sum of electronic and thermal Free Energies=        -1028.548700

                     E (Thermal)             CV                S
                      KCal/Mol        Cal/Mol-Kelvin    Cal/Mol-Kelvin
 Total                  122.001             48.173            111.186
 Electronic               0.000              0.000              0.000
 Translational            0.889              2.981             42.162
 Rotational               0.889              2.981             32.523
 Vibrational            120.224             42.212             36.501
 Vibration     1          0.593              1.985              6.424
 Vibration     2          0.595              1.978              4.910
 Vibration     3          0.605              1.944              3.331
 Vibration     4          0.617              1.908              2.733
 Vibration     5          0.628              1.872              2.367
 Vibration     6          0.648              1.807              1.942
 Vibration     7          0.674              1.728              1.596
 Vibration     8          0.674              1.728              1.594
 Vibration     9          0.748              1.518              1.049
 Vibration    10          0.757              1.493              1.002
 Vibration    11          0.777              1.441              0.914
 Vibration    12          0.798              1.388              0.834
 Vibration    13          0.837              1.294              0.709
 Vibration    14          0.852              1.259              0.668
 Vibration    15          0.860              1.239              0.646
 Vibration    16          0.891              1.170              0.573
 Vibration    17          0.911              1.127              0.532
 Vibration    18          0.936              1.075              0.486

 Optimization completed.
    -- Stationary point found.
 Normal termination of Gaussian 16 at Mon Jul 13 15:08:52 2020.
