 Gaussian 16, Revision C.01,
 Gaussian 16:  ES64L-G16RevC.01  3-Jul-2019

 ----------------------------------------------------------------------
 #p opt=addgic freq td wb97xd/cc-pvdz nosymm int=ultrafine scrf=(solven
 t=CarbonTetraChloride)
 ----------------------------------------------------------------------

 ------------------------------------------------
 NM 2D-scan of HBT TD-WB97XD pVDZ in CTC Relaxed.
 ------------------------------------------------
 Symbolic Z-matrix:
 Charge =  0 Multiplicity = 1

 SCF Done:  E(RwB97XD) =  -1028.74772856     A.U. after   16 cycles
 Total Energy, E(TD-HF/TD-DFT) =  -1028.64194036
 SCF Done:  E(RwB97XD) =  -1028.78699265     A.U. after   14 cycles
 Total Energy, E(TD-HF/TD-DFT) =  -1028.68514309
 SCF Done:  E(RwB97XD) =  -1028.79361728     A.U. after   13 cycles
 Total Energy, E(TD-HF/TD-DFT) =  -1028.68777492
 SCF Done:  E(RwB97XD) =  -1028.79173477     A.U. after   13 cycles
 Total Energy, E(TD-HF/TD-DFT) =  -1028.68890304
 SCF Done:  E(RwB97XD) =  -1028.79264662     A.U. after   11 cycles
 Total Energy, E(TD-HF/TD-DFT) =  -1028.68923947
 SCF Done:  E(RwB97XD) =  -1028.79264455     A.U. after    9 cycles
 Total Energy, E(TD-HF/TD-DFT) =  -1028.68924237
 Optimization completed.
    -- Stationary point found.
 Normal termination of Gaussian 16 at Mon Jul 13 19:25:45 2020.

 ----------------------------------------------------------------------
 #P Geom=AllCheck Guess=TCheck SCRF=Check GenChk RwB97XD TD(FC,Read)/CC
 -pVDZ Freq
 ----------------------------------------------------------------------

 Structure from the checkpoint file:  "config_11_1.chk"
 ------------------------------------------------
 NM 2D-scan of HBT TD-WB97XD pVDZ in CTC Relaxed.
 ------------------------------------------------
 Charge =  0 Multiplicity = 1

                          Input orientation:
 ---------------------------------------------------------------------
 Center     Atomic      Atomic             Coordinates (Angstroms)
 Number     Number       Type             X           Y           Z
 ---------------------------------------------------------------------
      1          6           0        1.784615   -3.286176    0.000011
      2          6           0        1.029835   -2.116011   -0.000003
      3          6           0        1.684423   -0.882593   -0.000036
      4          6           0        3.079769   -0.762005   -0.000049
      5          6           0        3.818952   -1.935155   -0.000033
      6          6           0        3.180443   -3.182071   -0.000006
      7          1           0        1.305598   -4.265465    0.000033
      8          1           0        3.549871    0.221803   -0.000071
      9          1           0        4.908789   -1.884944   -0.000044
     10          1           0        3.778923   -4.093678    0.000004
     11          7           0        0.805230    0.139886   -0.000053
     12         16           0       -0.739414   -1.848797    0.000007
     13          6           0       -1.449802    1.037535   -0.000011
     14          6           0       -2.830438    0.942056   -0.000048
     15          6           0       -0.846006    2.410837    0.000047
     16          6           0       -3.682263    2.092969    0.000000
     17          1           0       -3.301109   -0.044409   -0.000109
     18          6           0       -1.756314    3.521286    0.000102
     19          6           0       -3.148193    3.373743    0.000083
     20          1           0       -4.762666    1.940892   -0.000022
     21          1           0       -1.289432    4.507953    0.000165
     22          1           0       -3.799855    4.248541    0.000128
     23          6           0       -0.532267   -0.092936   -0.000026
     24          8           0        0.393793    2.591912    0.000072
     25          1           0        1.159313    1.081024   -0.000073
 ---------------------------------------------------------------------

 SCF Done:  E(RwB97XD) =  -1028.79264455     A.U. after    1 cycles

 Excitation energies and oscillator strengths:

 Excited state symmetry could not be determined.
 Excited State   1:      Singlet-?Sym    2.8137 eV  440.64 nm  f=0.4258  <S**2>=0.000
      59 -> 60         0.69597
 This state for optimization and/or second-order correction.
 Total Energy, E(TD-HF/TD-DFT) =  -1028.68924244
 Copying the excited state density for this state as the 1-particle RhoCI density.

 Excited state symmetry could not be determined.
 Excited State   2:      Singlet-?Sym    3.5638 eV  347.90 nm  f=0.0000  <S**2>=0.000
      58 -> 60         0.68364
      58 -> 62         0.11785
      58 -> 64         0.11158

 Excited state symmetry could not be determined.
 Excited State   3:      Singlet-?Sym    4.3412 eV  285.60 nm  f=0.4968  <S**2>=0.000
      57 -> 60         0.68067

 Alpha  occ. eigenvalues --  -89.10936 -19.20952 -14.51815 -10.42648 -10.37065
 Alpha  occ. eigenvalues --  -10.36410 -10.35947 -10.33684 -10.33098 -10.32771
 Alpha  occ. eigenvalues --  -10.32557 -10.31584 -10.31426 -10.30519 -10.29049
 Alpha  occ. eigenvalues --  -10.28132  -8.12819  -6.07715  -6.07324  -6.06833
 Alpha  occ. eigenvalues --   -1.13521  -1.09773  -0.98526  -0.94910  -0.93166
 Alpha  occ. eigenvalues --   -0.89233  -0.86496  -0.84232  -0.80740  -0.76136
 Alpha  occ. eigenvalues --   -0.73852  -0.71626  -0.69264  -0.67434  -0.64845
 Alpha  occ. eigenvalues --   -0.60930  -0.59832  -0.56620  -0.56142  -0.55798
 Alpha  occ. eigenvalues --   -0.54994  -0.53542  -0.53009  -0.50905  -0.48993
 Alpha  occ. eigenvalues --   -0.48751  -0.48138  -0.46948  -0.45553  -0.44738
 Alpha  occ. eigenvalues --   -0.44428  -0.42789  -0.41993  -0.40204  -0.36905
 Alpha  occ. eigenvalues --   -0.33800  -0.31536  -0.31434  -0.25610
 Alpha virt. eigenvalues --   -0.02201   0.03579   0.06030   0.06292   0.09461
 Alpha virt. eigenvalues --    0.10625   0.11231   0.14522   0.16037   0.17150
 Alpha virt. eigenvalues --    0.18872   0.19944   0.21020   0.21349   0.22856

 Mulliken charges:
               1
     1  C    0.009829
     2  C   -0.254683
     3  C    0.249682
     4  C   -0.010790
     5  C    0.016007
     6  C   -0.000025
     7  H    0.027669
     8  H    0.035711
     9  H    0.029025
    10  H    0.027760
    11  N   -0.080723
    12  S    0.196450
    13  C   -0.122668
    14  C   -0.020158
    15  C    0.120763
    16  C   -0.041286
    17  H   -0.000410
    18  C   -0.035434
    19  C    0.035167
    20  H    0.002082
    21  H   -0.000535
    22  H    0.013252
    23  C    0.074241
    24  O   -0.394664
    25  H    0.123739
 Sum of Mulliken charges =  -0.00000

 Dipole moment (field-independent basis, Debye):
    X=              2.1758    Y=             -5.6571    Z=             -0.0002  Tot=              6.0611
 Quadrupole moment (field-independent basis, Debye-Ang):
   XX=            -82.3570   YY=            -95.0220   ZZ=           -104.2845
   XY=             -6.5162   XZ=             -0.0003   YZ=             -0.0003

  Exact polarizability:     349.188    -121.387     296.869      -0.001       0.003      63.404
 Approx polarizability:     276.601     -39.599     267.372      -0.001       0.002      82.186

 ******    1 imaginary frequencies (negative Signs) ******

                      1                      2                      3
                      A                      A                      A
 Frequencies --   -113.1447                43.0450                96.7231
 Red. masses --      7.7186                 6.4415                 4.5781
 Frc consts  --      0.0582                 0.0070                 0.0252
 IR Inten    --      1.9044                 1.6525                 0.0069

                      4                      5                      6
                      A                      A                      A
 Frequencies --    112.2908               168.5530               227.2620
 Red. masses --      5.7613                 4.9412                 5.4480
 Frc consts  --      0.0428                 0.0827                 0.1658
 IR Inten    --      7.5831                 0.0263                 0.5376

                      7                      8                      9
                      A                      A                      A
 Frequencies --    263.2594               268.3173               328.2123
 Red. masses --      7.5789                 4.5438                 7.3308
 Frc consts  --      0.3095                 0.1927                 0.4653
 IR Inten    --      0.9258                 1.6121                 3.1033

                     10                     11                     12
                      A                      A                      A
 Frequencies --    347.5608               375.2486               427.4156
 Red. masses --      4.7313                 8.7259                 3.3954
 Frc consts  --      0.3367                 0.7239                 0.3655
 IR Inten    --      0.9678                 6.4151                 5.3655

                     13                     14                     15
                      A                      A                      A
 Frequencies --    445.4566               498.3776               508.6937
 Red. masses --      4.5459                 8.2029                 3.1773
 Frc consts  --      0.5315                 1.2004                 0.4844
 IR Inten    --      3.4085                 9.5867                 0.4917

                     16                     17                     18
                      A                      A                      A
 Frequencies --    537.8153               552.9530               564.2951
 Red. masses --      8.8691                 3.6864                 6.9151
 Frc consts  --      1.5115                 0.6641                 1.2974
 IR Inten    --     12.4750                 2.3769                23.6022

                     19                     20                     21
                      A                      A                      A
 Frequencies --    568.9066               643.3036               680.2959
 Red. masses --      7.5750                 6.2199                 1.4874
 Frc consts  --      1.4445                 1.5166                 0.4056
 IR Inten    --     24.0160                48.6486                53.2622

                     22                     23                     24
                      A                      A                      A
 Frequencies --    692.4498               715.4955               728.6831
 Red. masses --      6.4217                 1.1571                 8.1974
 Frc consts  --      1.8142                 0.3490                 2.5645
 IR Inten    --      0.5305                 1.6895                 3.9170

                     25                     26                     27
                      A                      A                      A
 Frequencies --    740.5599               761.6398               770.9642
 Red. masses --      2.4203                 1.7248                 1.7109
 Frc consts  --      0.7821                 0.5895                 0.5992
 IR Inten    --     16.7437                 0.0026               127.1084

                     28                     29                     30
                      A                      A                      A
 Frequencies --    803.6870               845.5908               859.4909
 Red. masses --      6.5316                 1.7741                 1.3993
 Frc consts  --      2.4857                 0.7474                 0.6090
 IR Inten    --     19.0873                 1.1517                 3.0132

                     31                     32                     33
                      A                      A                      A
 Frequencies --    900.3116               909.5933               954.1032
 Red. masses --      5.5754                 1.4285                 1.3543
 Frc consts  --      2.6626                 0.6964                 0.7264
 IR Inten    --      1.0242                 9.2637                 0.0724

                     34                     35                     36
                      A                      A                      A
 Frequencies --    954.4317               957.2831              1001.9999
 Red. masses --      1.3554                 5.2646                 1.2951
 Frc consts  --      0.7274                 2.8425                 0.7661
 IR Inten    --      2.5514                 1.4045                 0.0027

                     37                     38                     39
                      A                      A                      A
 Frequencies --   1038.4945              1051.6243              1074.7899
 Red. masses --      2.3294                 2.3089                 3.6853
 Frc consts  --      1.4802                 1.5044                 2.5082
 IR Inten    --      1.4363                13.1670                 0.9192

                     40                     41                     42
                      A                      A                      A
 Frequencies --   1102.5343              1149.7291              1158.4809
 Red. masses --      1.6441                 1.3147                 1.1852
 Frc consts  --      1.1775                 1.0239                 0.9371
 IR Inten    --     40.6007                 4.1525                76.7399

                     43                     44                     45
                      A                      A                      A
 Frequencies --   1178.2629              1199.8039              1239.9849
 Red. masses --      1.1336                 2.1256                 2.3006
 Frc consts  --      0.9273                 1.8028                 2.0842
 IR Inten    --     27.8904                93.5966                11.9922

                     46                     47                     48
                      A                      A                      A
 Frequencies --   1280.2730              1293.7203              1332.5866
 Red. masses --      2.0216                 1.5756                 3.0862
 Frc consts  --      1.9524                 1.5537                 3.2290
 IR Inten    --    112.2206                32.3386                48.6123

                     49                     50                     51
                      A                      A                      A
 Frequencies --   1368.4895              1386.9442              1401.4872
 Red. masses --      2.5887                 2.3622                 4.4380
 Frc consts  --      2.8564                 2.6772                 5.1359
 IR Inten    --     64.3357                34.1914                59.0827

                     52                     53                     54
                      A                      A                      A
 Frequencies --   1447.0799              1473.1606              1519.4546
 Red. masses --      3.1542                 2.7350                 2.8589
 Frc consts  --      3.8915                 3.4971                 3.8889
 IR Inten    --    200.7350                 7.9420                26.4195

                     55                     56                     57
                      A                      A                      A
 Frequencies --   1527.0446              1579.6257              1602.9803
 Red. masses --      3.7128                 6.1386                 5.1367
 Frc consts  --      5.1010                 9.0246                 7.7766
 IR Inten    --     66.9617               170.3753               116.2768

                     58                     59                     60
                      A                      A                      A
 Frequencies --   1637.2536              1663.3769              1679.4152
 Red. masses --      7.6175                 7.0415                 6.7610
 Frc consts  --     12.0308                11.4788                11.2351
 IR Inten    --    144.6135                36.7633               158.5959

                     61                     62                     63
                      A                      A                      A
 Frequencies --   3190.2109              3209.1501              3213.7435
 Red. masses --      1.0892                 1.0862                 1.0860
 Frc consts  --      6.5311                 6.5909                 6.6087
 IR Inten    --     19.7827                 1.0532                 5.0170

                     64                     65                     66
                      A                      A                      A
 Frequencies --   3221.2749              3223.0912              3231.7186
 Red. masses --      1.0915                 1.0901                 1.0960
 Frc consts  --      6.6734                 6.6723                 6.7443
 IR Inten    --     14.7640                 2.7362                 7.0491

                     67                     68                     69
                      A                      A                      A
 Frequencies --   3233.1093              3239.9941              3617.1467
 Red. masses --      1.0993                 1.0996                 1.0822
 Frc consts  --      6.7702                 6.8008                 8.3423
 IR Inten    --     23.5673                14.4126               767.4947

 - Thermochemistry -
 -------------------
 Temperature   298.150 Kelvin.  Pressure   1.00000 Atm.
 Atom     1 has atomic number  6 and mass  12.00000

 Molecular mass:   227.04049 amu.
 Principal axes and moments of inertia in atomic units:
                           1         2         3
     Eigenvalues --  1321.021046455.778107776.79913
           X           -0.70312   0.71107   0.00000
           Y            0.71107   0.70312  -0.00001
           Z            0.00001   0.00001   1.00000
 This molecule is an asymmetric top.
 Rotational symmetry number  1.
 Warning -- assumption of classical behavior for rotation
           may cause significant error
 Rotational temperatures (Kelvin)      0.06557     0.01342     0.01114
 Rotational constants (GHZ):           1.36617     0.27955     0.23207
    1 imaginary frequencies ignored.
 Zero-point vibrational energy     490590.4 (Joules/Mol)
                                  117.25391 (Kcal/Mol)
 Warning -- explicit consideration of  18 degrees of freedom as
           vibrations may cause significant error
 Vibrational temperatures:     61.93   139.16   161.56   242.51   326.98
          (Kelvin)            378.77   386.05   472.22   500.06   539.90
                              614.96   640.91   717.05   731.90   773.80
                              795.58   811.89   818.53   925.57   978.79
                              996.28  1029.44  1048.41  1065.50  1095.83
                             1109.25  1156.33  1216.62  1236.62  1295.35
                             1308.70  1372.74  1373.21  1377.32  1441.65
                             1494.16  1513.05  1546.38  1586.30  1654.20
                             1666.80  1695.26  1726.25  1784.06  1842.03
                             1861.37  1917.29  1968.95  1995.50  2016.43
                             2082.03  2119.55  2186.16  2197.08  2272.73
                             2306.33  2355.64  2393.23  2416.30  4590.00
                             4617.25  4623.86  4634.70  4637.31  4649.72
                             4651.72  4661.63  5204.27

 Zero-point correction=                           0.186856 (Hartree/Particle)
 Thermal correction to Energy=                    0.198506
 Thermal correction to Enthalpy=                  0.199451
 Thermal correction to Gibbs Free Energy=         0.148568
 Sum of electronic and zero-point Energies=          -1028.502386
 Sum of electronic and thermal Energies=             -1028.490736
 Sum of electronic and thermal Enthalpies=           -1028.489792
 Sum of electronic and thermal Free Energies=        -1028.540675

                     E (Thermal)             CV                S
                      KCal/Mol        Cal/Mol-Kelvin    Cal/Mol-Kelvin
 Total                  124.565             47.948            107.092
 Electronic               0.000              0.000              0.000
 Translational            0.889              2.981             42.162
 Rotational               0.889              2.981             32.561
 Vibrational            122.787             41.986             32.369
 Vibration     1          0.595              1.980              5.114
 Vibration     2          0.603              1.952              3.519
 Vibration     3          0.607              1.939              3.229
 Vibration     4          0.625              1.881              2.452
 Vibration     5          0.651              1.799              1.900
 Vibration     6          0.670              1.740              1.640
 Vibration     7          0.673              1.731              1.607
 Vibration     8          0.711              1.619              1.269
 Vibration     9          0.725              1.580              1.177
 Vibration    10          0.746              1.523              1.058
 Vibration    11          0.789              1.411              0.867
 Vibration    12          0.805              1.371              0.810
 Vibration    13          0.854              1.254              0.662
 Vibration    14          0.864              1.231              0.637
 Vibration    15          0.893              1.166              0.570
 Vibration    16          0.908              1.133              0.538
 Vibration    17          0.920              1.109              0.515
 Vibration    18          0.925              1.099              0.506

 Optimization completed.
    -- Stationary point found.
 Normal termination of Gaussian 16 at Mon Jul 13 19:43:19 2020.
