 Gaussian 16, Revision C.01,
 Gaussian 16:  ES64L-G16RevC.01  3-Jul-2019

 ----------------------------------------------------------------------
 #p opt=addgic freq td wb97xd/cc-pvdz nosymm int=ultrafine scrf=(solven
 t=CarbonTetraChloride)
 ----------------------------------------------------------------------

 ------------------------------------------------
 NM 2D-scan of HBT TD-WB97XD pVDZ in CTC Relaxed.
 ------------------------------------------------
 Symbolic Z-matrix:
 Charge =  0 Multiplicity = 1

 SCF Done:  E(RwB97XD) =  -1028.78820096     A.U. after   16 cycles
 Total Energy, E(TD-HF/TD-DFT) =  -1028.67864837
 SCF Done:  E(RwB97XD) =  -1028.79640508     A.U. after   14 cycles
 Total Energy, E(TD-HF/TD-DFT) =  -1028.69301952
 SCF Done:  E(RwB97XD) =  -1028.79925870     A.U. after   12 cycles
 Total Energy, E(TD-HF/TD-DFT) =  -1028.69432130
 SCF Done:  E(RwB97XD) =  -1028.79979795     A.U. after   11 cycles
 Total Energy, E(TD-HF/TD-DFT) =  -1028.69448075
 SCF Done:  E(RwB97XD) =  -1028.79985148     A.U. after   10 cycles
 Total Energy, E(TD-HF/TD-DFT) =  -1028.69448730
 Optimization completed.
    -- Stationary point found.
 Normal termination of Gaussian 16 at Tue Jul 14 17:27:17 2020.

 ----------------------------------------------------------------------
 #P Geom=AllCheck Guess=TCheck SCRF=Check GenChk RwB97XD TD(FC,Read)/CC
 -pVDZ Freq
 ----------------------------------------------------------------------

 Structure from the checkpoint file:  "config_8_20.chk"
 ------------------------------------------------
 NM 2D-scan of HBT TD-WB97XD pVDZ in CTC Relaxed.
 ------------------------------------------------
 Charge =  0 Multiplicity = 1

                          Input orientation:
 ---------------------------------------------------------------------
 Center     Atomic      Atomic             Coordinates (Angstroms)
 Number     Number       Type             X           Y           Z
 ---------------------------------------------------------------------
      1          6           0        1.508366   -3.284790   -0.000045
      2          6           0        0.991293   -1.992555   -0.000023
      3          6           0        1.815480   -0.834394   -0.000003
      4          6           0        3.209689   -1.010475   -0.000006
      5          6           0        3.721809   -2.304815   -0.000029
      6          6           0        2.890710   -3.436332   -0.000047
      7          1           0        0.841893   -4.148109   -0.000058
      8          1           0        3.872586   -0.144741    0.000009
      9          1           0        4.804511   -2.440847   -0.000031
     10          1           0        3.328298   -4.435215   -0.000063
     11          7           0        1.090623    0.341516    0.000018
     12         16           0       -0.694694   -1.560282   -0.000017
     13          6           0       -1.284419    1.122935    0.000037
     14          6           0       -2.628178    0.735258    0.000060
     15          6           0       -0.946386    2.559362    0.000031
     16          6           0       -3.662060    1.687178    0.000048
     17          1           0       -2.898272   -0.322581    0.000082
     18          6           0       -2.029297    3.481536    0.000005
     19          6           0       -3.360618    3.051958    0.000015
     20          1           0       -4.699059    1.349125    0.000059
     21          1           0       -1.773376    4.542381   -0.000020
     22          1           0       -4.166879    3.786830   -0.000004
     23          6           0       -0.258286    0.136730    0.000015
     24          8           0        0.272281    2.930702    0.000007
     25          1           0        1.294859    1.389119    0.000067
 ---------------------------------------------------------------------

 SCF Done:  E(RwB97XD) =  -1028.79985148     A.U. after    1 cycles

 Excitation energies and oscillator strengths:

 Excited state symmetry could not be determined.
 Excited State   1:      Singlet-?Sym    2.8671 eV  432.44 nm  f=0.4420  <S**2>=0.000
      59 -> 60         0.69721
 This state for optimization and/or second-order correction.
 Total Energy, E(TD-HF/TD-DFT) =  -1028.69448727
 Copying the excited state density for this state as the 1-particle RhoCI density.

 Excited state symmetry could not be determined.
 Excited State   2:      Singlet-?Sym    3.6225 eV  342.26 nm  f=0.0000  <S**2>=0.000
      57 -> 60         0.68363
      57 -> 62         0.11655
      57 -> 64         0.11376

 Excited state symmetry could not be determined.
 Excited State   3:      Singlet-?Sym    4.2474 eV  291.91 nm  f=0.3164  <S**2>=0.000
      58 -> 60         0.68414

 Alpha  occ. eigenvalues --  -89.10089 -19.21062 -14.53236 -10.41874 -10.38027
 Alpha  occ. eigenvalues --  -10.36185 -10.35762 -10.33294 -10.33104 -10.32563
 Alpha  occ. eigenvalues --  -10.32404 -10.31512 -10.30942 -10.30855 -10.29300
 Alpha  occ. eigenvalues --  -10.28511  -8.12167  -6.07031  -6.06665  -6.06185
 Alpha  occ. eigenvalues --   -1.12481  -1.08641  -0.98403  -0.95742  -0.93299
 Alpha  occ. eigenvalues --   -0.89075  -0.86871  -0.83557  -0.81440  -0.75838
 Alpha  occ. eigenvalues --   -0.73052  -0.72232  -0.68628  -0.67595  -0.65176
 Alpha  occ. eigenvalues --   -0.61051  -0.59662  -0.56773  -0.55809  -0.55606
 Alpha  occ. eigenvalues --   -0.55041  -0.54017  -0.53047  -0.50230  -0.48872
 Alpha  occ. eigenvalues --   -0.48714  -0.48527  -0.46971  -0.45514  -0.44951
 Alpha  occ. eigenvalues --   -0.44055  -0.42928  -0.42257  -0.40037  -0.36811
 Alpha  occ. eigenvalues --   -0.33644  -0.31677  -0.31351  -0.25996
 Alpha virt. eigenvalues --   -0.02082   0.03752   0.05440   0.06756   0.09244
 Alpha virt. eigenvalues --    0.10728   0.13973   0.14887   0.16331   0.17500
 Alpha virt. eigenvalues --    0.17945   0.19869   0.20390   0.21181   0.22222

 Mulliken charges:
               1
     1  C    0.022543
     2  C   -0.225597
     3  C    0.254102
     4  C   -0.012593
     5  C    0.008663
     6  C    0.003477
     7  H    0.025300
     8  H    0.030479
     9  H    0.027217
    10  H    0.026845
    11  N   -0.173592
    12  S    0.198332
    13  C   -0.072730
    14  C   -0.040388
    15  C    0.105999
    16  C   -0.030157
    17  H    0.018328
    18  C   -0.027189
    19  C    0.032630
    20  H    0.001991
    21  H    0.002868
    22  H    0.015271
    23  C    0.056535
    24  O   -0.410967
    25  H    0.162633
 Sum of Mulliken charges =  -0.00000

 Dipole moment (field-independent basis, Debye):
    X=              1.7729    Y=             -5.8672    Z=              0.0000  Tot=              6.1292
 Quadrupole moment (field-independent basis, Debye-Ang):
   XX=            -81.6015   YY=            -97.2195   ZZ=           -104.2087
   XY=             -6.4022   XZ=              0.0001   YZ=              0.0002

  Exact polarizability:     346.143    -121.830     299.637      -0.002       0.002      63.168
 Approx polarizability:     272.102     -35.133     264.994      -0.001       0.001      81.969

                      1                      2                      3
                      A                      A                      A
 Frequencies --     27.4113                41.2576               110.1835
 Red. masses --      6.3945                 4.5378                 5.8100
 Frc consts  --      0.0028                 0.0046                 0.0416
 IR Inten    --      1.8134                 0.2185                13.0819

                      4                      5                      6
                      A                      A                      A
 Frequencies --    123.2882               185.0799               223.6762
 Red. masses --      5.8483                 5.9881                 5.6519
 Frc consts  --      0.0524                 0.1209                 0.1666
 IR Inten    --      1.5649                 0.0252                 0.2126

                      7                      8                      9
                      A                      A                      A
 Frequencies --    256.4721               271.4930               292.8153
 Red. masses --      8.4083                 4.5780                 7.0947
 Frc consts  --      0.3259                 0.1988                 0.3584
 IR Inten    --      5.5428                 0.1243                 2.1667

                     10                     11                     12
                      A                      A                      A
 Frequencies --    355.3012               400.1719               433.8598
 Red. masses --      4.8371                 8.3977                 3.4291
 Frc consts  --      0.3598                 0.7923                 0.3803
 IR Inten    --      1.0938                 5.9371                 2.3589

                     13                     14                     15
                      A                      A                      A
 Frequencies --    456.9332               508.5367               510.3821
 Red. masses --      4.2937                 8.7617                 3.2146
 Frc consts  --      0.5282                 1.3350                 0.4934
 IR Inten    --      3.3460                10.6030                 0.2592

                     16                     17                     18
                      A                      A                      A
 Frequencies --    543.9675               545.7062               559.7140
 Red. masses --      8.1747                 6.4324                 3.8742
 Frc consts  --      1.4252                 1.1286                 0.7151
 IR Inten    --     29.8155                19.3499                 0.3729

                     19                     20                     21
                      A                      A                      A
 Frequencies --    568.8111               626.4598               697.6333
 Red. masses --      7.1596                 6.0312                 1.4873
 Frc consts  --      1.3648                 1.3946                 0.4265
 IR Inten    --     10.5068                50.0025                43.5165

                     22                     23                     24
                      A                      A                      A
 Frequencies --    721.6306               725.6788               743.0763
 Red. masses --      8.1539                 5.9347                 2.7187
 Frc consts  --      2.5018                 1.8414                 0.8844
 IR Inten    --      5.8308                 1.0605                14.5264

                     25                     26                     27
                      A                      A                      A
 Frequencies --    756.7621               766.7773               827.0214
 Red. masses --      1.6843                 1.6053                 2.0224
 Frc consts  --      0.5683                 0.5561                 0.8150
 IR Inten    --      4.7839                84.2835                 0.5663

                     28                     29                     30
                      A                      A                      A
 Frequencies --    827.3312               852.0017               870.3251
 Red. masses --      6.3361                 4.2302                 1.3763
 Frc consts  --      2.5552                 1.8092                 0.6142
 IR Inten    --     17.5420                 7.4533                 1.2505

                     31                     32                     33
                      A                      A                      A
 Frequencies --    900.1108               932.9579               951.9297
 Red. masses --      1.4357                 1.0830                 1.3540
 Frc consts  --      0.6853                 0.5554                 0.7229
 IR Inten    --      4.7171                77.8567                 3.0934

                     34                     35                     36
                      A                      A                      A
 Frequencies --    958.3895               958.8996              1004.5217
 Red. masses --      5.4375                 1.3509                 1.3007
 Frc consts  --      2.9426                 0.7319                 0.7733
 IR Inten    --      1.4692                 0.2365                 0.0471

                     37                     38                     39
                      A                      A                      A
 Frequencies --   1051.3130              1054.0668              1095.0191
 Red. masses --      2.1039                 2.0188                 3.7675
 Frc consts  --      1.3700                 1.3216                 2.6616
 IR Inten    --      0.5597                13.2436                 2.0727

                     40                     41                     42
                      A                      A                      A
 Frequencies --   1124.2665              1156.7160              1167.5120
 Red. masses --      1.5432                 1.3505                 1.2851
 Frc consts  --      1.1493                 1.0646                 1.0320
 IR Inten    --     16.3875                42.9354                47.9161

                     43                     44                     45
                      A                      A                      A
 Frequencies --   1177.2570              1209.4905              1254.6718
 Red. masses --      1.1769                 1.7163                 1.9301
 Frc consts  --      0.9611                 1.4792                 1.7901
 IR Inten    --     36.2015                69.1105                56.7994

                     46                     47                     48
                      A                      A                      A
 Frequencies --   1258.9258              1303.0347              1341.3264
 Red. masses --      2.6005                 1.8299                 4.4707
 Frc consts  --      2.4283                 1.8306                 4.7391
 IR Inten    --     23.9550                 4.8183                26.7209

                     49                     50                     51
                      A                      A                      A
 Frequencies --   1357.0569              1389.3865              1401.6100
 Red. masses --      6.8526                 3.2622                 2.2303
 Frc consts  --      7.4354                 3.7102                 2.5814
 IR Inten    --    171.5466                50.1854                 0.7442

                     52                     53                     54
                      A                      A                      A
 Frequencies --   1434.2383              1480.2976              1495.0053
 Red. masses --      2.7452                 2.9246                 3.1432
 Frc consts  --      3.3271                 3.7759                 4.1391
 IR Inten    --    305.9935                 9.9616                36.2210

                     55                     56                     57
                      A                      A                      A
 Frequencies --   1521.8375              1555.0214              1570.3429
 Red. masses --      3.5419                 5.5129                 4.0777
 Frc consts  --      4.8330                 7.8543                 5.9245
 IR Inten    --     65.0819               185.6479                73.2811

                     58                     59                     60
                      A                      A                      A
 Frequencies --   1611.1221              1635.1615              1663.8025
 Red. masses --      6.0467                 6.2455                 6.6745
 Frc consts  --      9.2475                 9.8387                10.8860
 IR Inten    --    219.9105                71.7626                93.1647

                     61                     62                     63
                      A                      A                      A
 Frequencies --   2946.2244              3202.6881              3210.0474
 Red. masses --      1.0879                 1.0872                 1.0862
 Frc consts  --      5.5636                 6.5706                 6.5942
 IR Inten    --    764.5531                28.3035                 3.1170

                     64                     65                     66
                      A                      A                      A
 Frequencies --   3212.0448              3219.6494              3224.9190
 Red. masses --      1.0870                 1.0901                 1.0927
 Frc consts  --      6.6078                 6.6581                 6.6958
 IR Inten    --      8.8131                 3.0172                13.7545

                     67                     68                     69
                      A                      A                      A
 Frequencies --   3229.0218              3236.1120              3236.6613
 Red. masses --      1.0957                 1.0987                 1.0997
 Frc consts  --      6.7309                 6.7793                 6.7876
 IR Inten    --      6.7335                31.8354                 7.5935

 - Thermochemistry -
 -------------------
 Temperature   298.150 Kelvin.  Pressure   1.00000 Atm.
 Atom     1 has atomic number  6 and mass  12.00000

 Molecular mass:   227.04049 amu.
 Principal axes and moments of inertia in atomic units:
                           1         2         3
     Eigenvalues --  1283.771596428.413377712.18496
           X           -0.70002   0.71412   0.00000
           Y            0.71412   0.70002  -0.00001
           Z            0.00001   0.00000   1.00000
 This molecule is an asymmetric top.
 Rotational symmetry number  1.
 Warning -- assumption of classical behavior for rotation
           may cause significant error
 Rotational temperatures (Kelvin)      0.06747     0.01347     0.01123
 Rotational constants (GHZ):           1.40581     0.28074     0.23401
 Zero-point vibrational energy     487851.6 (Joules/Mol)
                                  116.59933 (Kcal/Mol)
 Warning -- explicit consideration of  19 degrees of freedom as
           vibrations may cause significant error
 Vibrational temperatures:     39.44    59.36   158.53   177.38   266.29
          (Kelvin)            321.82   369.01   390.62   421.30   511.20
                              575.76   624.23   657.42   731.67   734.33
                              782.65   785.15   805.30   818.39   901.34
                             1003.74  1038.27  1044.09  1069.12  1088.81
                             1103.22  1189.90  1190.35  1225.84  1252.20
                             1295.06  1342.32  1369.61  1378.91  1379.64
                             1445.28  1512.60  1516.57  1575.49  1617.57
                             1664.26  1679.79  1693.81  1740.19  1805.19
                             1811.31  1874.78  1929.87  1952.50  1999.02
                             2016.60  2063.55  2129.82  2150.98  2189.58
                             2237.33  2259.37  2318.05  2352.63  2393.84
                             4238.96  4607.95  4618.54  4621.42  4632.36
                             4639.94  4645.84  4656.04  4656.83

 Zero-point correction=                           0.185813 (Hartree/Particle)
 Thermal correction to Energy=                    0.198212
 Thermal correction to Enthalpy=                  0.199156
 Thermal correction to Gibbs Free Energy=         0.145756
 Sum of electronic and zero-point Energies=          -1028.508674
 Sum of electronic and thermal Energies=             -1028.496275
 Sum of electronic and thermal Enthalpies=           -1028.495331
 Sum of electronic and thermal Free Energies=        -1028.548732

                     E (Thermal)             CV                S
                      KCal/Mol        Cal/Mol-Kelvin    Cal/Mol-Kelvin
 Total                  124.380             49.481            112.391
 Electronic               0.000              0.000              0.000
 Translational            0.889              2.981             42.162
 Rotational               0.889              2.981             32.520
 Vibrational            122.603             43.519             37.709
 Vibration     1          0.593              1.984              6.008
 Vibration     2          0.594              1.981              5.198
 Vibration     3          0.606              1.941              3.266
 Vibration     4          0.610              1.930              3.048
 Vibration     5          0.631              1.860              2.277
 Vibration     6          0.649              1.805              1.929
 Vibration     7          0.666              1.752              1.686
 Vibration     8          0.675              1.726              1.587
 Vibration     9          0.688              1.687              1.458
 Vibration    10          0.731              1.564              1.143
 Vibration    11          0.766              1.470              0.962
 Vibration    12          0.795              1.396              0.846
 Vibration    13          0.815              1.346              0.775
 Vibration    14          0.864              1.231              0.637
 Vibration    15          0.866              1.227              0.633
 Vibration    16          0.899              1.153              0.557
 Vibration    17          0.901              1.149              0.553
 Vibration    18          0.915              1.118              0.524
 Vibration    19          0.925              1.099              0.507

 Optimization completed.
    -- Stationary point found.
 Normal termination of Gaussian 16 at Tue Jul 14 17:44:47 2020.
