 Gaussian 16, Revision C.01,
 Gaussian 16:  ES64L-G16RevC.01  3-Jul-2019

 ----------------------------------------------------------------------
 #p opt=addgic freq td wb97xd/cc-pvdz nosymm int=ultrafine scrf=(solven
 t=CarbonTetraChloride)
 ----------------------------------------------------------------------

 ------------------------------------------------
 NM 2D-scan of HBT TD-WB97XD pVDZ in CTC Relaxed.
 ------------------------------------------------
 Symbolic Z-matrix:
 Charge =  0 Multiplicity = 1

 SCF Done:  E(RwB97XD) =  -1028.80588568     A.U. after   15 cycles
 Total Energy, E(TD-HF/TD-DFT) =  -1028.69196922
 SCF Done:  E(RwB97XD) =  -1028.79900542     A.U. after   14 cycles
 Total Energy, E(TD-HF/TD-DFT) =  -1028.69034462
 SCF Done:  E(RwB97XD) =  -1028.80495126     A.U. after   11 cycles
 Total Energy, E(TD-HF/TD-DFT) =  -1028.69260049
 SCF Done:  E(RwB97XD) =  -1028.80509467     A.U. after   10 cycles
 Total Energy, E(TD-HF/TD-DFT) =  -1028.69260704
 SCF Done:  E(RwB97XD) =  -1028.80511753     A.U. after    9 cycles
 Total Energy, E(TD-HF/TD-DFT) =  -1028.69260690
 SCF Done:  E(RwB97XD) =  -1028.80512040     A.U. after    9 cycles
 Total Energy, E(TD-HF/TD-DFT) =  -1028.69260760
 Optimization completed.
    -- Stationary point found.
 Normal termination of Gaussian 16 at Mon Jul 13 15:52:12 2020.

 ----------------------------------------------------------------------
 #P Geom=AllCheck Guess=TCheck SCRF=Check GenChk RwB97XD TD(FC,Read)/CC
 -pVDZ Freq
 ----------------------------------------------------------------------

 Structure from the checkpoint file:  "config_8_2.chk"
 ------------------------------------------------
 NM 2D-scan of HBT TD-WB97XD pVDZ in CTC Relaxed.
 ------------------------------------------------
 Charge =  0 Multiplicity = 1

                          Input orientation:
 ---------------------------------------------------------------------
 Center     Atomic      Atomic             Coordinates (Angstroms)
 Number     Number       Type             X           Y           Z
 ---------------------------------------------------------------------
      1          6           0        1.752533   -3.276409   -0.000061
      2          6           0        1.003108   -2.098644   -0.000036
      3          6           0        1.664991   -0.842849   -0.000001
      4          6           0        3.067427   -0.757700    0.000017
      5          6           0        3.796180   -1.932320   -0.000008
      6          6           0        3.148019   -3.179763   -0.000048
      7          1           0        1.267747   -4.253467   -0.000088
      8          1           0        3.545658    0.222183    0.000049
      9          1           0        4.886602   -1.891276    0.000004
     10          1           0        3.742871   -4.094128   -0.000067
     11          7           0        0.834984    0.218535    0.000021
     12         16           0       -0.752227   -1.849907   -0.000036
     13          6           0       -1.418809    1.010460    0.000014
     14          6           0       -2.814825    0.900286    0.000016
     15          6           0       -0.854432    2.397657    0.000007
     16          6           0       -3.643293    2.041288    0.000044
     17          1           0       -3.278101   -0.088742    0.000006
     18          6           0       -1.735035    3.507502    0.000030
     19          6           0       -3.114108    3.340769    0.000056
     20          1           0       -4.725354    1.900094    0.000051
     21          1           0       -1.265389    4.491849    0.000019
     22          1           0       -3.777101    4.206237    0.000074
     23          6           0       -0.488227   -0.079413   -0.000001
     24          8           0        0.406722    2.623425   -0.000071
     25          1           0        0.952190    1.357300    0.000090
 ---------------------------------------------------------------------

 SCF Done:  E(RwB97XD) =  -1028.80512040     A.U. after    1 cycles

 Excitation energies and oscillator strengths:

 Excited state symmetry could not be determined.
 Excited State   1:      Singlet-?Sym    3.0616 eV  404.96 nm  f=0.4536  <S**2>=0.000
      59 -> 60         0.69477
 This state for optimization and/or second-order correction.
 Total Energy, E(TD-HF/TD-DFT) =  -1028.69260762
 Copying the excited state density for this state as the 1-particle RhoCI density.

 Excited state symmetry could not be determined.
 Excited State   2:      Singlet-?Sym    4.1701 eV  297.32 nm  f=0.0000  <S**2>=0.000
      56 -> 60         0.68593
      56 -> 63         0.10764
      56 -> 64         0.11520

 Excited state symmetry could not be determined.
 Excited State   3:      Singlet-?Sym    4.3468 eV  285.23 nm  f=0.4241  <S**2>=0.000
      58 -> 60         0.67577

 Alpha  occ. eigenvalues --  -89.10480 -19.22993 -14.50393 -10.41661 -10.36709
 Alpha  occ. eigenvalues --  -10.36649 -10.36102 -10.33232 -10.32379 -10.32204
 Alpha  occ. eigenvalues --  -10.32149 -10.31869 -10.31773 -10.31068 -10.29501
 Alpha  occ. eigenvalues --  -10.28804  -8.12344  -6.07226  -6.06864  -6.06368
 Alpha  occ. eigenvalues --   -1.12944  -1.10042  -0.97739  -0.94972  -0.92735
 Alpha  occ. eigenvalues --   -0.89079  -0.85931  -0.83919  -0.81624  -0.75972
 Alpha  occ. eigenvalues --   -0.71994  -0.71188  -0.68676  -0.67870  -0.64170
 Alpha  occ. eigenvalues --   -0.60847  -0.59436  -0.57178  -0.55264  -0.55228
 Alpha  occ. eigenvalues --   -0.54507  -0.53510  -0.52744  -0.51113  -0.49737
 Alpha  occ. eigenvalues --   -0.49082  -0.47882  -0.46590  -0.45222  -0.45202
 Alpha  occ. eigenvalues --   -0.44124  -0.43058  -0.41837  -0.40670  -0.36691
 Alpha  occ. eigenvalues --   -0.33596  -0.33255  -0.31266  -0.26667
 Alpha virt. eigenvalues --   -0.01973   0.04081   0.06309   0.06357   0.08602
 Alpha virt. eigenvalues --    0.10464   0.12264   0.14775   0.16005   0.17575
 Alpha virt. eigenvalues --    0.18955   0.20495   0.21292   0.21698   0.22809

 Mulliken charges:
               1
     1  C    0.010294
     2  C   -0.240084
     3  C    0.277454
     4  C   -0.012928
     5  C    0.013312
     6  C   -0.003347
     7  H    0.025342
     8  H    0.029798
     9  H    0.025167
    10  H    0.025217
    11  N   -0.215571
    12  S    0.190375
    13  C   -0.128100
    14  C   -0.017803
    15  C    0.124798
    16  C   -0.033763
    17  H    0.003593
    18  C   -0.008954
    19  C    0.031271
    20  H    0.004783
    21  H    0.006411
    22  H    0.016418
    23  C    0.065399
    24  O   -0.389824
    25  H    0.200741
 Sum of Mulliken charges =  -0.00000

 Dipole moment (field-independent basis, Debye):
    X=              1.0886    Y=             -4.4580    Z=              0.0002  Tot=              4.5890
 Quadrupole moment (field-independent basis, Debye-Ang):
   XX=            -83.0795   YY=            -92.8973   ZZ=           -104.3550
   XY=             -6.8688   XZ=              0.0002   YZ=              0.0009

  Exact polarizability:     354.467    -131.268     311.054      -0.002       0.004      63.398
 Approx polarizability:     275.165     -36.018     266.883      -0.001       0.002      82.313

 ******    1 imaginary frequencies (negative Signs) ******

                      1                      2                      3
                      A                      A                      A
 Frequencies --    -26.6542                36.6423                40.9202
 Red. masses --      7.0982                 6.5682                 3.7566
 Frc consts  --      0.0030                 0.0052                 0.0037
 IR Inten    --      0.2272                 2.0698               342.4812

                      4                      5                      6
                      A                      A                      A
 Frequencies --    107.8976               176.1530               177.0328
 Red. masses --      4.5957                 5.5763                 4.0706
 Frc consts  --      0.0315                 0.1019                 0.0752
 IR Inten    --      0.0068                 0.3008               195.1587

                      7                      8                      9
                      A                      A                      A
 Frequencies --    219.5686               267.5485               281.4231
 Red. masses --      5.3196                 4.7102                 6.2341
 Frc consts  --      0.1511                 0.1987                 0.2909
 IR Inten    --      0.1673                 0.3064                49.6876

                     10                     11                     12
                      A                      A                      A
 Frequencies --    365.1105               396.7093               436.3844
 Red. masses --      5.1518                10.4382                 3.2371
 Frc consts  --      0.4046                 0.9679                 0.3632
 IR Inten    --      0.8789                 2.8146                 5.3153

                     13                     14                     15
                      A                      A                      A
 Frequencies --    460.3436               466.8864               498.3918
 Red. masses --      3.5208                 4.7605                 3.1443
 Frc consts  --      0.4396                 0.6114                 0.4602
 IR Inten    --    337.0144                 0.6609                 0.5673

                     16                     17                     18
                      A                      A                      A
 Frequencies --    505.5382               545.4545               555.6590
 Red. masses --      8.4732                 7.8023                 3.8480
 Frc consts  --      1.2759                 1.3677                 0.7000
 IR Inten    --      2.1477                18.1160                 0.5170

                     19                     20                     21
                      A                      A                      A
 Frequencies --    583.3393               594.4487               661.6126
 Red. masses --      7.8136                 6.2022                 6.8491
 Frc consts  --      1.5665                 1.2913                 1.7664
 IR Inten    --     88.1406                20.0748                26.7522

                     22                     23                     24
                      A                      A                      A
 Frequencies --    693.3821               705.3559               740.0134
 Red. masses --      1.6325                 6.2524                 2.3816
 Frc consts  --      0.4624                 1.8328                 0.7684
 IR Inten    --     36.1223                 8.8241                15.7113

                     25                     26                     27
                      A                      A                      A
 Frequencies --    764.8181               767.8151               795.4923
 Red. masses --      1.7342                 1.8635                 5.2556
 Frc consts  --      0.5977                 0.6473                 1.9595
 IR Inten    --      5.9776                84.0332                32.4353

                     28                     29                     30
                      A                      A                      A
 Frequencies --    822.1561               835.8188               862.5080
 Red. masses --      4.5689                 1.6200                 1.3999
 Frc consts  --      1.8196                 0.6668                 0.6136
 IR Inten    --     97.5849                 0.0035                 0.9311

                     31                     32                     33
                      A                      A                      A
 Frequencies --    910.3456               931.8197               954.4673
 Red. masses --      1.3959                 6.0103                 1.3481
 Frc consts  --      0.6816                 3.0748                 0.7236
 IR Inten    --      6.1419                27.3810                 1.6640

                     34                     35                     36
                      A                      A                      A
 Frequencies --    955.0778              1001.5392              1042.2897
 Red. masses --      1.3729                 1.2951                 2.4905
 Frc consts  --      0.7378                 0.7654                 1.5941
 IR Inten    --      0.7055                 0.0056                21.6825

                     37                     38                     39
                      A                      A                      A
 Frequencies --   1047.1079              1054.7664              1108.3507
 Red. masses --      2.4462                 2.9086                 2.4677
 Frc consts  --      1.5803                 1.9066                 1.7861
 IR Inten    --     38.0084                78.8696               326.8965

                     40                     41                     42
                      A                      A                      A
 Frequencies --   1127.9190              1153.6323              1165.7659
 Red. masses --      1.6225                 1.3391                 1.1903
 Frc consts  --      1.2161                 1.0500                 0.9531
 IR Inten    --     19.8418                 3.1749               177.6566

                     43                     44                     45
                      A                      A                      A
 Frequencies --   1174.4631              1178.5402              1258.1460
 Red. masses --      1.0586                 1.1526                 1.8654
 Frc consts  --      0.8603                 0.9432                 1.7398
 IR Inten    --     64.5952                 3.7937               102.1069

                     46                     47                     48
                      A                      A                      A
 Frequencies --   1262.4664              1302.5560              1335.0844
 Red. masses --      2.6800                 2.0576                 4.2427
 Frc consts  --      2.5167                 2.0569                 4.4556
 IR Inten    --     35.4664                43.1333                67.4987

                     49                     50                     51
                      A                      A                      A
 Frequencies --   1362.7784              1394.7350              1405.0648
 Red. masses --      6.2037                 2.6545                 2.1204
 Frc consts  --      6.7881                 3.0424                 2.4664
 IR Inten    --    180.5426                 8.3127                 6.6093

                     52                     53                     54
                      A                      A                      A
 Frequencies --   1439.9551              1477.7561              1494.4075
 Red. masses --      3.4606                 3.3395                 3.1136
 Frc consts  --      4.2277                 4.2967                 4.0969
 IR Inten    --    733.9704                 9.4531                41.0682

                     55                     56                     57
                      A                      A                      A
 Frequencies --   1535.9167              1550.3396              1573.3663
 Red. masses --      4.8907                 4.9037                 4.8585
 Frc consts  --      6.7976                 6.9443                 7.0862
 IR Inten    --     62.4613               137.2139                73.9848

                     58                     59                     60
                      A                      A                      A
 Frequencies --   1626.7412              1640.7323              1662.7944
 Red. masses --      5.9135                 5.2206                 6.7307
 Frc consts  --      9.2200                 8.2803                10.9645
 IR Inten    --     44.0821               642.3684               162.9610

                     61                     62                     63
                      A                      A                      A
 Frequencies --   2059.0975              3198.2961              3210.6117
 Red. masses --      1.1324                 1.0882                 1.0859
 Frc consts  --      2.8288                 6.5585                 6.5949
 IR Inten    --    796.6979                18.8687                 4.5977

                     64                     65                     66
                      A                      A                      A
 Frequencies --   3214.3944              3219.4627              3224.9611
 Red. masses --      1.0879                 1.0901                 1.0923
 Frc consts  --      6.6226                 6.6574                 6.6936
 IR Inten    --      2.1226                 3.1003                20.6116

                     67                     68                     69
                      A                      A                      A
 Frequencies --   3229.5206              3237.1410              3237.4881
 Red. masses --      1.0956                 1.0995                 1.0989
 Frc consts  --      6.7327                 6.7882                 6.7864
 IR Inten    --      9.5305                29.7386                 3.4526

 - Thermochemistry -
 -------------------
 Temperature   298.150 Kelvin.  Pressure   1.00000 Atm.
 Atom     1 has atomic number  6 and mass  12.00000

 Molecular mass:   227.04049 amu.
 Principal axes and moments of inertia in atomic units:
                           1         2         3
     Eigenvalues --  1339.645986342.589837682.23581
           X           -0.70061   0.71355   0.00000
           Y            0.71355   0.70061  -0.00001
           Z            0.00001   0.00000   1.00000
 This molecule is an asymmetric top.
 Rotational symmetry number  1.
 Warning -- assumption of classical behavior for rotation
           may cause significant error
 Rotational temperatures (Kelvin)      0.06465     0.01366     0.01127
 Rotational constants (GHZ):           1.34718     0.28454     0.23492
    1 imaginary frequencies ignored.
 Zero-point vibrational energy     480446.1 (Joules/Mol)
                                  114.82938 (Kcal/Mol)
 Warning -- explicit consideration of  19 degrees of freedom as
           vibrations may cause significant error
 Vibrational temperatures:     52.72    58.88   155.24   253.44   254.71
          (Kelvin)            315.91   384.94   404.91   525.31   570.78
                              627.86   662.33   671.75   717.07   727.36
                              784.79   799.47   839.30   855.28   951.91
                              997.62  1014.85  1064.71  1100.40  1104.71
                             1144.54  1182.90  1202.56  1240.96  1309.78
                             1340.68  1373.27  1374.14  1440.99  1499.62
                             1506.55  1517.57  1594.67  1622.82  1659.82
                             1677.28  1689.79  1695.66  1810.19  1816.41
                             1874.09  1920.89  1960.73  2006.71  2021.57
                             2071.77  2126.16  2150.12  2209.84  2230.59
                             2263.72  2340.52  2360.65  2392.39  2962.58
                             4601.63  4619.35  4624.80  4632.09  4640.00
                             4646.56  4657.52  4658.02

 Zero-point correction=                           0.182992 (Hartree/Particle)
 Thermal correction to Energy=                    0.194949
 Thermal correction to Enthalpy=                  0.195893
 Thermal correction to Gibbs Free Energy=         0.143599
 Sum of electronic and zero-point Energies=          -1028.509615
 Sum of electronic and thermal Energies=             -1028.497659
 Sum of electronic and thermal Enthalpies=           -1028.496715
 Sum of electronic and thermal Free Energies=        -1028.549009

                     E (Thermal)             CV                S
                      KCal/Mol        Cal/Mol-Kelvin    Cal/Mol-Kelvin
 Total                  122.332             48.097            110.062
 Electronic               0.000              0.000              0.000
 Translational            0.889              2.981             42.162
 Rotational               0.889              2.981             32.545
 Vibrational            120.555             42.136             35.355
 Vibration     1          0.594              1.982              5.433
 Vibration     2          0.594              1.981              5.214
 Vibration     3          0.606              1.943              3.306
 Vibration     4          0.628              1.872              2.369
 Vibration     5          0.628              1.871              2.359
 Vibration     6          0.647              1.811              1.963
 Vibration     7          0.673              1.733              1.612
 Vibration     8          0.681              1.708              1.525
 Vibration     9          0.738              1.544              1.100
 Vibration    10          0.763              1.477              0.975
 Vibration    11          0.797              1.391              0.838
 Vibration    12          0.818              1.338              0.765
 Vibration    13          0.824              1.324              0.746
 Vibration    14          0.854              1.254              0.662
 Vibration    15          0.861              1.238              0.644
 Vibration    16          0.901              1.150              0.554
 Vibration    17          0.911              1.127              0.533
 Vibration    18          0.940              1.067              0.479
 Vibration    19          0.952              1.044              0.459

 Optimization completed.
    -- Stationary point found.
 Normal termination of Gaussian 16 at Mon Jul 13 16:10:12 2020.
