 Gaussian 16, Revision C.01,
 Gaussian 16:  ES64L-G16RevC.01  3-Jul-2019

 ----------------------------------------------------------------------
 #p opt=addgic freq td wb97xd/cc-pvdz nosymm int=ultrafine scrf=(solven
 t=CarbonTetraChloride)
 ----------------------------------------------------------------------

 ------------------------------------------------
 NM 2D-scan of HBT TD-WB97XD pVDZ in CTC Relaxed.
 ------------------------------------------------
 Symbolic Z-matrix:
 Charge =  0 Multiplicity = 1

 SCF Done:  E(RwB97XD) =  -1028.80250225     A.U. after   16 cycles
 Total Energy, E(TD-HF/TD-DFT) =  -1028.69237657
 SCF Done:  E(RwB97XD) =  -1028.79672568     A.U. after   14 cycles
 Total Energy, E(TD-HF/TD-DFT) =  -1028.69398676
 SCF Done:  E(RwB97XD) =  -1028.80582028     A.U. after   13 cycles
 Total Energy, E(TD-HF/TD-DFT) =  -1028.69882558
 SCF Done:  E(RwB97XD) =  -1028.80636845     A.U. after   11 cycles
 Total Energy, E(TD-HF/TD-DFT) =  -1028.69888796
 SCF Done:  E(RwB97XD) =  -1028.80632990     A.U. after    9 cycles
 Total Energy, E(TD-HF/TD-DFT) =  -1028.69889051
 Optimization completed.
    -- Stationary point found.
 Normal termination of Gaussian 16 at Mon Jul 13 16:26:45 2020.

 ----------------------------------------------------------------------
 #P Geom=AllCheck Guess=TCheck SCRF=Check GenChk RwB97XD TD(FC,Read)/CC
 -pVDZ Freq
 ----------------------------------------------------------------------

 Structure from the checkpoint file:  "config_9_6.chk"
 ------------------------------------------------
 NM 2D-scan of HBT TD-WB97XD pVDZ in CTC Relaxed.
 ------------------------------------------------
 Charge =  0 Multiplicity = 1

                          Input orientation:
 ---------------------------------------------------------------------
 Center     Atomic      Atomic             Coordinates (Angstroms)
 Number     Number       Type             X           Y           Z
 ---------------------------------------------------------------------
      1          6           0        1.703169   -3.284597   -0.000044
      2          6           0        1.006244   -2.077691   -0.000027
      3          6           0        1.707694   -0.850794   -0.000009
      4          6           0        3.109913   -0.817609   -0.000002
      5          6           0        3.791335   -2.024298   -0.000019
      6          6           0        3.099765   -3.245666   -0.000041
      7          1           0        1.174679   -4.238536   -0.000058
      8          1           0        3.632101    0.139466    0.000016
      9          1           0        4.882426   -2.023656   -0.000014
     10          1           0        3.658721   -4.182180   -0.000053
     11          7           0        0.885479    0.225616    0.000004
     12         16           0       -0.739188   -1.780238   -0.000017
     13          6           0       -1.394825    1.045019    0.000015
     14          6           0       -2.777276    0.869848    0.000012
     15          6           0       -0.868977    2.442308    0.000027
     16          6           0       -3.665114    1.973152    0.000036
     17          1           0       -3.195339   -0.139742   -0.000004
     18          6           0       -1.810721    3.510173    0.000039
     19          6           0       -3.187123    3.285313    0.000051
     20          1           0       -4.739249    1.781931    0.000037
     21          1           0       -1.391097    4.517395    0.000040
     22          1           0       -3.883040    4.125030    0.000064
     23          6           0       -0.447918   -0.033550   -0.000002
     24          8           0        0.375498    2.692920   -0.000021
     25          1           0        1.090115    1.267481    0.000051
 ---------------------------------------------------------------------

 SCF Done:  E(RwB97XD) =  -1028.80632990     A.U. after    1 cycles

 Excitation energies and oscillator strengths:

 Excited state symmetry could not be determined.
 Excited State   1:      Singlet-?Sym    2.9236 eV  424.08 nm  f=0.4403  <S**2>=0.000
      59 -> 60         0.69599
 This state for optimization and/or second-order correction.
 Total Energy, E(TD-HF/TD-DFT) =  -1028.69889055
 Copying the excited state density for this state as the 1-particle RhoCI density.

 Excited state symmetry could not be determined.
 Excited State   2:      Singlet-?Sym    3.8002 eV  326.26 nm  f=0.0000  <S**2>=0.000
      57 -> 60         0.68388
      57 -> 62         0.11656
      57 -> 64         0.11713

 Excited state symmetry could not be determined.
 Excited State   3:      Singlet-?Sym    4.3330 eV  286.14 nm  f=0.4339  <S**2>=0.000
      58 -> 60         0.67968

 Alpha  occ. eigenvalues --  -89.10646 -19.21623 -14.51741 -10.42033 -10.37226
 Alpha  occ. eigenvalues --  -10.36310 -10.36169 -10.33436 -10.32806 -10.32505
 Alpha  occ. eigenvalues --  -10.32363 -10.31603 -10.31423 -10.30825 -10.29274
 Alpha  occ. eigenvalues --  -10.28447  -8.12565  -6.07447  -6.07077  -6.06585
 Alpha  occ. eigenvalues --   -1.12913  -1.09626  -0.98220  -0.95081  -0.93139
 Alpha  occ. eigenvalues --   -0.89162  -0.86415  -0.83962  -0.81267  -0.76024
 Alpha  occ. eigenvalues --   -0.72796  -0.71805  -0.68835  -0.67678  -0.64836
 Alpha  occ. eigenvalues --   -0.60944  -0.59673  -0.56781  -0.55779  -0.55440
 Alpha  occ. eigenvalues --   -0.54889  -0.53645  -0.53059  -0.50871  -0.49259
 Alpha  occ. eigenvalues --   -0.48832  -0.48248  -0.46858  -0.45424  -0.44906
 Alpha  occ. eigenvalues --   -0.44335  -0.43009  -0.42034  -0.40354  -0.36811
 Alpha  occ. eigenvalues --   -0.33571  -0.32269  -0.31411  -0.26099
 Alpha virt. eigenvalues --   -0.02065   0.03791   0.05989   0.06275   0.09085
 Alpha virt. eigenvalues --    0.10579   0.12595   0.14643   0.16093   0.17347
 Alpha virt. eigenvalues --    0.18859   0.20197   0.21031   0.21415   0.23039

 Mulliken charges:
               1
     1  C    0.013751
     2  C   -0.243554
     3  C    0.267143
     4  C   -0.010645
     5  C    0.013526
     6  C   -0.000715
     7  H    0.026312
     8  H    0.031922
     9  H    0.027126
    10  H    0.026539
    11  N   -0.146087
    12  S    0.198567
    13  C   -0.113615
    14  C   -0.022987
    15  C    0.120681
    16  C   -0.036043
    17  H    0.003544
    18  C   -0.020229
    19  C    0.032772
    20  H    0.002864
    21  H    0.002691
    22  H    0.014866
    23  C    0.060955
    24  O   -0.408539
    25  H    0.159155
 Sum of Mulliken charges =  -0.00000

 Dipole moment (field-independent basis, Debye):
    X=              1.6232    Y=             -5.3220    Z=              0.0001  Tot=              5.5640
 Quadrupole moment (field-independent basis, Debye-Ang):
   XX=            -82.5754   YY=            -94.7435   ZZ=           -104.2731
   XY=             -6.7477   XZ=              0.0001   YZ=              0.0005

  Exact polarizability:     349.786    -124.568     301.929      -0.002       0.003      63.319
 Approx polarizability:     274.298     -36.861     266.476      -0.001       0.002      82.148

 ******    1 imaginary frequencies (negative Signs) ******

                      1                      2                      3
                      A                      A                      A
 Frequencies --    -37.7001                39.5039               109.4829
 Red. masses --      6.5915                 6.4297                 4.9120
 Frc consts  --      0.0055                 0.0059                 0.0347
 IR Inten    --      1.1191                 1.8362                 0.1713

                      4                      5                      6
                      A                      A                      A
 Frequencies --    117.6112               177.0782               222.0183
 Red. masses --      5.7300                 5.4416                 5.3824
 Frc consts  --      0.0467                 0.1005                 0.1563
 IR Inten    --      8.9586                 0.1354                 0.2132

                      7                      8                      9
                      A                      A                      A
 Frequencies --    265.2789               269.8083               320.9112
 Red. masses --      7.6799                 4.6547                 7.1336
 Frc consts  --      0.3184                 0.1996                 0.4328
 IR Inten    --      1.1803                 0.4632                 9.9813

                     10                     11                     12
                      A                      A                      A
 Frequencies --    356.8811               391.8685               434.3982
 Red. masses --      4.9804                 9.4311                 3.3317
 Frc consts  --      0.3737                 0.8533                 0.3704
 IR Inten    --      0.9969                 3.8364                 4.2947

                     13                     14                     15
                      A                      A                      A
 Frequencies --    458.3345               504.2329               505.8850
 Red. masses --      4.6622                 8.7241                 3.1835
 Frc consts  --      0.5770                 1.3069                 0.4800
 IR Inten    --      1.9746                 6.9028                 0.5404

                     16                     17                     18
                      A                      A                      A
 Frequencies --    540.3650               556.7325               566.9440
 Red. masses --      8.7349                 3.8445                 6.6747
 Frc consts  --      1.5027                 0.7021                 1.2640
 IR Inten    --      4.5711                 0.6618                12.8851

                     19                     20                     21
                      A                      A                      A
 Frequencies --    572.5734               635.6808               691.5977
 Red. masses --      7.5755                 6.0024                 1.5784
 Frc consts  --      1.4633                 1.4291                 0.4448
 IR Inten    --     37.7014                90.6569                36.8353

                     22                     23                     24
                      A                      A                      A
 Frequencies --    703.4525               717.6038               742.3285
 Red. masses --      7.0532                 7.3387                 2.6147
 Frc consts  --      2.0564                 2.2266                 0.8489
 IR Inten    --      1.4174                 5.9868                13.2443

                     25                     26                     27
                      A                      A                      A
 Frequencies --    763.6827               768.2281               812.7430
 Red. masses --      1.7556                 1.6742                 6.4141
 Frc consts  --      0.6032                 0.5821                 2.4963
 IR Inten    --      1.8082                87.7352                15.6930

                     28                     29                     30
                      A                      A                      A
 Frequencies --    838.4750               866.0503               877.2943
 Red. masses --      1.7074                 1.3853                 4.5382
 Frc consts  --      0.7072                 0.6122                 2.0579
 IR Inten    --      0.0175                 0.4934                14.2051

                     31                     32                     33
                      A                      A                      A
 Frequencies --    906.9097               953.6403               953.8429
 Red. masses --      1.4171                 1.3647                 5.6374
 Frc consts  --      0.6867                 0.7312                 3.0219
 IR Inten    --      6.3682                 0.0467                 2.9851

                     34                     35                     36
                      A                      A                      A
 Frequencies --    957.8621               988.1724              1004.3030
 Red. masses --      1.3475                 1.0752                 1.2908
 Frc consts  --      0.7284                 0.6186                 0.7671
 IR Inten    --      1.5224                71.3650                 0.8998

                     37                     38                     39
                      A                      A                      A
 Frequencies --   1044.8362              1052.5777              1080.5850
 Red. masses --      2.1765                 2.2041                 4.0815
 Frc consts  --      1.4000                 1.4387                 2.8080
 IR Inten    --      0.7906                 8.3291                 1.7796

                     40                     41                     42
                      A                      A                      A
 Frequencies --   1115.6231              1152.4354              1161.8750
 Red. masses --      1.5280                 1.3208                 1.2052
 Frc consts  --      1.1205                 1.0335                 0.9585
 IR Inten    --     40.4575                15.3719                65.6971

                     43                     44                     45
                      A                      A                      A
 Frequencies --   1179.7990              1229.2497              1255.2798
 Red. masses --      1.1380                 2.0081                 2.2882
 Frc consts  --      0.9333                 1.7878                 2.1243
 IR Inten    --     29.9126                81.5907                45.3001

                     46                     47                     48
                      A                      A                      A
 Frequencies --   1284.9479              1316.3547              1337.9307
 Red. masses --      1.6057                 1.9020                 5.2692
 Frc consts  --      1.5621                 1.9418                 5.5573
 IR Inten    --    102.5239               129.9171                11.5748

                     49                     50                     51
                      A                      A                      A
 Frequencies --   1367.3498              1394.0961              1401.5498
 Red. masses --      5.5409                 2.7039                 2.2897
 Frc consts  --      6.1036                 3.0962                 2.6500
 IR Inten    --    132.8980                23.0906                 2.8849

                     52                     53                     54
                      A                      A                      A
 Frequencies --   1436.3295              1484.0390              1505.8703
 Red. masses --      3.5355                 2.6699                 3.0367
 Frc consts  --      4.2974                 3.4644                 4.0573
 IR Inten    --    431.9938                 2.8713                25.8133

                     55                     56                     57
                      A                      A                      A
 Frequencies --   1534.5516              1561.4436              1586.0659
 Red. masses --      4.3005                 5.0500                 4.0788
 Frc consts  --      5.9667                 7.2543                 6.0455
 IR Inten    --     49.4525               175.2290                61.9765

                     58                     59                     60
                      A                      A                      A
 Frequencies --   1622.3519              1647.5119              1669.1860
 Red. masses --      6.0768                 5.8982                 6.7127
 Frc consts  --      9.4236                 9.4326                11.0194
 IR Inten    --    252.8638                68.7048               201.4876

                     61                     62                     63
                      A                      A                      A
 Frequencies --   2877.8716              3191.8623              3211.1944
 Red. masses --      1.0971                 1.0891                 1.0864
 Frc consts  --      5.3534                 6.5376                 6.6004
 IR Inten    --   1260.6766                24.4173                 1.2042

                     64                     65                     66
                      A                      A                      A
 Frequencies --   3212.1529              3222.8101              3223.0013
 Red. masses --      1.0864                 1.0903                 1.0922
 Frc consts  --      6.6042                 6.6720                 6.6847
 IR Inten    --      5.4540                 2.7928                14.5529

                     67                     68                     69
                      A                      A                      A
 Frequencies --   3232.7439              3234.6827              3239.5957
 Red. masses --      1.0958                 1.0990                 1.0996
 Frc consts  --      6.7471                 6.7747                 6.7991
 IR Inten    --      7.7705                24.2146                13.0284

 - Thermochemistry -
 -------------------
 Temperature   298.150 Kelvin.  Pressure   1.00000 Atm.
 Atom     1 has atomic number  6 and mass  12.00000

 Molecular mass:   227.04049 amu.
 Principal axes and moments of inertia in atomic units:
                           1         2         3
     Eigenvalues --  1318.819786400.697477719.51726
           X           -0.70159   0.71258   0.00000
           Y            0.71258   0.70159  -0.00001
           Z            0.00001   0.00000   1.00000
 This molecule is an asymmetric top.
 Rotational symmetry number  1.
 Warning -- assumption of classical behavior for rotation
           may cause significant error
 Rotational temperatures (Kelvin)      0.06568     0.01353     0.01122
 Rotational constants (GHZ):           1.36845     0.28196     0.23379
    1 imaginary frequencies ignored.
 Zero-point vibrational energy     488432.5 (Joules/Mol)
                                  116.73816 (Kcal/Mol)
 Warning -- explicit consideration of  18 degrees of freedom as
           vibrations may cause significant error
 Vibrational temperatures:     56.84   157.52   169.22   254.78   319.43
          (Kelvin)            381.68   388.19   461.72   513.47   563.81
                              625.00   659.44   725.48   727.86   777.46
                              801.01   815.71   823.81   914.60   995.05
                             1012.11  1032.47  1068.05  1098.77  1105.31
                             1169.36  1206.38  1246.05  1262.23  1304.84
                             1372.08  1372.37  1378.15  1421.76  1444.97
                             1503.29  1514.42  1554.72  1605.13  1658.10
                             1671.68  1697.47  1768.62  1806.07  1848.75
                             1893.94  1924.98  1967.31  2005.79  2016.52
                             2066.56  2135.20  2166.61  2207.88  2246.57
                             2282.00  2334.20  2370.40  2401.59  4140.62
                             4592.38  4620.19  4621.57  4636.90  4637.18
                             4651.20  4653.99  4661.06

 Zero-point correction=                           0.186034 (Hartree/Particle)
 Thermal correction to Energy=                    0.197527
 Thermal correction to Enthalpy=                  0.198472
 Thermal correction to Gibbs Free Energy=         0.147884
 Sum of electronic and zero-point Energies=          -1028.512856
 Sum of electronic and thermal Energies=             -1028.501363
 Sum of electronic and thermal Enthalpies=           -1028.500419
 Sum of electronic and thermal Free Energies=        -1028.551007

                     E (Thermal)             CV                S
                      KCal/Mol        Cal/Mol-Kelvin    Cal/Mol-Kelvin
 Total                  123.950             47.351            106.471
 Electronic               0.000              0.000              0.000
 Translational            0.889              2.981             42.162
 Rotational               0.889              2.981             32.544
 Vibrational            122.173             41.390             31.765
 Vibration     1          0.594              1.981              5.284
 Vibration     2          0.606              1.942              3.278
 Vibration     3          0.608              1.935              3.139
 Vibration     4          0.628              1.871              2.359
 Vibration     5          0.648              1.808              1.943
 Vibration     6          0.671              1.737              1.627
 Vibration     7          0.674              1.729              1.597
 Vibration     8          0.706              1.634              1.305
 Vibration     9          0.732              1.561              1.136
 Vibration    10          0.759              1.488              0.993
 Vibration    11          0.795              1.395              0.844
 Vibration    12          0.816              1.342              0.771
 Vibration    13          0.860              1.241              0.648
 Vibration    14          0.861              1.237              0.644
 Vibration    15          0.895              1.161              0.565
 Vibration    16          0.912              1.125              0.530
 Vibration    17          0.923              1.103              0.510
 Vibration    18          0.929              1.091              0.499

 Optimization completed.
    -- Stationary point found.
 Normal termination of Gaussian 16 at Mon Jul 13 16:44:30 2020.
