 Gaussian 16, Revision C.01,
 Gaussian 16:  ES64L-G16RevC.01  3-Jul-2019

 ----------------------------------------------------------------------
 #p opt=addgic freq td wb97xd/cc-pvdz nosymm int=ultrafine scrf=(solven
 t=CarbonTetraChloride)
 ----------------------------------------------------------------------

 ------------------------------------------------
 NM 2D-scan of HBT TD-WB97XD pVDZ in CTC Relaxed.
 ------------------------------------------------
 Symbolic Z-matrix:
 Charge =  0 Multiplicity = 1

 SCF Done:  E(RwB97XD) =  -1028.31469864     A.U. after   15 cycles
 Total Energy, E(TD-HF/TD-DFT) =  -1028.18355744
 SCF Done:  E(RwB97XD) =  -1028.68892036     A.U. after   13 cycles
 Total Energy, E(TD-HF/TD-DFT) =  -1028.55935489
 SCF Done:  E(RwB97XD) =  -1028.80156340     A.U. after   15 cycles
 Total Energy, E(TD-HF/TD-DFT) =  -1028.67580211
 SCF Done:  E(RwB97XD) =  -1028.80596408     A.U. after   13 cycles
 Total Energy, E(TD-HF/TD-DFT) =  -1028.67942774
 SCF Done:  E(RwB97XD) =  -1028.80656810     A.U. after   11 cycles
 Total Energy, E(TD-HF/TD-DFT) =  -1028.67970321
 SCF Done:  E(RwB97XD) =  -1028.80676089     A.U. after   10 cycles
 Total Energy, E(TD-HF/TD-DFT) =  -1028.67972919
 SCF Done:  E(RwB97XD) =  -1028.80678923     A.U. after    9 cycles
 Total Energy, E(TD-HF/TD-DFT) =  -1028.67973269
 Optimization completed.
    -- Stationary point found.
 Normal termination of Gaussian 16 at Mon Jul 13 20:32:00 2020.

 ----------------------------------------------------------------------
 #P Geom=AllCheck Guess=TCheck SCRF=Check GenChk RwB97XD TD(FC,Read)/CC
 -pVDZ Freq
 ----------------------------------------------------------------------

 Structure from the checkpoint file:  "config_1_4.chk"
 ------------------------------------------------
 NM 2D-scan of HBT TD-WB97XD pVDZ in CTC Relaxed.
 ------------------------------------------------
 Charge =  0 Multiplicity = 1

                          Input orientation:
 ---------------------------------------------------------------------
 Center     Atomic      Atomic             Coordinates (Angstroms)
 Number     Number       Type             X           Y           Z
 ---------------------------------------------------------------------
      1          6           0        1.726577   -3.323696   -0.000017
      2          6           0        0.959351   -2.154331   -0.000017
      3          6           0        1.633152   -0.879779   -0.000016
      4          6           0        3.052741   -0.803088   -0.000010
      5          6           0        3.783057   -1.962562   -0.000011
      6          6           0        3.124176   -3.215948   -0.000016
      7          1           0        1.258888   -4.309380   -0.000018
      8          1           0        3.513201    0.185331   -0.000007
      9          1           0        4.873795   -1.927209   -0.000008
     10          1           0        3.720749   -4.129882   -0.000016
     11          7           0        0.891024    0.214346   -0.000019
     12         16           0       -0.783816   -1.875206   -0.000016
     13          6           0       -1.364390    1.026931   -0.000024
     14          6           0       -2.795426    0.890383   -0.000034
     15          6           0       -0.896414    2.444541    0.000006
     16          6           0       -3.640458    1.983585    0.000025
     17          1           0       -3.220478   -0.115126   -0.000078
     18          6           0       -1.787119    3.518589    0.000081
     19          6           0       -3.150259    3.313857    0.000095
     20          1           0       -4.718885    1.816941    0.000022
     21          1           0       -1.343955    4.514663    0.000116
     22          1           0       -3.837806    4.159882    0.000151
     23          6           0       -0.440065   -0.046543   -0.000023
     24          8           0        0.369905    2.863751   -0.000028
     25          1           0        0.966499    2.098218   -0.000036
 ---------------------------------------------------------------------

 SCF Done:  E(RwB97XD) =  -1028.80678923     A.U. after    1 cycles

 Excitation energies and oscillator strengths:

 Excited state symmetry could not be determined.
 Excited State   1:      Singlet-?Sym    3.4574 eV  358.61 nm  f=0.7534  <S**2>=0.000
      59 -> 60        -0.69057
 This state for optimization and/or second-order correction.
 Total Energy, E(TD-HF/TD-DFT) =  -1028.67973270
 Copying the excited state density for this state as the 1-particle RhoCI density.

 Excited state symmetry could not be determined.
 Excited State   2:      Singlet-?Sym    4.3745 eV  283.43 nm  f=0.1624  <S**2>=0.000
      57 -> 60        -0.33133
      58 -> 60        -0.56735
      58 -> 64        -0.10498
      59 -> 63         0.16292

 Excited state symmetry could not be determined.
 Excited State   3:      Singlet-?Sym    4.5078 eV  275.05 nm  f=0.0646  <S**2>=0.000
      57 -> 60         0.53038
      57 -> 64        -0.13572
      58 -> 60        -0.31640
      58 -> 61        -0.10415
      59 -> 61         0.24158

 Alpha  occ. eigenvalues --  -89.09087 -19.29353 -14.46632 -10.39928 -10.38551
 Alpha  occ. eigenvalues --  -10.34963 -10.34493 -10.33550 -10.32399 -10.32263
 Alpha  occ. eigenvalues --  -10.31873 -10.31403 -10.31123 -10.31050 -10.30564
 Alpha  occ. eigenvalues --  -10.30244  -8.10850  -6.05719  -6.05388  -6.04894
 Alpha  occ. eigenvalues --   -1.17588  -1.07958  -0.96574  -0.95430  -0.91018
 Alpha  occ. eigenvalues --   -0.88722  -0.85117  -0.84147  -0.82141  -0.76039
 Alpha  occ. eigenvalues --   -0.71128  -0.70091  -0.69113  -0.68078  -0.63241
 Alpha  occ. eigenvalues --   -0.59869  -0.58909  -0.58276  -0.55906  -0.54386
 Alpha  occ. eigenvalues --   -0.53254  -0.53048  -0.52483  -0.50839  -0.50472
 Alpha  occ. eigenvalues --   -0.48880  -0.48115  -0.45744  -0.45400  -0.44659
 Alpha  occ. eigenvalues --   -0.43607  -0.42889  -0.42030  -0.39747  -0.37517
 Alpha  occ. eigenvalues --   -0.36362  -0.32024  -0.31583  -0.27813
 Alpha virt. eigenvalues --   -0.01935   0.05283   0.06736   0.06823   0.07114
 Alpha virt. eigenvalues --    0.11389   0.12348   0.15082   0.15704   0.17532
 Alpha virt. eigenvalues --    0.18558   0.20276   0.21684   0.22231   0.22801

 Mulliken charges:
               1
     1  C    0.002167
     2  C   -0.210541
     3  C    0.218193
     4  C   -0.014240
     5  C    0.010254
     6  C   -0.011554
     7  H    0.019638
     8  H    0.012908
     9  H    0.017199
    10  H    0.020137
    11  N   -0.324452
    12  S    0.136651
    13  C   -0.086023
    14  C   -0.013101
    15  C    0.077609
    16  C   -0.010609
    17  H    0.012249
    18  C    0.023295
    19  C    0.018876
    20  H    0.012764
    21  H    0.020292
    22  H    0.022414
    23  C    0.064919
    24  O   -0.174571
    25  H    0.155526
 Sum of Mulliken charges =  -0.00000

 Dipole moment (field-independent basis, Debye):
    X=             -0.2950    Y=             -1.2962    Z=              0.0000  Tot=              1.3294
 Quadrupole moment (field-independent basis, Debye-Ang):
   XX=            -83.0295   YY=            -88.7565   ZZ=           -104.6423
   XY=             -6.5073   XZ=             -0.0001   YZ=              0.0005

  Exact polarizability:     412.594    -203.374     407.394      -0.002       0.004      63.690
 Approx polarizability:     283.815     -37.767     266.768      -0.001       0.003      82.579

                      1                      2                      3
                      A                      A                      A
 Frequencies --     16.5350                68.8486                99.7663
 Red. masses --      5.8246                 5.7552                 5.5867
 Frc consts  --      0.0009                 0.0161                 0.0328
 IR Inten    --      0.8982                 0.0034                 1.9115

                      4                      5                      6
                      A                      A                      A
 Frequencies --    107.0160               183.7713               224.8076
 Red. masses --      4.5975                 6.8498                 5.4908
 Frc consts  --      0.0310                 0.1363                 0.1635
 IR Inten    --      0.5855                 0.5345                 0.0000

                      7                      8                      9
                      A                      A                      A
 Frequencies --    243.6702               264.7600               272.9437
 Red. masses --      8.2179                 4.7688                 6.4090
 Frc consts  --      0.2875                 0.1970                 0.2813
 IR Inten    --      9.6970                 0.2938                17.2093

                     10                     11                     12
                      A                      A                      A
 Frequencies --    383.4631               398.8631               437.1949
 Red. masses --      8.3662                 4.6899                 3.2986
 Frc consts  --      0.7248                 0.4396                 0.3715
 IR Inten    --     13.5275                 0.1544                 4.7330

                     13                     14                     15
                      A                      A                      A
 Frequencies --    467.7090               493.4588               494.7140
 Red. masses --      4.6157                 4.2774                 9.2902
 Frc consts  --      0.5949                 0.6137                 1.3396
 IR Inten    --     13.8859                 0.1410                 1.8554

                     16                     17                     18
                      A                      A                      A
 Frequencies --    508.1217               522.7343               541.5710
 Red. masses --      3.1186                 8.2867                 3.6573
 Frc consts  --      0.4744                 1.3341                 0.6320
 IR Inten    --      0.8473                26.3743                 2.0104

                     19                     20                     21
                      A                      A                      A
 Frequencies --    578.0619               627.9569               646.4608
 Red. masses --      7.8190                 7.7988                 6.9595
 Frc consts  --      1.5394                 1.8119                 1.7136
 IR Inten    --     97.3987                49.9870                 0.8727

                     22                     23                     24
                      A                      A                      A
 Frequencies --    661.3685               697.8093               729.7324
 Red. masses --      1.1372                 6.7337                 1.9197
 Frc consts  --      0.2931                 1.9319                 0.6023
 IR Inten    --    115.8669                 8.0708                22.5363

                     25                     26                     27
                      A                      A                      A
 Frequencies --    733.9099               746.2557               772.0259
 Red. masses --      2.4022                 1.5277                 2.0437
 Frc consts  --      0.7623                 0.5013                 0.7177
 IR Inten    --      4.5950                31.1266                59.8423

                     28                     29                     30
                      A                      A                      A
 Frequencies --    789.5246               832.1292               857.1156
 Red. masses --      6.9359                 1.5250                 1.4404
 Frc consts  --      2.5473                 0.6222                 0.6235
 IR Inten    --     20.7314                 0.0421                 1.5524

                     31                     32                     33
                      A                      A                      A
 Frequencies --    882.7545               932.4663               933.8312
 Red. masses --      6.3085                 1.3406                 7.0479
 Frc consts  --      2.8964                 0.6868                 3.6212
 IR Inten    --     52.0234                 3.0848                 9.8053

                     34                     35                     36
                      A                      A                      A
 Frequencies --    952.2978               971.3462               998.8271
 Red. masses --      1.3448                 1.3360                 1.3024
 Frc consts  --      0.7185                 0.7427                 0.7656
 IR Inten    --      1.9431                 0.0020                 0.0215

                     37                     38                     39
                      A                      A                      A
 Frequencies --   1032.6382              1041.0481              1062.3347
 Red. masses --      2.1603                 2.3179                 5.2504
 Frc consts  --      1.3573                 1.4801                 3.4911
 IR Inten    --      1.6880                 6.7013                20.9721

                     40                     41                     42
                      A                      A                      A
 Frequencies --   1130.3795              1146.1268              1173.8984
 Red. masses --      1.6031                 1.2916                 1.1847
 Frc consts  --      1.2069                 0.9996                 0.9619
 IR Inten    --     20.2934                16.5200                40.6591

                     43                     44                     45
                      A                      A                      A
 Frequencies --   1178.0870              1206.8594              1221.3045
 Red. masses --      1.1786                 2.2406                 2.0396
 Frc consts  --      0.9637                 1.9228                 1.7924
 IR Inten    --      0.3401               217.2089                31.3872

                     46                     47                     48
                      A                      A                      A
 Frequencies --   1248.6516              1271.6482              1349.5829
 Red. masses --      2.4432                 1.6294                 2.8650
 Frc consts  --      2.2444                 1.5524                 3.0745
 IR Inten    --    232.6256                 4.1083               111.0057

                     49                     50                     51
                      A                      A                      A
 Frequencies --   1362.5845              1388.1355              1414.0587
 Red. masses --      5.2824                 2.0363                 2.2082
 Frc consts  --      5.7784                 2.3119                 2.6015
 IR Inten    --     22.9538               296.7687                93.7778

                     52                     53                     54
                      A                      A                      A
 Frequencies --   1451.1761              1468.5993              1521.6288
 Red. masses --      2.2225                 3.0102                 5.0850
 Frc consts  --      2.7576                 3.8252                 6.9368
 IR Inten    --     41.0941                20.7525                74.7918

                     55                     56                     57
                      A                      A                      A
 Frequencies --   1537.0050              1542.9011              1566.0729
 Red. masses --      5.8001                 5.1897                 4.4416
 Frc consts  --      8.0730                 7.2790                 6.4183
 IR Inten    --    632.8383                 3.6950                22.9957

                     58                     59                     60
                      A                      A                      A
 Frequencies --   1593.0364              1643.6473              1656.1556
 Red. masses --      5.8225                 5.5787                 5.9501
 Frc consts  --      8.7059                 8.8797                 9.6156
 IR Inten    --     93.4314               300.2157               233.4232

                     61                     62                     63
                      A                      A                      A
 Frequencies --   3202.5746              3207.2693              3215.4830
 Red. masses --      1.0869                 1.0858                 1.0897
 Frc consts  --      6.5681                 6.5805                 6.6383
 IR Inten    --      1.8855                 5.8005                 4.3246

                     64                     65                     66
                      A                      A                      A
 Frequencies --   3217.4052              3226.0966              3226.4963
 Red. masses --      1.0892                 1.0935                 1.0951
 Frc consts  --      6.6428                 6.7054                 6.7167
 IR Inten    --      2.2386                20.2094                14.8065

                     67                     68                     69
                      A                      A                      A
 Frequencies --   3234.8077              3238.9173              3631.8882
 Red. masses --      1.0999                 1.0994                 1.0669
 Frc consts  --      6.7810                 6.7954                 8.2913
 IR Inten    --     40.5180                27.2425                 0.0856

 - Thermochemistry -
 -------------------
 Temperature   298.150 Kelvin.  Pressure   1.00000 Atm.
 Atom     1 has atomic number  6 and mass  12.00000

 Molecular mass:   227.04049 amu.
 Principal axes and moments of inertia in atomic units:
                           1         2         3
     Eigenvalues --  1394.822066412.052007806.87405
           X           -0.68994   0.72386   0.00000
           Y            0.72386   0.68994  -0.00001
           Z            0.00001   0.00000   1.00000
 This molecule is an asymmetric top.
 Rotational symmetry number  1.
 Warning -- assumption of classical behavior for rotation
           may cause significant error
 Rotational temperatures (Kelvin)      0.06210     0.01351     0.01109
 Rotational constants (GHZ):           1.29389     0.28146     0.23117
 Zero-point vibrational energy     488568.8 (Joules/Mol)
                                  116.77074 (Kcal/Mol)
 Warning -- explicit consideration of  19 degrees of freedom as
           vibrations may cause significant error
 Vibrational temperatures:     23.79    99.06   143.54   153.97   264.41
          (Kelvin)            323.45   350.59   380.93   392.71   551.72
                              573.88   629.03   672.93   709.98   711.78
                              731.07   752.10   779.20   831.70   903.49
                              930.11   951.56  1003.99  1049.92  1055.93
                             1073.70  1110.77  1135.95  1197.25  1233.20
                             1270.09  1341.61  1343.57  1370.14  1397.55
                             1437.09  1485.74  1497.84  1528.46  1626.36
                             1649.02  1688.98  1695.00  1736.40  1757.18
                             1796.53  1829.62  1941.75  1960.46  1997.22
                             2034.52  2087.92  2112.99  2189.28  2211.41
                             2219.89  2253.23  2292.02  2364.84  2382.84
                             4607.79  4614.55  4626.36  4629.13  4641.63
                             4642.21  4654.17  4660.08  5225.48

 Zero-point correction=                           0.186086 (Hartree/Particle)
 Thermal correction to Energy=                    0.198712
 Thermal correction to Enthalpy=                  0.199656
 Thermal correction to Gibbs Free Energy=         0.145661
 Sum of electronic and zero-point Energies=          -1028.493647
 Sum of electronic and thermal Energies=             -1028.481021
 Sum of electronic and thermal Enthalpies=           -1028.480077
 Sum of electronic and thermal Free Energies=        -1028.534072

                     E (Thermal)             CV                S
                      KCal/Mol        Cal/Mol-Kelvin    Cal/Mol-Kelvin
 Total                  124.694             50.396            113.642
 Electronic               0.000              0.000              0.000
 Translational            0.889              2.981             42.162
 Rotational               0.889              2.981             32.612
 Vibrational            122.916             44.435             38.868
 Vibration     1          0.593              1.986              7.012
 Vibration     2          0.598              1.969              4.186
 Vibration     3          0.604              1.949              3.459
 Vibration     4          0.606              1.944              3.322
 Vibration     5          0.631              1.862              2.290
 Vibration     6          0.649              1.803              1.920
 Vibration     7          0.659              1.773              1.776
 Vibration     8          0.671              1.738              1.630
 Vibration     9          0.676              1.723              1.577
 Vibration    10          0.753              1.505              1.025
 Vibration    11          0.765              1.473              0.967
 Vibration    12          0.798              1.389              0.835
 Vibration    13          0.825              1.322              0.744
 Vibration    14          0.849              1.265              0.675
 Vibration    15          0.850              1.262              0.671
 Vibration    16          0.863              1.232              0.638
 Vibration    17          0.878              1.200              0.604
 Vibration    18          0.897              1.158              0.562
 Vibration    19          0.935              1.079              0.489

 Optimization completed.
    -- Stationary point found.
 Normal termination of Gaussian 16 at Mon Jul 13 20:50:16 2020.
