 Gaussian 16, Revision C.01,
 Gaussian 16:  ES64L-G16RevC.01  3-Jul-2019

 ----------------------------------------------------------------------
 #p opt=addgic freq td wb97xd/cc-pvdz nosymm int=ultrafine scrf=(solven
 t=CarbonTetraChloride)
 ----------------------------------------------------------------------

 ------------------------------------------------
 NM 2D-scan of HBT TD-WB97XD pVDZ in CTC Relaxed.
 ------------------------------------------------
 Symbolic Z-matrix:
 Charge =  0 Multiplicity = 1

 SCF Done:  E(RwB97XD) =  -1028.76984543     A.U. after   15 cycles
 Total Energy, E(TD-HF/TD-DFT) =  -1028.63818757
 SCF Done:  E(RwB97XD) =  -1028.81820444     A.U. after   13 cycles
 Total Energy, E(TD-HF/TD-DFT) =  -1028.68876970
 SCF Done:  E(RwB97XD) =  -1028.81869010     A.U. after   13 cycles
 Total Energy, E(TD-HF/TD-DFT) =  -1028.69066145
 SCF Done:  E(RwB97XD) =  -1028.82035498     A.U. after   11 cycles
 Total Energy, E(TD-HF/TD-DFT) =  -1028.69195133
 SCF Done:  E(RwB97XD) =  -1028.82055575     A.U. after   11 cycles
 Total Energy, E(TD-HF/TD-DFT) =  -1028.69232505
 SCF Done:  E(RwB97XD) =  -1028.82059878     A.U. after    9 cycles
 Total Energy, E(TD-HF/TD-DFT) =  -1028.69233057
 SCF Done:  E(RwB97XD) =  -1028.82064103     A.U. after    8 cycles
 Total Energy, E(TD-HF/TD-DFT) =  -1028.69233103
 SCF Done:  E(RwB97XD) =  -1028.82064892     A.U. after    7 cycles
 Total Energy, E(TD-HF/TD-DFT) =  -1028.69233107
 SCF Done:  E(RwB97XD) =  -1028.82065163     A.U. after    6 cycles
 Total Energy, E(TD-HF/TD-DFT) =  -1028.69233112
 Optimization completed.
    -- Stationary point found.
 Normal termination of Gaussian 16 at Mon Jul 13 18:00:07 2020.

 ----------------------------------------------------------------------
 #P Geom=AllCheck Guess=TCheck SCRF=Check GenChk RwB97XD TD(FC,Read)/CC
 -pVDZ Freq
 ----------------------------------------------------------------------

 Structure from the checkpoint file:  "config_2_15.chk"
 ------------------------------------------------
 NM 2D-scan of HBT TD-WB97XD pVDZ in CTC Relaxed.
 ------------------------------------------------
 Charge =  0 Multiplicity = 1

                          Input orientation:
 ---------------------------------------------------------------------
 Center     Atomic      Atomic             Coordinates (Angstroms)
 Number     Number       Type             X           Y           Z
 ---------------------------------------------------------------------
      1          6           0        1.565644   -3.286586   -0.000029
      2          6           0        0.973190   -2.026488   -0.000018
      3          6           0        1.749408   -0.815085   -0.000010
      4          6           0        3.166718   -0.931842   -0.000013
      5          6           0        3.739689   -2.188346   -0.000024
      6          6           0        2.955109   -3.363555   -0.000032
      7          1           0        0.954091   -4.189692   -0.000034
      8          1           0        3.774948   -0.026745   -0.000008
      9          1           0        4.827539   -2.278922   -0.000027
     10          1           0        3.442731   -4.339386   -0.000040
     11          7           0        1.044183    0.328632    0.000001
     12         16           0       -0.725142   -1.649102   -0.000012
     13          6           0       -1.296867    1.073497    0.000019
     14          6           0       -2.688219    0.762624    0.000025
     15          6           0       -0.929803    2.495267    0.000029
     16          6           0       -3.640908    1.764260    0.000033
     17          1           0       -3.000530   -0.282661    0.000023
     18          6           0       -1.921151    3.483669    0.000035
     19          6           0       -3.266611    3.128350    0.000036
     20          1           0       -4.698978    1.497924    0.000036
     21          1           0       -1.600706    4.525872    0.000039
     22          1           0       -4.034194    3.902954    0.000041
     23          6           0       -0.298081    0.085780    0.000003
     24          8           0        0.338148    2.857016    0.000030
     25          1           0        0.905158    2.025276    0.000016
 ---------------------------------------------------------------------

 SCF Done:  E(RwB97XD) =  -1028.82065163     A.U. after    1 cycles

 Excitation energies and oscillator strengths:

 Excited state symmetry could not be determined.
 Excited State   1:      Singlet-?Sym    3.4918 eV  355.07 nm  f=0.7164  <S**2>=0.000
      59 -> 60         0.68888
 This state for optimization and/or second-order correction.
 Total Energy, E(TD-HF/TD-DFT) =  -1028.69233111
 Copying the excited state density for this state as the 1-particle RhoCI density.

 Excited state symmetry could not be determined.
 Excited State   2:      Singlet-?Sym    4.3853 eV  282.73 nm  f=0.1354  <S**2>=0.000
      57 -> 60         0.39849
      58 -> 60         0.52601
      59 -> 62        -0.15123

 Excited state symmetry could not be determined.
 Excited State   3:      Singlet-?Sym    4.5683 eV  271.40 nm  f=0.0990  <S**2>=0.000
      57 -> 60         0.49189
      58 -> 60        -0.38727
      58 -> 61        -0.10246
      59 -> 61         0.21037

 Alpha  occ. eigenvalues --  -89.08740 -19.28866 -14.47201 -10.39628 -10.38267
 Alpha  occ. eigenvalues --  -10.35035 -10.34584 -10.32589 -10.32377 -10.32117
 Alpha  occ. eigenvalues --  -10.32017 -10.31392 -10.31320 -10.31209 -10.30609
 Alpha  occ. eigenvalues --  -10.30568  -8.10738  -6.05578  -6.05243  -6.04801
 Alpha  occ. eigenvalues --   -1.17375  -1.08063  -0.96798  -0.95724  -0.91895
 Alpha  occ. eigenvalues --   -0.88788  -0.85093  -0.84538  -0.82217  -0.75985
 Alpha  occ. eigenvalues --   -0.71284  -0.70164  -0.69165  -0.68212  -0.63581
 Alpha  occ. eigenvalues --   -0.60318  -0.59000  -0.58615  -0.56068  -0.54477
 Alpha  occ. eigenvalues --   -0.53699  -0.53348  -0.52881  -0.50598  -0.50535
 Alpha  occ. eigenvalues --   -0.49246  -0.47728  -0.45924  -0.45594  -0.44794
 Alpha  occ. eigenvalues --   -0.44013  -0.43000  -0.42094  -0.39962  -0.37588
 Alpha  occ. eigenvalues --   -0.36440  -0.31955  -0.31645  -0.28079
 Alpha virt. eigenvalues --   -0.01854   0.05227   0.06895   0.07072   0.07683
 Alpha virt. eigenvalues --    0.11197   0.14168   0.15207   0.16647   0.18081
 Alpha virt. eigenvalues --    0.18515   0.20994   0.21548   0.22329   0.22768

 Mulliken charges:
               1
     1  C    0.017470
     2  C   -0.216080
     3  C    0.211285
     4  C   -0.018777
     5  C    0.005856
     6  C   -0.006459
     7  H    0.016740
     8  H    0.016031
     9  H    0.018097
    10  H    0.019814
    11  N   -0.360344
    12  S    0.152117
    13  C   -0.072060
    14  C   -0.025048
    15  C    0.080166
    16  C   -0.008306
    17  H    0.021387
    18  C    0.009860
    19  C    0.021921
    20  H    0.011913
    21  H    0.020309
    22  H    0.023554
    23  C    0.082611
    24  O   -0.195524
    25  H    0.173468
 Sum of Mulliken charges =  -0.00000

 Dipole moment (field-independent basis, Debye):
    X=             -0.7113    Y=             -1.8894    Z=             -0.0000  Tot=              2.0188
 Quadrupole moment (field-independent basis, Debye-Ang):
   XX=            -83.1646   YY=            -89.2932   ZZ=           -104.3682
   XY=             -6.9986   XZ=             -0.0001   YZ=              0.0001

  Exact polarizability:     400.960    -194.368     389.535      -0.003       0.003      63.362
 Approx polarizability:     278.705     -36.741     261.152      -0.001       0.001      82.370

                      1                      2                      3
                      A                      A                      A
 Frequencies --     43.4783                67.3043               108.1416
 Red. masses --      6.1167                 5.2088                 5.6281
 Frc consts  --      0.0068                 0.0139                 0.0388
 IR Inten    --      1.3574                 0.0046                 2.0691

                      4                      5                      6
                      A                      A                      A
 Frequencies --    109.3776               180.8755               224.5073
 Red. masses --      5.1179                 6.7122                 5.3777
 Frc consts  --      0.0361                 0.1294                 0.1597
 IR Inten    --      0.2167                 1.3756                 0.0051

                      7                      8                      9
                      A                      A                      A
 Frequencies --    265.9852               272.0424               292.3427
 Red. masses --      7.8974                 4.8421                 6.5972
 Frc consts  --      0.3292                 0.2111                 0.3322
 IR Inten    --     22.3003                 0.0342                 9.6228

                     10                     11                     12
                      A                      A                      A
 Frequencies --    391.4988               404.9276               440.8701
 Red. masses --      4.5343                 9.1035                 3.2655
 Frc consts  --      0.4095                 0.8795                 0.3740
 IR Inten    --      0.0632                14.0651                 3.9725

                     13                     14                     15
                      A                      A                      A
 Frequencies --    491.0864               498.4331               508.5699
 Red. masses --      4.4683                 7.6128                 3.1581
 Frc consts  --      0.6349                 1.1143                 0.4813
 IR Inten    --      0.2001                 6.4841                 0.0798

                     16                     17                     18
                      A                      A                      A
 Frequencies --    513.5959               525.0459               552.2475
 Red. masses --      5.1105                 8.4466                 3.9880
 Frc consts  --      0.7942                 1.3719                 0.7166
 IR Inten    --     23.5075                31.0888                 0.1567

                     19                     20                     21
                      A                      A                      A
 Frequencies --    576.5931               644.3019               692.2713
 Red. masses --      7.6880                 6.5902                10.1695
 Frc consts  --      1.5059                 1.6119                 2.8715
 IR Inten    --     44.5531                15.8826                53.7660

                     22                     23                     24
                      A                      A                      A
 Frequencies --    715.7539               721.9547               736.4807
 Red. masses --      6.7063                 1.6342                 1.7734
 Frc consts  --      2.0242                 0.5019                 0.5667
 IR Inten    --     14.3156                56.9133                47.0255

                     25                     26                     27
                      A                      A                      A
 Frequencies --    742.2520               771.2345               815.7350
 Red. masses --      1.9805                 2.2383                 1.7023
 Frc consts  --      0.6429                 0.7844                 0.6674
 IR Inten    --      6.8239                48.0391                 4.2880

                     28                     29                     30
                      A                      A                      A
 Frequencies --    817.0053               860.1039               884.4458
 Red. masses --      6.2994                 1.4314                 6.3872
 Frc consts  --      2.4774                 0.6239                 2.9437
 IR Inten    --     20.0595                 0.7569                65.6615

                     31                     32                     33
                      A                      A                      A
 Frequencies --    916.7415               932.0759               953.4781
 Red. masses --      1.2701                 1.1207                 1.3440
 Frc consts  --      0.6289                 0.5737                 0.7199
 IR Inten    --     31.8555                40.3990                 2.0456

                     34                     35                     36
                      A                      A                      A
 Frequencies --    960.3930               967.9887               998.9309
 Red. masses --      7.3160                 1.3482                 1.3044
 Frc consts  --      3.9758                 0.7443                 0.7669
 IR Inten    --      9.3913                 0.1263                 0.0067

                     37                     38                     39
                      A                      A                      A
 Frequencies --   1039.7235              1040.5946              1083.7988
 Red. masses --      2.1450                 2.0944                 4.4790
 Frc consts  --      1.3662                 1.3362                 3.0998
 IR Inten    --      3.4970                 0.8900                49.9433

                     40                     41                     42
                      A                      A                      A
 Frequencies --   1136.8518              1150.6510              1175.3468
 Red. masses --      1.4570                 1.3389                 1.1553
 Frc consts  --      1.1095                 1.0444                 0.9403
 IR Inten    --     57.9036                14.9023                15.2475

                     43                     44                     45
                      A                      A                      A
 Frequencies --   1178.7749              1215.2428              1238.9032
 Red. masses --      1.2086                 4.4008                 1.8088
 Frc consts  --      0.9895                 3.8292                 1.6357
 IR Inten    --     22.2483                40.4857               161.2805

                     46                     47                     48
                      A                      A                      A
 Frequencies --   1277.8582              1320.0949              1358.7108
 Red. masses --      1.6739                 3.4400                 2.8143
 Frc consts  --      1.6104                 3.5320                 3.0611
 IR Inten    --      0.1015               283.9045                31.8434

                     49                     50                     51
                      A                      A                      A
 Frequencies --   1370.6244              1396.3742              1438.7109
 Red. masses --      5.5208                 2.0448                 2.6576
 Frc consts  --      6.1107                 2.3492                 3.2410
 IR Inten    --     49.4435                 3.3251               190.8325

                     52                     53                     54
                      A                      A                      A
 Frequencies --   1471.5519              1498.0059              1516.0429
 Red. masses --      3.5881                 3.5399                 2.5104
 Frc consts  --      4.5779                 4.6803                 3.3995
 IR Inten    --     79.0579                57.1835               176.6471

                     55                     56                     57
                      A                      A                      A
 Frequencies --   1544.3480              1576.8060              1595.4057
 Red. masses --      4.7902                 7.2419                 4.3501
 Frc consts  --      6.7312                10.6086                 6.5236
 IR Inten    --     33.2496                90.8514               627.6677

                     58                     59                     60
                      A                      A                      A
 Frequencies --   1606.8005              1626.5361              1646.3396
 Red. masses --      2.5181                 4.1392                 5.1137
 Frc consts  --      3.8304                 6.4520                 8.1662
 IR Inten    --    270.1982               275.0671               199.4983

                     61                     62                     63
                      A                      A                      A
 Frequencies --   2978.8432              3206.5011              3210.6628
 Red. masses --      1.0768                 1.0862                 1.0861
 Frc consts  --      5.6294                 6.5801                 6.5962
 IR Inten    --     33.2532                 9.5225                 5.6871

                     64                     65                     66
                      A                      A                      A
 Frequencies --   3217.4179              3222.0110              3229.4103
 Red. masses --      1.0898                 1.0891                 1.0954
 Frc consts  --      6.6466                 6.6614                 6.7310
 IR Inten    --      2.9540                 3.0787                11.0240

                     67                     68                     69
                      A                      A                      A
 Frequencies --   3230.1080              3235.1470              3240.9413
 Red. masses --      1.0947                 1.0989                 1.0984
 Frc consts  --      6.7295                 6.7766                 6.7973
 IR Inten    --     15.1228                39.7480                27.7943

 - Thermochemistry -
 -------------------
 Temperature   298.150 Kelvin.  Pressure   1.00000 Atm.
 Atom     1 has atomic number  6 and mass  12.00000

 Molecular mass:   227.04049 amu.
 Principal axes and moments of inertia in atomic units:
                           1         2         3
     Eigenvalues --  1315.990516347.196967663.18747
           X           -0.69853   0.71558   0.00000
           Y            0.71558   0.69853  -0.00001
           Z            0.00001   0.00000   1.00000
 This molecule is an asymmetric top.
 Rotational symmetry number  1.
 Warning -- assumption of classical behavior for rotation
           may cause significant error
 Rotational temperatures (Kelvin)      0.06582     0.01365     0.01130
 Rotational constants (GHZ):           1.37139     0.28434     0.23551
 Zero-point vibrational energy     489710.5 (Joules/Mol)
                                  117.04363 (Kcal/Mol)
 Warning -- explicit consideration of  19 degrees of freedom as
           vibrations may cause significant error
 Vibrational temperatures:     62.56    96.84   155.59   157.37   260.24
          (Kelvin)            323.02   382.69   391.41   420.62   563.28
                              582.60   634.31   706.56   717.13   731.72
                              738.95   755.42   794.56   829.59   927.01
                              996.02  1029.81  1038.73  1059.63  1067.94
                             1109.63  1173.66  1175.49  1237.50  1272.52
                             1318.99  1341.05  1371.84  1381.79  1392.72
                             1437.24  1495.93  1497.18  1559.34  1635.68
                             1655.53  1691.06  1695.99  1748.46  1782.51
                             1838.55  1899.32  1954.88  1972.02  2009.07
                             2069.98  2117.23  2155.30  2181.25  2221.97
                             2268.67  2295.43  2311.83  2340.22  2368.72
                             4285.89  4613.44  4619.43  4629.15  4635.76
                             4646.40  4647.40  4654.65  4662.99

 Zero-point correction=                           0.186521 (Hartree/Particle)
 Thermal correction to Energy=                    0.198817
 Thermal correction to Enthalpy=                  0.199761
 Thermal correction to Gibbs Free Energy=         0.147209
 Sum of electronic and zero-point Energies=          -1028.505810
 Sum of electronic and thermal Energies=             -1028.493514
 Sum of electronic and thermal Enthalpies=           -1028.492570
 Sum of electronic and thermal Free Energies=        -1028.545122

                     E (Thermal)             CV                S
                      KCal/Mol        Cal/Mol-Kelvin    Cal/Mol-Kelvin
 Total                  124.760             49.372            110.606
 Electronic               0.000              0.000              0.000
 Translational            0.889              2.981             42.162
 Rotational               0.889              2.981             32.526
 Vibrational            122.982             43.410             35.918
 Vibration     1          0.595              1.980              5.094
 Vibration     2          0.598              1.970              4.231
 Vibration     3          0.606              1.943              3.302
 Vibration     4          0.606              1.942              3.280
 Vibration     5          0.630              1.866              2.319
 Vibration     6          0.649              1.804              1.922
 Vibration     7          0.672              1.735              1.622
 Vibration     8          0.675              1.725              1.583
 Vibration     9          0.688              1.688              1.460
 Vibration    10          0.759              1.488              0.994
 Vibration    11          0.770              1.459              0.945
 Vibration    12          0.801              1.381              0.824
 Vibration    13          0.847              1.270              0.681
 Vibration    14          0.854              1.253              0.662
 Vibration    15          0.864              1.231              0.637
 Vibration    16          0.869              1.220              0.625
 Vibration    17          0.880              1.195              0.598
 Vibration    18          0.908              1.135              0.540
 Vibration    19          0.933              1.082              0.492

 Optimization completed.
    -- Stationary point found.
 Normal termination of Gaussian 16 at Mon Jul 13 18:19:17 2020.
