 Gaussian 16, Revision C.01,
 Gaussian 16:  ES64L-G16RevC.01  3-Jul-2019

 ----------------------------------------------------------------------
 #p opt=addgic freq td wb97xd/cc-pvdz nosymm int=ultrafine scrf=(solven
 t=CarbonTetraChloride)
 ----------------------------------------------------------------------

 ------------------------------------------------
 NM 2D-scan of HBT TD-WB97XD pVDZ in CTC Relaxed.
 ------------------------------------------------
 Symbolic Z-matrix:
 Charge =  0 Multiplicity = 1

 SCF Done:  E(RwB97XD) =  -1028.81716263     A.U. after   15 cycles
 Total Energy, E(TD-HF/TD-DFT) =  -1028.68740416
 SCF Done:  E(RwB97XD) =  -1028.82070933     A.U. after   13 cycles
 Total Energy, E(TD-HF/TD-DFT) =  -1028.69233093
 SCF Done:  E(RwB97XD) =  -1028.81942079     A.U. after   12 cycles
 Total Energy, E(TD-HF/TD-DFT) =  -1028.69268033
 SCF Done:  E(RwB97XD) =  -1028.81994787     A.U. after   11 cycles
 Total Energy, E(TD-HF/TD-DFT) =  -1028.69294333
 SCF Done:  E(RwB97XD) =  -1028.82014301     A.U. after   10 cycles
 Total Energy, E(TD-HF/TD-DFT) =  -1028.69299434
 SCF Done:  E(RwB97XD) =  -1028.82017413     A.U. after    8 cycles
 Total Energy, E(TD-HF/TD-DFT) =  -1028.69299557
 Optimization completed.
    -- Stationary point found.
 Normal termination of Gaussian 16 at Mon Jul 13 14:52:22 2020.

 ----------------------------------------------------------------------
 #P Geom=AllCheck Guess=TCheck SCRF=Check GenChk RwB97XD TD(FC,Read)/CC
 -pVDZ Freq
 ----------------------------------------------------------------------

 Structure from the checkpoint file:  "config_4_9.chk"
 ------------------------------------------------
 NM 2D-scan of HBT TD-WB97XD pVDZ in CTC Relaxed.
 ------------------------------------------------
 Charge =  0 Multiplicity = 1

                          Input orientation:
 ---------------------------------------------------------------------
 Center     Atomic      Atomic             Coordinates (Angstroms)
 Number     Number       Type             X           Y           Z
 ---------------------------------------------------------------------
      1          6           0        1.648516   -3.277898   -0.000025
      2          6           0        0.987076   -2.052659   -0.000007
      3          6           0        1.708669   -0.816602   -0.000010
      4          6           0        3.125684   -0.847334   -0.000031
      5          6           0        3.767786   -2.070292   -0.000050
      6          6           0        3.043174   -3.279977   -0.000047
      7          1           0        1.090450   -4.215004   -0.000024
      8          1           0        3.679081    0.092297   -0.000033
      9          1           0        4.858828   -2.103323   -0.000067
     10          1           0        3.578693   -4.230374   -0.000063
     11          7           0        0.948883    0.289002    0.000009
     12         16           0       -0.737490   -1.737164    0.000020
     13          6           0       -1.355655    1.035170    0.000035
     14          6           0       -2.756045    0.818602    0.000020
     15          6           0       -0.897986    2.440360    0.000044
     16          6           0       -3.644974    1.887380    0.000010
     17          1           0       -3.137407   -0.203902    0.000011
     18          6           0       -1.828037    3.493029    0.000030
     19          6           0       -3.192125    3.226540    0.000013
     20          1           0       -4.717460    1.686119   -0.000004
     21          1           0       -1.436299    4.510637    0.000038
     22          1           0       -3.911285    4.045986    0.000004
     23          6           0       -0.383504    0.011348    0.000029
     24          8           0        0.379679    2.721489    0.000078
     25          1           0        0.895039    1.816912    0.000123
 ---------------------------------------------------------------------

 SCF Done:  E(RwB97XD) =  -1028.82017413     A.U. after    1 cycles

 Excitation energies and oscillator strengths:

 Excited state symmetry could not be determined.
 Excited State   1:      Singlet-?Sym    3.4607 eV  358.26 nm  f=0.6489  <S**2>=0.000
      59 -> 60         0.68981
 This state for optimization and/or second-order correction.
 Total Energy, E(TD-HF/TD-DFT) =  -1028.69299556
 Copying the excited state density for this state as the 1-particle RhoCI density.

 Excited state symmetry could not be determined.
 Excited State   2:      Singlet-?Sym    4.3915 eV  282.33 nm  f=0.2527  <S**2>=0.000
      57 -> 60         0.21904
      58 -> 60         0.62808
      59 -> 62         0.12048
      59 -> 63         0.10881

 Excited state symmetry could not be determined.
 Excited State   3:      Singlet-?Sym    4.6247 eV  268.09 nm  f=0.0581  <S**2>=0.000
      57 -> 60         0.57605
      57 -> 62        -0.14100
      58 -> 60        -0.21298
      58 -> 61        -0.13950
      59 -> 61         0.23169

 Alpha  occ. eigenvalues --  -89.09157 -19.27739 -14.47301 -10.39953 -10.37992
 Alpha  occ. eigenvalues --  -10.35176 -10.34878 -10.32453 -10.32267 -10.32256
 Alpha  occ. eigenvalues --  -10.31906 -10.31543 -10.31480 -10.31387 -10.30374
 Alpha  occ. eigenvalues --  -10.30211  -8.11104  -6.05955  -6.05613  -6.05160
 Alpha  occ. eigenvalues --   -1.16668  -1.08510  -0.96746  -0.95672  -0.91884
 Alpha  occ. eigenvalues --   -0.88829  -0.84984  -0.84367  -0.82391  -0.75947
 Alpha  occ. eigenvalues --   -0.71088  -0.70237  -0.69116  -0.68250  -0.63469
 Alpha  occ. eigenvalues --   -0.60485  -0.58885  -0.58604  -0.55816  -0.54403
 Alpha  occ. eigenvalues --   -0.53920  -0.53050  -0.53007  -0.50918  -0.50298
 Alpha  occ. eigenvalues --   -0.49479  -0.47586  -0.45959  -0.45585  -0.44774
 Alpha  occ. eigenvalues --   -0.43930  -0.42811  -0.42431  -0.40110  -0.37022
 Alpha  occ. eigenvalues --   -0.36473  -0.32225  -0.31368  -0.27988
 Alpha virt. eigenvalues --   -0.01773   0.05036   0.06958   0.07277   0.07384
 Alpha virt. eigenvalues --    0.11033   0.13837   0.15133   0.16240   0.18000
 Alpha virt. eigenvalues --    0.18617   0.21030   0.21683   0.22379   0.22635

 Mulliken charges:
               1
     1  C    0.014318
     2  C   -0.225593
     3  C    0.240022
     4  C   -0.017059
     5  C    0.008106
     6  C   -0.005925
     7  H    0.018488
     8  H    0.018283
     9  H    0.019400
    10  H    0.020853
    11  N   -0.358309
    12  S    0.161094
    13  C   -0.092437
    14  C   -0.020010
    15  C    0.094352
    16  C   -0.015805
    17  H    0.013675
    18  C    0.004687
    19  C    0.023626
    20  H    0.010592
    21  H    0.017617
    22  H    0.022291
    23  C    0.083578
    24  O   -0.222630
    25  H    0.186786
 Sum of Mulliken charges =  -0.00000

 Dipole moment (field-independent basis, Debye):
    X=             -0.2992    Y=             -2.2854    Z=              0.0000  Tot=              2.3049
 Quadrupole moment (field-independent basis, Debye-Ang):
   XX=            -83.2607   YY=            -89.5604   ZZ=           -104.3640
   XY=             -7.0010   XZ=             -0.0000   YZ=              0.0001

  Exact polarizability:     394.947    -182.722     371.537      -0.003       0.003      63.393
 Approx polarizability:     277.814     -35.970     260.718      -0.001       0.001      82.391

                      1                      2                      3
                      A                      A                      A
 Frequencies --     43.6146                56.2786               109.4852
 Red. masses --      5.8513                 6.4773                 4.7987
 Frc consts  --      0.0066                 0.0121                 0.0339
 IR Inten    --      1.5021                 0.0338                 0.1522

                      4                      5                      6
                      A                      A                      A
 Frequencies --    111.0740               178.6739               222.9670
 Red. masses --      5.5650                 6.3281                 5.3668
 Frc consts  --      0.0405                 0.1190                 0.1572
 IR Inten    --      1.4067                 1.0491                 0.0064

                      7                      8                      9
                      A                      A                      A
 Frequencies --    269.2633               270.8957               305.7117
 Red. masses --      7.6038                 4.8184                 6.4133
 Frc consts  --      0.3248                 0.2083                 0.3531
 IR Inten    --     25.7782                 0.1029                 6.3053

                     10                     11                     12
                      A                      A                      A
 Frequencies --    387.0549               402.1865               438.4160
 Red. masses --      4.6794                 9.2950                 3.2584
 Frc consts  --      0.4130                 0.8858                 0.3690
 IR Inten    --      0.1449                11.6822                 4.3319

                     13                     14                     15
                      A                      A                      A
 Frequencies --    488.5646               500.3073               501.9276
 Red. masses --      4.6273                 7.3144                 3.1596
 Frc consts  --      0.6508                 1.0787                 0.4690
 IR Inten    --      0.1131                 5.8908                 0.0113

                     16                     17                     18
                      A                      A                      A
 Frequencies --    511.7536               527.6024               553.9943
 Red. masses --      4.9109                 8.4655                 3.9635
 Frc consts  --      0.7578                 1.3884                 0.7167
 IR Inten    --     17.1763                32.7426                 0.1248

                     19                     20                     21
                      A                      A                      A
 Frequencies --    578.4041               640.6763               700.7716
 Red. masses --      7.6203                 6.6703                 7.7639
 Frc consts  --      1.5020                 1.6131                 2.2464
 IR Inten    --     20.3585                46.3919                11.5478

                     22                     23                     24
                      A                      A                      A
 Frequencies --    711.4575               721.1198               738.3451
 Red. masses --      1.7087                 8.5196                 1.9301
 Frc consts  --      0.5096                 2.6103                 0.6199
 IR Inten    --     45.1637                24.3279                28.5819

                     25                     26                     27
                      A                      A                      A
 Frequencies --    753.1345               770.7396               816.2807
 Red. masses --      1.9025                 2.0165                 6.3152
 Frc consts  --      0.6358                 0.7058                 2.4792
 IR Inten    --     27.2034                53.7230                12.0768

                     28                     29                     30
                      A                      A                      A
 Frequencies --    818.7704               861.1059               895.3792
 Red. masses --      1.6523                 1.4163                 6.4569
 Frc consts  --      0.6526                 0.6188                 3.0499
 IR Inten    --      0.3966                 0.8634                55.1763

                     31                     32                     33
                      A                      A                      A
 Frequencies --    915.3013               954.0140               964.0941
 Red. masses --      1.3524                 1.3428                 1.3644
 Frc consts  --      0.6676                 0.7200                 0.7472
 IR Inten    --      5.7509                 1.8318                 0.1771

                     34                     35                     36
                      A                      A                      A
 Frequencies --    967.6240               999.9746              1038.4409
 Red. masses --      7.1844                 1.2984                 2.1728
 Frc consts  --      3.9633                 0.7650                 1.3805
 IR Inten    --      4.9334                 0.0250                 1.4269

                     37                     38                     39
                      A                      A                      A
 Frequencies --   1043.3849              1070.9255              1078.0087
 Red. masses --      2.1189                 1.0601                 4.4503
 Frc consts  --      1.3591                 0.7163                 3.0471
 IR Inten    --      0.9010                66.3352                58.4338

                     40                     41                     42
                      A                      A                      A
 Frequencies --   1132.5957              1148.1077              1174.7458
 Red. masses --      1.4785                 1.3284                 1.1380
 Frc consts  --      1.1174                 1.0317                 0.9253
 IR Inten    --     65.5458                14.3776                14.4619

                     43                     44                     45
                      A                      A                      A
 Frequencies --   1178.8659              1239.2259              1245.6969
 Red. masses --      1.1920                 4.0168                 1.8949
 Frc consts  --      0.9760                 3.6344                 1.7324
 IR Inten    --     38.7972                39.1384               158.0328

                     46                     47                     48
                      A                      A                      A
 Frequencies --   1282.7562              1306.9826              1366.7240
 Red. masses --      1.7009                 3.8795                 2.6123
 Frc consts  --      1.6490                 3.9045                 2.8750
 IR Inten    --      3.2185               292.7032                 4.4648

                     49                     50                     51
                      A                      A                      A
 Frequencies --   1375.1789              1402.5964              1443.0446
 Red. masses --      5.4803                 2.0876                 2.5785
 Frc consts  --      6.1062                 2.4197                 3.1635
 IR Inten    --     94.1384                 0.2210               158.0519

                     52                     53                     54
                      A                      A                      A
 Frequencies --   1474.6525              1500.3316              1531.5541
 Red. masses --      3.7219                 3.8332                 4.1391
 Frc consts  --      4.7686                 5.0838                 5.7203
 IR Inten    --     63.8355                38.2321               198.1832

                     55                     56                     57
                      A                      A                      A
 Frequencies --   1536.9432              1563.8140              1598.5781
 Red. masses --      4.1189                 6.1505                 4.3010
 Frc consts  --      5.7325                 8.8620                 6.4758
 IR Inten    --     50.4397               549.7602                76.3817

                     58                     59                     60
                      A                      A                      A
 Frequencies --   1615.8470              1641.7954              1657.7559
 Red. masses --      5.4292                 2.8403                 2.3145
 Frc consts  --      8.3520                 4.5108                 3.7476
 IR Inten    --    526.0260               601.9964                22.5793

                     61                     62                     63
                      A                      A                      A
 Frequencies --   2355.1200              3207.8674              3207.9777
 Red. masses --      1.1033                 1.0864                 1.0867
 Frc consts  --      3.6055                 6.5868                 6.5891
 IR Inten    --    273.3504                15.3171                 0.7204

                     64                     65                     66
                      A                      A                      A
 Frequencies --   3219.1963              3219.5067              3227.6214
 Red. masses --      1.0899                 1.0886                 1.0940
 Frc consts  --      6.6549                 6.6484                 6.7146
 IR Inten    --      3.2106                 1.8813                16.1410

                     67                     68                     69
                      A                      A                      A
 Frequencies --   3231.2146              3237.1070              3239.5027
 Red. masses --      1.0953                 1.0990                 1.0986
 Frc consts  --      6.7377                 6.7850                 6.7928
 IR Inten    --     11.1063                40.6161                22.0910

 - Thermochemistry -
 -------------------
 Temperature   298.150 Kelvin.  Pressure   1.00000 Atm.
 Atom     1 has atomic number  6 and mass  12.00000

 Molecular mass:   227.04049 amu.
 Principal axes and moments of inertia in atomic units:
                           1         2         3
     Eigenvalues --  1321.309856327.458927648.76876
           X           -0.70106   0.71310   0.00000
           Y            0.71310   0.70106  -0.00001
           Z            0.00001   0.00000   1.00000
 This molecule is an asymmetric top.
 Rotational symmetry number  1.
 Warning -- assumption of classical behavior for rotation
           may cause significant error
 Rotational temperatures (Kelvin)      0.06555     0.01369     0.01132
 Rotational constants (GHZ):           1.36587     0.28522     0.23595
 Zero-point vibrational energy     487362.4 (Joules/Mol)
                                  116.48241 (Kcal/Mol)
 Warning -- explicit consideration of  19 degrees of freedom as
           vibrations may cause significant error
 Vibrational temperatures:     62.75    80.97   157.52   159.81   257.07
          (Kelvin)            320.80   387.41   389.76   439.85   556.89
                              578.66   630.78   702.94   719.83   722.16
                              736.30   759.10   797.07   832.19   921.79
                             1008.25  1023.63  1037.53  1062.31  1083.59
                             1108.92  1174.45  1178.03  1238.94  1288.25
                             1316.91  1372.61  1387.12  1392.20  1438.74
                             1494.08  1501.20  1540.82  1551.01  1629.55
                             1651.87  1690.20  1696.13  1782.97  1792.28
                             1845.60  1880.46  1966.41  1978.58  2018.02
                             2076.22  2121.70  2158.64  2203.56  2211.32
                             2249.98  2300.00  2324.84  2362.18  2385.14
                             3388.49  4615.41  4615.56  4631.71  4632.15
                             4643.83  4649.00  4657.47  4660.92

 Zero-point correction=                           0.185627 (Hartree/Particle)
 Thermal correction to Energy=                    0.197908
 Thermal correction to Enthalpy=                  0.198853
 Thermal correction to Gibbs Free Energy=         0.146203
 Sum of electronic and zero-point Energies=          -1028.507369
 Sum of electronic and thermal Energies=             -1028.495087
 Sum of electronic and thermal Enthalpies=           -1028.494143
 Sum of electronic and thermal Free Energies=        -1028.546793

                     E (Thermal)             CV                S
                      KCal/Mol        Cal/Mol-Kelvin    Cal/Mol-Kelvin
 Total                  124.189             49.162            110.811
 Electronic               0.000              0.000              0.000
 Translational            0.889              2.981             42.162
 Rotational               0.889              2.981             32.525
 Vibrational            122.412             43.200             36.124
 Vibration     1          0.595              1.980              5.088
 Vibration     2          0.596              1.975              4.584
 Vibration     3          0.606              1.942              3.278
 Vibration     4          0.607              1.940              3.250
 Vibration     5          0.629              1.869              2.342
 Vibration     6          0.649              1.806              1.935
 Vibration     7          0.674              1.730              1.601
 Vibration     8          0.675              1.727              1.590
 Vibration     9          0.696              1.663              1.385
 Vibration    10          0.755              1.498              1.011
 Vibration    11          0.768              1.465              0.955
 Vibration    12          0.799              1.386              0.832
 Vibration    13          0.844              1.275              0.687
 Vibration    14          0.856              1.249              0.657
 Vibration    15          0.857              1.246              0.653
 Vibration    16          0.867              1.224              0.629
 Vibration    17          0.883              1.189              0.593
 Vibration    18          0.909              1.131              0.536
 Vibration    19          0.935              1.078              0.488

 Optimization completed.
    -- Stationary point found.
 Normal termination of Gaussian 16 at Mon Jul 13 15:10:55 2020.
