 Gaussian 16, Revision C.01,
 Gaussian 16:  ES64L-G16RevC.01  3-Jul-2019

 ----------------------------------------------------------------------
 #p opt=addgic freq td wb97xd/cc-pvdz nosymm int=ultrafine scrf=(solven
 t=CarbonTetraChloride)
 ----------------------------------------------------------------------

 ------------------------------------------------
 NM 2D-scan of HBT TD-WB97XD pVDZ in CTC Relaxed.
 ------------------------------------------------
 Symbolic Z-matrix:
 Charge =  0 Multiplicity = 1

 SCF Done:  E(RwB97XD) =  -1028.63889458     A.U. after   16 cycles
 Total Energy, E(TD-HF/TD-DFT) =  -1028.53355170
 SCF Done:  E(RwB97XD) =  -1028.75724312     A.U. after   14 cycles
 Total Energy, E(TD-HF/TD-DFT) =  -1028.65540589
 SCF Done:  E(RwB97XD) =  -1028.76928678     A.U. after   16 cycles
 Total Energy, E(TD-HF/TD-DFT) =  -1028.67161826
 SCF Done:  E(RwB97XD) =  -1028.79443805     A.U. after   14 cycles
 Total Energy, E(TD-HF/TD-DFT) =  -1028.69395181
 SCF Done:  E(RwB97XD) =  -1028.79451510     A.U. after   12 cycles
 Total Energy, E(TD-HF/TD-DFT) =  -1028.69426088
 SCF Done:  E(RwB97XD) =  -1028.79463473     A.U. after   10 cycles
 Total Energy, E(TD-HF/TD-DFT) =  -1028.69428052
 SCF Done:  E(RwB97XD) =  -1028.79465160     A.U. after    9 cycles
 Total Energy, E(TD-HF/TD-DFT) =  -1028.69428208
 Optimization completed.
    -- Stationary point found.
 Normal termination of Gaussian 16 at Mon Jul 13 19:32:30 2020.

 ----------------------------------------------------------------------
 #P Geom=AllCheck Guess=TCheck SCRF=Check GenChk RwB97XD TD(FC,Read)/CC
 -pVDZ Freq
 ----------------------------------------------------------------------

 Structure from the checkpoint file:  "config_11_15.chk"
 ------------------------------------------------
 NM 2D-scan of HBT TD-WB97XD pVDZ in CTC Relaxed.
 ------------------------------------------------
 Charge =  0 Multiplicity = 1

                          Input orientation:
 ---------------------------------------------------------------------
 Center     Atomic      Atomic             Coordinates (Angstroms)
 Number     Number       Type             X           Y           Z
 ---------------------------------------------------------------------
      1          6           0        1.591979   -3.294985    0.000040
      2          6           0        1.013886   -2.032667    0.000014
      3          6           0        1.798181   -0.876473   -0.000043
      4          6           0        3.197101   -0.958521   -0.000071
      5          6           0        3.770508   -2.227654   -0.000044
      6          6           0        2.983386   -3.384992    0.000010
      7          1           0        0.971708   -4.191372    0.000082
      8          1           0        3.811540   -0.057373   -0.000113
      9          1           0        4.857964   -2.316462   -0.000066
     10          1           0        3.460009   -4.365593    0.000029
     11          7           0        1.012300    0.243223   -0.000068
     12         16           0       -0.697978   -1.614175    0.000040
     13          6           0       -1.357780    1.117342   -0.000005
     14          6           0       -2.704304    0.804494   -0.000047
     15          6           0       -0.929388    2.529091    0.000066
     16          6           0       -3.708376    1.820344   -0.000012
     17          1           0       -3.027254   -0.239795   -0.000110
     18          6           0       -1.983296    3.508676    0.000099
     19          6           0       -3.346446    3.158388    0.000062
     20          1           0       -4.758018    1.522721   -0.000041
     21          1           0       -1.676457    4.556570    0.000171
     22          1           0       -4.113248    3.934838    0.000092
     23          6           0       -0.345609    0.087504   -0.000020
     24          8           0        0.293523    2.790408    0.000125
     25          1           0        1.480221    1.123291   -0.000101
 ---------------------------------------------------------------------

 SCF Done:  E(RwB97XD) =  -1028.79465160     A.U. after    1 cycles

 Excitation energies and oscillator strengths:

 Excited state symmetry could not be determined.
 Excited State   1:      Singlet-?Sym    2.7312 eV  453.96 nm  f=0.4380  <S**2>=0.000
      59 -> 60         0.69760
 This state for optimization and/or second-order correction.
 Total Energy, E(TD-HF/TD-DFT) =  -1028.69428206
 Copying the excited state density for this state as the 1-particle RhoCI density.

 Excited state symmetry could not be determined.
 Excited State   2:      Singlet-?Sym    3.3489 eV  370.22 nm  f=0.0000  <S**2>=0.000
      58 -> 60         0.68398
      58 -> 62         0.11476
      58 -> 64         0.10473

 Excited state symmetry could not be determined.
 Excited State   3:      Singlet-?Sym    4.2819 eV  289.55 nm  f=0.4205  <S**2>=0.000
      57 -> 60         0.68378

 Alpha  occ. eigenvalues --  -89.10457 -19.20131 -14.53171 -10.42554 -10.37522
 Alpha  occ. eigenvalues --  -10.36182 -10.35295 -10.33529 -10.33397 -10.32866
 Alpha  occ. eigenvalues --  -10.32563 -10.31351 -10.30801 -10.30576 -10.29021
 Alpha  occ. eigenvalues --  -10.28136  -8.12503  -6.07379  -6.06991  -6.06524
 Alpha  occ. eigenvalues --   -1.13293  -1.08970  -0.98666  -0.95740  -0.93286
 Alpha  occ. eigenvalues --   -0.89064  -0.86890  -0.83988  -0.80744  -0.75889
 Alpha  occ. eigenvalues --   -0.74414  -0.72131  -0.69290  -0.67512  -0.64988
 Alpha  occ. eigenvalues --   -0.61081  -0.59772  -0.56510  -0.56254  -0.56065
 Alpha  occ. eigenvalues --   -0.55106  -0.53752  -0.53052  -0.50391  -0.48689
 Alpha  occ. eigenvalues --   -0.48660  -0.48321  -0.47081  -0.45598  -0.44882
 Alpha  occ. eigenvalues --   -0.44009  -0.42797  -0.42267  -0.39844  -0.36928
 Alpha  occ. eigenvalues --   -0.33830  -0.31533  -0.30688  -0.25358
 Alpha virt. eigenvalues --   -0.02220   0.03549   0.05611   0.06683   0.09717
 Alpha virt. eigenvalues --    0.10918   0.13513   0.14532   0.16022   0.16751
 Alpha virt. eigenvalues --    0.17915   0.19802   0.20771   0.21228   0.22647

 Mulliken charges:
               1
     1  C    0.018233
     2  C   -0.239994
     3  C    0.219178
     4  C   -0.010557
     5  C    0.012045
     6  C    0.003956
     7  H    0.025618
     8  H    0.032207
     9  H    0.029160
    10  H    0.027829
    11  N   -0.098836
    12  S    0.200210
    13  C   -0.068659
    14  C   -0.039463
    15  C    0.102708
    16  C   -0.037523
    17  H    0.008933
    18  C   -0.053337
    19  C    0.034666
    20  H    0.000611
    21  H   -0.001183
    22  H    0.013672
    23  C    0.081746
    24  O   -0.384406
    25  H    0.123184
 Sum of Mulliken charges =  -0.00000

 Dipole moment (field-independent basis, Debye):
    X=              2.5827    Y=             -6.2231    Z=             -0.0003  Tot=              6.7377
 Quadrupole moment (field-independent basis, Debye-Ang):
   XX=            -81.2548   YY=            -97.2409   ZZ=           -104.1399
   XY=             -5.9461   XZ=             -0.0005   YZ=             -0.0008

  Exact polarizability:     346.318    -118.147     290.977      -0.001       0.002      63.252
 Approx polarizability:     275.393     -39.309     264.371      -0.001       0.001      81.963

 ******    1 imaginary frequencies (negative Signs) ******

                      1                      2                      3
                      A                      A                      A
 Frequencies --    -73.8003                49.7330               102.3474
 Red. masses --      4.9954                 6.4340                 5.5645
 Frc consts  --      0.0160                 0.0094                 0.0343
 IR Inten    --      2.8049                 0.9881                 0.2799

                      4                      5                      6
                      A                      A                      A
 Frequencies --    113.2272               176.4458               225.4346
 Red. masses --      5.7513                 5.2448                 5.7010
 Frc consts  --      0.0434                 0.0962                 0.1707
 IR Inten    --      5.5736                 0.0140                 1.9165

                      7                      8                      9
                      A                      A                      A
 Frequencies --    265.3997               269.1803               288.4666
 Red. masses --      8.0450                 4.0100                 8.3100
 Frc consts  --      0.3339                 0.1712                 0.4074
 IR Inten    --      1.0764                 4.2849                 2.2115

                     10                     11                     12
                      A                      A                      A
 Frequencies --    339.5731               380.2621               415.9349
 Red. masses --      4.2434                 7.1299                 3.3457
 Frc consts  --      0.2883                 0.6074                 0.3410
 IR Inten    --      1.5155                 7.0364                13.0702

                     13                     14                     15
                      A                      A                      A
 Frequencies --    442.0778               502.0528               504.3458
 Red. masses --      3.9440                 8.3251                 1.2369
 Frc consts  --      0.4541                 1.2363                 0.1854
 IR Inten    --      7.3546                10.1611                50.1985

                     16                     17                     18
                      A                      A                      A
 Frequencies --    516.0721               542.3672               543.6967
 Red. masses --      3.0738                 7.4044                 7.5219
 Frc consts  --      0.4823                 1.2833                 1.3101
 IR Inten    --      4.7793                 2.8322                48.5159

                     19                     20                     21
                      A                      A                      A
 Frequencies --    560.6080               565.9976               641.3432
 Red. masses --      3.6566                 7.3278                 6.4458
 Frc consts  --      0.6771                 1.3831                 1.5621
 IR Inten    --      0.3976                 6.2084                15.4348

                     22                     23                     24
                      A                      A                      A
 Frequencies --    690.8397               712.6459               738.4787
 Red. masses --      1.5027                 5.8870                 7.5613
 Frc consts  --      0.4225                 1.7615                 2.4295
 IR Inten    --     31.6767                 1.6012                 5.8460

                     25                     26                     27
                      A                      A                      A
 Frequencies --    744.5322               757.6362               766.6930
 Red. masses --      2.3987                 1.6807                 1.7313
 Frc consts  --      0.7834                 0.5684                 0.5996
 IR Inten    --     22.3296                10.7205                83.4828

                     28                     29                     30
                      A                      A                      A
 Frequencies --    822.1904               836.6163               865.6437
 Red. masses --      6.3085                 2.0182                 1.3843
 Frc consts  --      2.5126                 0.8323                 0.6111
 IR Inten    --     16.7067                 1.3358                 1.2116

                     31                     32                     33
                      A                      A                      A
 Frequencies --    890.8391               899.5088               952.7248
 Red. masses --      5.6092                 1.4491                 1.3578
 Frc consts  --      2.6227                 0.6908                 0.7261
 IR Inten    --      2.0648                 9.0755                 0.3586

                     34                     35                     36
                      A                      A                      A
 Frequencies --    957.3856               968.8377              1003.3320
 Red. masses --      1.3530                 5.3138                 1.2973
 Frc consts  --      0.7307                 2.9387                 0.7695
 IR Inten    --      1.7725                 2.2398                 0.0026

                     37                     38                     39
                      A                      A                      A
 Frequencies --   1046.2975              1054.6122              1090.3175
 Red. masses --      2.2411                 2.1329                 3.4020
 Frc consts  --      1.4455                 1.3977                 2.3828
 IR Inten    --      0.6265                 8.8224                 5.0096

                     40                     41                     42
                      A                      A                      A
 Frequencies --   1101.8979              1152.6912              1159.5516
 Red. masses --      1.7594                 1.3618                 1.2020
 Frc consts  --      1.2587                 1.0661                 0.9522
 IR Inten    --     21.4176                 6.4111                51.2000

                     43                     44                     45
                      A                      A                      A
 Frequencies --   1178.4024              1197.5217              1239.4794
 Red. masses --      1.1409                 1.5478                 2.6772
 Frc consts  --      0.9334                 1.3078                 2.4233
 IR Inten    --     24.6376                36.3320                18.5520

                     46                     47                     48
                      A                      A                      A
 Frequencies --   1255.8471              1300.9438              1335.2029
 Red. masses --      2.1619                 1.5805                 4.0731
 Frc consts  --      2.0089                 1.5761                 4.2783
 IR Inten    --     48.3897                 7.4986                 8.6387

                     49                     50                     51
                      A                      A                      A
 Frequencies --   1359.9128              1400.2192              1407.1493
 Red. masses --      2.7021                 5.1519                 2.3640
 Frc consts  --      2.9443                 5.9513                 2.7579
 IR Inten    --     65.7908                54.1121                35.2984

                     52                     53                     54
                      A                      A                      A
 Frequencies --   1441.7717              1469.7941              1516.1738
 Red. masses --      2.7704                 3.2396                 3.4477
 Frc consts  --      3.3930                 4.1234                 4.6695
 IR Inten    --    118.1342                 4.8890                96.6144

                     55                     56                     57
                      A                      A                      A
 Frequencies --   1519.8838              1546.2330              1608.8418
 Red. masses --      3.0758                 4.7685                 5.1802
 Frc consts  --      4.1863                 6.7171                 7.8999
 IR Inten    --      2.4260               190.2881               105.2147

                     58                     59                     60
                      A                      A                      A
 Frequencies --   1635.6139              1666.3330              1674.3950
 Red. masses --      8.3404                 6.9418                 7.0156
 Frc consts  --     13.1462                11.3566                11.5886
 IR Inten    --    152.7991                68.3838                69.3815

                     61                     62                     63
                      A                      A                      A
 Frequencies --   3193.4523              3208.2498              3212.6430
 Red. masses --      1.0887                 1.0864                 1.0863
 Frc consts  --      6.5413                 6.5884                 6.6057
 IR Inten    --     27.5631                 3.2317                 4.3799

                     64                     65                     66
                      A                      A                      A
 Frequencies --   3219.8114              3223.5481              3231.2903
 Red. masses --      1.0916                 1.0901                 1.0960
 Frc consts  --      6.6676                 6.6741                 6.7421
 IR Inten    --     15.2313                 2.5508                 6.7073

                     67                     68                     69
                      A                      A                      A
 Frequencies --   3233.3816              3239.9614              3828.8808
 Red. masses --      1.0990                 1.0994                 1.0790
 Frc consts  --      6.7698                 6.7999                 9.3196
 IR Inten    --     27.4838                12.3121               246.5469

 - Thermochemistry -
 -------------------
 Temperature   298.150 Kelvin.  Pressure   1.00000 Atm.
 Atom     1 has atomic number  6 and mass  12.00000

 Molecular mass:   227.04049 amu.
 Principal axes and moments of inertia in atomic units:
                           1         2         3
     Eigenvalues --  1264.671296527.061837791.73312
           X           -0.70509   0.70911   0.00000
           Y            0.70911   0.70509  -0.00001
           Z            0.00001   0.00000   1.00000
 This molecule is an asymmetric top.
 Rotational symmetry number  1.
 Warning -- assumption of classical behavior for rotation
           may cause significant error
 Rotational temperatures (Kelvin)      0.06849     0.01327     0.01112
 Rotational constants (GHZ):           1.42704     0.27650     0.23162
    1 imaginary frequencies ignored.
 Zero-point vibrational energy     490485.5 (Joules/Mol)
                                  117.22885 (Kcal/Mol)
 Warning -- explicit consideration of  19 degrees of freedom as
           vibrations may cause significant error
 Vibrational temperatures:     71.55   147.26   162.91   253.87   324.35
          (Kelvin)            381.85   387.29   415.04   488.57   547.11
                              598.44   636.05   722.34   725.64   742.51
                              780.35   782.26   806.59   814.34   922.75
                              993.96  1025.34  1062.51  1071.22  1090.07
                             1103.10  1182.95  1203.70  1245.47  1281.72
                             1294.19  1370.76  1377.46  1393.94  1443.57
                             1505.39  1517.35  1568.72  1585.39  1658.47
                             1668.34  1695.46  1722.97  1783.33  1806.88
                             1871.77  1921.06  1956.61  2014.60  2024.57
                             2074.39  2114.71  2181.44  2186.77  2224.68
                             2314.76  2353.28  2397.48  2409.08  4594.67
                             4615.96  4622.28  4632.59  4637.97  4649.11
                             4652.11  4661.58  5508.91

 Zero-point correction=                           0.186816 (Hartree/Particle)
 Thermal correction to Energy=                    0.198587
 Thermal correction to Enthalpy=                  0.199531
 Thermal correction to Gibbs Free Energy=         0.148625
 Sum of electronic and zero-point Energies=          -1028.507466
 Sum of electronic and thermal Energies=             -1028.495695
 Sum of electronic and thermal Enthalpies=           -1028.494751
 Sum of electronic and thermal Free Energies=        -1028.545657

                     E (Thermal)             CV                S
                      KCal/Mol        Cal/Mol-Kelvin    Cal/Mol-Kelvin
 Total                  124.615             48.393            107.141
 Electronic               0.000              0.000              0.000
 Translational            0.889              2.981             42.162
 Rotational               0.889              2.981             32.531
 Vibrational            122.838             42.431             32.448
 Vibration     1          0.595              1.978              4.828
 Vibration     2          0.604              1.947              3.409
 Vibration     3          0.607              1.938              3.213
 Vibration     4          0.628              1.871              2.366
 Vibration     5          0.650              1.802              1.915
 Vibration     6          0.671              1.736              1.626
 Vibration     7          0.674              1.730              1.601
 Vibration     8          0.685              1.695              1.483
 Vibration     9          0.719              1.596              1.214
 Vibration    10          0.750              1.512              1.038
 Vibration    11          0.779              1.436              0.906
 Vibration    12          0.802              1.378              0.820
 Vibration    13          0.857              1.245              0.653
 Vibration    14          0.860              1.240              0.647
 Vibration    15          0.871              1.214              0.619
 Vibration    16          0.897              1.156              0.560
 Vibration    17          0.899              1.153              0.557
 Vibration    18          0.916              1.117              0.523
 Vibration    19          0.922              1.105              0.512

 Optimization completed.
    -- Stationary point found.
 Normal termination of Gaussian 16 at Mon Jul 13 19:50:14 2020.
