 Gaussian 16, Revision C.01,
 Gaussian 16:  ES64L-G16RevC.01  3-Jul-2019

 ----------------------------------------------------------------------
 #p opt=addgic freq td wb97xd/cc-pvdz nosymm int=ultrafine scrf=(solven
 t=CarbonTetraChloride)
 ----------------------------------------------------------------------

 ------------------------------------------------
 NM 2D-scan of HBT TD-WB97XD pVDZ in CTC Relaxed.
 ------------------------------------------------
 Symbolic Z-matrix:
 Charge =  0 Multiplicity = 1

 SCF Done:  E(RwB97XD) =  -1028.62567733     A.U. after   16 cycles
 Total Energy, E(TD-HF/TD-DFT) =  -1028.52050981
 SCF Done:  E(RwB97XD) =  -1028.75168021     A.U. after   14 cycles
 Total Energy, E(TD-HF/TD-DFT) =  -1028.64997559
 SCF Done:  E(RwB97XD) =  -1028.78046244     A.U. after   14 cycles
 Total Energy, E(TD-HF/TD-DFT) =  -1028.68401228
 SCF Done:  E(RwB97XD) =  -1028.79244124     A.U. after   14 cycles
 Total Energy, E(TD-HF/TD-DFT) =  -1028.69245908
 SCF Done:  E(RwB97XD) =  -1028.79336675     A.U. after   12 cycles
 Total Energy, E(TD-HF/TD-DFT) =  -1028.69373551
 SCF Done:  E(RwB97XD) =  -1028.79389719     A.U. after   12 cycles
 Total Energy, E(TD-HF/TD-DFT) =  -1028.69387937
 SCF Done:  E(RwB97XD) =  -1028.79399044     A.U. after   10 cycles
 Total Energy, E(TD-HF/TD-DFT) =  -1028.69388900
 SCF Done:  E(RwB97XD) =  -1028.79402251     A.U. after    9 cycles
 Total Energy, E(TD-HF/TD-DFT) =  -1028.69389007
 Optimization completed.
    -- Stationary point found.
 Normal termination of Gaussian 16 at Tue Jul 14 11:10:35 2020.

 ----------------------------------------------------------------------
 #P Geom=AllCheck Guess=TCheck SCRF=Check GenChk RwB97XD TD(FC,Read)/CC
 -pVDZ Freq
 ----------------------------------------------------------------------

 Structure from the checkpoint file:  "config_11_16.chk"
 ------------------------------------------------
 NM 2D-scan of HBT TD-WB97XD pVDZ in CTC Relaxed.
 ------------------------------------------------
 Charge =  0 Multiplicity = 1

                          Input orientation:
 ---------------------------------------------------------------------
 Center     Atomic      Atomic             Coordinates (Angstroms)
 Number     Number       Type             X           Y           Z
 ---------------------------------------------------------------------
      1          6           0        1.578519   -3.294605    0.000084
      2          6           0        1.012918   -2.026896    0.000041
      3          6           0        1.805913   -0.876680   -0.000056
      4          6           0        3.204084   -0.972695   -0.000107
      5          6           0        3.765668   -2.247565   -0.000063
      6          6           0        2.968588   -3.398058    0.000031
      7          1           0        0.948992   -4.184536    0.000156
      8          1           0        3.828124   -0.078117   -0.000179
      9          1           0        4.852299   -2.345933   -0.000102
     10          1           0        3.436237   -4.382951    0.000061
     11          7           0        1.027132    0.249778   -0.000096
     12         16           0       -0.694441   -1.598032    0.000083
     13          6           0       -1.350749    1.123168   -0.000008
     14          6           0       -2.693901    0.795516   -0.000087
     15          6           0       -0.936117    2.537528    0.000106
     16          6           0       -3.708419    1.800266   -0.000042
     17          1           0       -3.006273   -0.251937   -0.000191
     18          6           0       -2.000041    3.506533    0.000136
     19          6           0       -3.359810    3.141831    0.000069
     20          1           0       -4.754879    1.491642   -0.000098
     21          1           0       -1.705026    4.557843    0.000241
     22          1           0       -4.134530    3.910399    0.000104
     23          6           0       -0.332017    0.100300   -0.000021
     24          8           0        0.285163    2.806691    0.000183
     25          1           0        1.503312    1.124809   -0.000151
 ---------------------------------------------------------------------

 SCF Done:  E(RwB97XD) =  -1028.79402251     A.U. after    1 cycles

 Excitation energies and oscillator strengths:

 Excited state symmetry could not be determined.
 Excited State   1:      Singlet-?Sym    2.7247 eV  455.03 nm  f=0.4384  <S**2>=0.000
      59 -> 60         0.69772
 This state for optimization and/or second-order correction.
 Total Energy, E(TD-HF/TD-DFT) =  -1028.69389000
 Copying the excited state density for this state as the 1-particle RhoCI density.

 Excited state symmetry could not be determined.
 Excited State   2:      Singlet-?Sym    3.3349 eV  371.78 nm  f=0.0000  <S**2>=0.000
      58 -> 60         0.68404
      58 -> 62         0.11442
      58 -> 64         0.10419

 Excited state symmetry could not be determined.
 Excited State   3:      Singlet-?Sym    4.2741 eV  290.09 nm  f=0.4120  <S**2>=0.000
      57 -> 60         0.68412

 Alpha  occ. eigenvalues --  -89.10418 -19.20086 -14.53258 -10.42563 -10.37553
 Alpha  occ. eigenvalues --  -10.36162 -10.35261 -10.33516 -10.33419 -10.32872
 Alpha  occ. eigenvalues --  -10.32565 -10.31343 -10.30771 -10.30584 -10.29023
 Alpha  occ. eigenvalues --  -10.28143  -8.12474  -6.07349  -6.06961  -6.06495
 Alpha  occ. eigenvalues --   -1.13282  -1.08919  -0.98678  -0.95798  -0.93288
 Alpha  occ. eigenvalues --   -0.89057  -0.86915  -0.83966  -0.80750  -0.75874
 Alpha  occ. eigenvalues --   -0.74458  -0.72159  -0.69303  -0.67519  -0.64995
 Alpha  occ. eigenvalues --   -0.61088  -0.59764  -0.56515  -0.56259  -0.56088
 Alpha  occ. eigenvalues --   -0.55110  -0.53775  -0.53051  -0.50354  -0.48686
 Alpha  occ. eigenvalues --   -0.48661  -0.48307  -0.47087  -0.45605  -0.44891
 Alpha  occ. eigenvalues --   -0.43985  -0.42786  -0.42281  -0.39823  -0.36930
 Alpha  occ. eigenvalues --   -0.33835  -0.31528  -0.30646  -0.25346
 Alpha virt. eigenvalues --   -0.02228   0.03547   0.05581   0.06722   0.09727
 Alpha virt. eigenvalues --    0.10929   0.13614   0.14542   0.16007   0.16732
 Alpha virt. eigenvalues --    0.17861   0.19784   0.20752   0.21219   0.22620

 Mulliken charges:
               1
     1  C    0.018664
     2  C   -0.238528
     3  C    0.216735
     4  C   -0.010674
     5  C    0.011725
     6  C    0.004270
     7  H    0.025475
     8  H    0.032068
     9  H    0.029167
    10  H    0.027826
    11  N   -0.100556
    12  S    0.199957
    13  C   -0.065488
    14  C   -0.040862
    15  C    0.101016
    16  C   -0.037133
    17  H    0.010047
    18  C   -0.054272
    19  C    0.034728
    20  H    0.000542
    21  H   -0.001139
    22  H    0.013713
    23  C    0.082669
    24  O   -0.383257
    25  H    0.123308
 Sum of Mulliken charges =  -0.00000

 Dipole moment (field-independent basis, Debye):
    X=              2.6106    Y=             -6.2591    Z=             -0.0005  Tot=              6.7818
 Quadrupole moment (field-independent basis, Debye-Ang):
   XX=            -81.1511   YY=            -97.4266   ZZ=           -104.1319
   XY=             -5.8983   XZ=             -0.0008   YZ=             -0.0013

  Exact polarizability:     346.051    -117.888     290.703      -0.001       0.001      63.245
 Approx polarizability:     275.345     -39.246     264.246      -0.001       0.001      81.953

 ******    1 imaginary frequencies (negative Signs) ******

                      1                      2                      3
                      A                      A                      A
 Frequencies --    -71.8893                50.1413               102.2234
 Red. masses --      4.8613                 6.3955                 5.6482
 Frc consts  --      0.0148                 0.0095                 0.0348
 IR Inten    --      2.6599                 0.9023                 0.2610

                      4                      5                      6
                      A                      A                      A
 Frequencies --    111.3093               177.3918               225.3316
 Red. masses --      5.7604                 5.3446                 5.7166
 Frc consts  --      0.0420                 0.0991                 0.1710
 IR Inten    --      5.9924                 0.0031                 2.0257

                      7                      8                      9
                      A                      A                      A
 Frequencies --    263.8270               269.2368               284.8832
 Red. masses --      8.2783                 3.9603                 7.9957
 Frc consts  --      0.3395                 0.1691                 0.3823
 IR Inten    --      1.2969                 4.5785                 2.0605

                     10                     11                     12
                      A                      A                      A
 Frequencies --    339.3075               379.6336               413.5095
 Red. masses --      4.2294                 7.0576                 3.2178
 Frc consts  --      0.2869                 0.5993                 0.3242
 IR Inten    --      1.5257                 7.3035                15.6016

                     13                     14                     15
                      A                      A                      A
 Frequencies --    442.0057               496.0670               502.2463
 Red. masses --      3.9077                 1.2330                 8.3085
 Frc consts  --      0.4498                 0.1788                 1.2348
 IR Inten    --      7.5586                50.9079                10.9512

                     16                     17                     18
                      A                      A                      A
 Frequencies --    516.0543               540.9681               543.1569
 Red. masses --      3.1910                 6.2411                 9.0327
 Frc consts  --      0.5007                 1.0761                 1.5701
 IR Inten    --      2.4205                22.0594                28.9438

                     19                     20                     21
                      A                      A                      A
 Frequencies --    560.3277               566.0767               640.5432
 Red. masses --      3.7390                 7.3220                 6.4170
 Frc consts  --      0.6916                 1.3824                 1.5512
 IR Inten    --      0.0967                 6.2630                14.5147

                     22                     23                     24
                      A                      A                      A
 Frequencies --    691.3594               712.8758               738.8101
 Red. masses --      1.4967                 5.7900                 7.5175
 Frc consts  --      0.4215                 1.7336                 2.4176
 IR Inten    --     32.3290                 1.6208                 5.8141

                     25                     26                     27
                      A                      A                      A
 Frequencies --    744.6862               757.0512               766.5497
 Red. masses --      2.3768                 1.6751                 1.7418
 Frc consts  --      0.7766                 0.5656                 0.6030
 IR Inten    --     23.4301                11.1346                81.2124

                     28                     29                     30
                      A                      A                      A
 Frequencies --    822.8857               836.0603               865.9164
 Red. masses --      6.2618                 2.0431                 1.3840
 Frc consts  --      2.4982                 0.8414                 0.6114
 IR Inten    --     16.2301                 1.4166                 1.1724

                     31                     32                     33
                      A                      A                      A
 Frequencies --    889.0414               898.9081               952.5168
 Red. masses --      5.5066                 1.4524                 1.3577
 Frc consts  --      2.5644                 0.6914                 0.7258
 IR Inten    --      2.0533                 9.1361                 0.3261

                     34                     35                     36
                      A                      A                      A
 Frequencies --    957.5242               967.3259              1003.2014
 Red. masses --      1.3533                 5.0815                 1.2978
 Frc consts  --      0.7311                 2.8015                 0.7696
 IR Inten    --      1.7872                 1.7435                 0.0024

                     37                     38                     39
                      A                      A                      A
 Frequencies --   1046.1964              1054.9169              1091.2409
 Red. masses --      2.2217                 2.1294                 3.3389
 Frc consts  --      1.4327                 1.3962                 2.3426
 IR Inten    --      0.7558                 8.4474                 5.5089

                     40                     41                     42
                      A                      A                      A
 Frequencies --   1101.4913              1153.3611              1158.8097
 Red. masses --      1.7754                 1.3574                 1.2240
 Frc consts  --      1.2691                 1.0639                 0.9684
 IR Inten    --     23.0055                 6.9059                60.1409

                     43                     44                     45
                      A                      A                      A
 Frequencies --   1177.0619              1186.6734              1237.0022
 Red. masses --      1.1702                 1.4094                 2.8093
 Frc consts  --      0.9553                 1.1693                 2.5327
 IR Inten    --     34.1549                17.6459                20.2785

                     46                     47                     48
                      A                      A                      A
 Frequencies --   1251.5221              1300.1949              1334.6815
 Red. masses --      2.2236                 1.5870                 4.0645
 Frc consts  --      2.0520                 1.5807                 4.2659
 IR Inten    --     40.8320                 4.6411                 6.3625

                     49                     50                     51
                      A                      A                      A
 Frequencies --   1358.9784              1399.7944              1407.0987
 Red. masses --      2.7077                 5.1387                 2.4222
 Frc consts  --      2.9463                 5.9324                 2.8255
 IR Inten    --     66.7520                60.2904                34.0731

                     52                     53                     54
                      A                      A                      A
 Frequencies --   1441.1328              1468.8274              1515.9693
 Red. masses --      2.7606                 3.3728                 3.4116
 Frc consts  --      3.3780                 4.2872                 4.6194
 IR Inten    --    116.0020                 5.1960                91.7246

                     55                     56                     57
                      A                      A                      A
 Frequencies --   1519.4195              1543.0030              1608.6849
 Red. masses --      3.0992                 4.7865                 5.1925
 Frc consts  --      4.2156                 6.7144                 7.9172
 IR Inten    --      2.9890               193.4365               101.9478

                     58                     59                     60
                      A                      A                      A
 Frequencies --   1634.5971              1666.7209              1673.6944
 Red. masses --      8.4006                 6.9322                 7.1130
 Frc consts  --     13.2246                11.3461                11.7397
 IR Inten    --    154.4434                71.8921                59.6362

                     61                     62                     63
                      A                      A                      A
 Frequencies --   3194.0206              3207.9670              3211.9721
 Red. masses --      1.0886                 1.0865                 1.0863
 Frc consts  --      6.5430                 6.5877                 6.6032
 IR Inten    --     27.8301                 3.6183                 4.3401

                     64                     65                     66
                      A                      A                      A
 Frequencies --   3219.6349              3222.7157              3230.2440
 Red. masses --      1.0916                 1.0901                 1.0960
 Frc consts  --      6.6668                 6.6707                 6.7378
 IR Inten    --     14.9351                 2.1669                 6.8971

                     67                     68                     69
                      A                      A                      A
 Frequencies --   3233.4373              3239.4281              3835.6945
 Red. masses --      1.0990                 1.0995                 1.0791
 Frc consts  --      6.7698                 6.7979                 9.3539
 IR Inten    --     27.7211                12.4294               232.5880

 - Thermochemistry -
 -------------------
 Temperature   298.150 Kelvin.  Pressure   1.00000 Atm.
 Atom     1 has atomic number  6 and mass  12.00000

 Molecular mass:   227.04049 amu.
 Principal axes and moments of inertia in atomic units:
                           1         2         3
     Eigenvalues --  1261.890106530.855237792.74532
           X           -0.70507   0.70914   0.00000
           Y            0.70914   0.70507  -0.00001
           Z            0.00001   0.00000   1.00000
 This molecule is an asymmetric top.
 Rotational symmetry number  1.
 Warning -- assumption of classical behavior for rotation
           may cause significant error
 Rotational temperatures (Kelvin)      0.06864     0.01326     0.01111
 Rotational constants (GHZ):           1.43019     0.27634     0.23159
    1 imaginary frequencies ignored.
 Zero-point vibrational energy     490200.6 (Joules/Mol)
                                  117.16076 (Kcal/Mol)
 Warning -- explicit consideration of  19 degrees of freedom as
           vibrations may cause significant error
 Vibrational temperatures:     72.14   147.08   160.15   255.23   324.20
          (Kelvin)            379.59   387.37   409.88   488.19   546.21
                              594.95   635.95   713.73   722.62   742.49
                              778.33   781.48   806.19   814.46   921.60
                              994.71  1025.67  1062.98  1071.44  1089.23
                             1102.89  1183.95  1202.90  1245.86  1279.13
                             1293.33  1370.46  1377.66  1391.77  1443.38
                             1505.24  1517.79  1570.05  1584.80  1659.43
                             1667.27  1693.53  1707.36  1779.77  1800.66
                             1870.69  1920.31  1955.27  2013.99  2024.50
                             2073.47  2113.32  2181.14  2186.11  2220.04
                             2314.54  2351.82  2398.04  2408.07  4595.48
                             4615.55  4621.31  4632.34  4636.77  4647.60
                             4652.20  4660.81  5518.71

 Zero-point correction=                           0.186708 (Hartree/Particle)
 Thermal correction to Energy=                    0.198499
 Thermal correction to Enthalpy=                  0.199444
 Thermal correction to Gibbs Free Energy=         0.148498
 Sum of electronic and zero-point Energies=          -1028.507182
 Sum of electronic and thermal Energies=             -1028.495391
 Sum of electronic and thermal Enthalpies=           -1028.494446
 Sum of electronic and thermal Free Energies=        -1028.545392

                     E (Thermal)             CV                S
                      KCal/Mol        Cal/Mol-Kelvin    Cal/Mol-Kelvin
 Total                  124.560             48.452            107.224
 Electronic               0.000              0.000              0.000
 Translational            0.889              2.981             42.162
 Rotational               0.889              2.981             32.529
 Vibrational            122.783             42.491             32.532
 Vibration     1          0.595              1.978              4.812
 Vibration     2          0.604              1.947              3.411
 Vibration     3          0.607              1.940              3.246
 Vibration     4          0.628              1.870              2.356
 Vibration     5          0.650              1.802              1.916
 Vibration     6          0.670              1.739              1.636
 Vibration     7          0.674              1.730              1.601
 Vibration     8          0.683              1.702              1.504
 Vibration     9          0.719              1.597              1.215
 Vibration    10          0.750              1.514              1.041
 Vibration    11          0.777              1.441              0.914
 Vibration    12          0.802              1.379              0.820
 Vibration    13          0.852              1.259              0.668
 Vibration    14          0.858              1.245              0.653
 Vibration    15          0.871              1.214              0.619
 Vibration    16          0.896              1.159              0.563
 Vibration    17          0.898              1.155              0.559
 Vibration    18          0.916              1.117              0.523
 Vibration    19          0.922              1.105              0.512

 Optimization completed.
    -- Stationary point found.
 Normal termination of Gaussian 16 at Tue Jul 14 11:28:22 2020.
