 Gaussian 16, Revision C.01,
 Gaussian 16:  ES64L-G16RevC.01  3-Jul-2019

 ----------------------------------------------------------------------
 #p opt=addgic freq td wb97xd/cc-pvdz nosymm int=ultrafine scrf=(solven
 t=CarbonTetraChloride)
 ----------------------------------------------------------------------

 ------------------------------------------------
 NM 2D-scan of HBT TD-WB97XD pVDZ in CTC Relaxed.
 ------------------------------------------------
 Symbolic Z-matrix:
 Charge =  0 Multiplicity = 1

 SCF Done:  E(RwB97XD) =  -1028.81476595     A.U. after   15 cycles
 Total Energy, E(TD-HF/TD-DFT) =  -1028.68752443
 SCF Done:  E(RwB97XD) =  -1028.81573917     A.U. after   12 cycles
 Total Energy, E(TD-HF/TD-DFT) =  -1028.68880101
 SCF Done:  E(RwB97XD) =  -1028.81495748     A.U. after   12 cycles
 Total Energy, E(TD-HF/TD-DFT) =  -1028.68944084
 SCF Done:  E(RwB97XD) =  -1028.81506592     A.U. after   11 cycles
 Total Energy, E(TD-HF/TD-DFT) =  -1028.68954554
 SCF Done:  E(RwB97XD) =  -1028.81515341     A.U. after   10 cycles
 Total Energy, E(TD-HF/TD-DFT) =  -1028.68955279
 SCF Done:  E(RwB97XD) =  -1028.81517189     A.U. after    8 cycles
 Total Energy, E(TD-HF/TD-DFT) =  -1028.68955293
 SCF Done:  E(RwB97XD) =  -1028.81519761     A.U. after    8 cycles
 Total Energy, E(TD-HF/TD-DFT) =  -1028.68955323
 SCF Done:  E(RwB97XD) =  -1028.81518158     A.U. after    7 cycles
 Total Energy, E(TD-HF/TD-DFT) =  -1028.68955336
 Optimization completed.
    -- Stationary point found.
 Normal termination of Gaussian 16 at Mon Jul 13 14:14:09 2020.

 ----------------------------------------------------------------------
 #P Geom=AllCheck Guess=TCheck SCRF=Check GenChk RwB97XD TD(FC,Read)/CC
 -pVDZ Freq
 ----------------------------------------------------------------------

 Structure from the checkpoint file:  "config_5_3.chk"
 ------------------------------------------------
 NM 2D-scan of HBT TD-WB97XD pVDZ in CTC Relaxed.
 ------------------------------------------------
 Charge =  0 Multiplicity = 1

                          Input orientation:
 ---------------------------------------------------------------------
 Center     Atomic      Atomic             Coordinates (Angstroms)
 Number     Number       Type             X           Y           Z
 ---------------------------------------------------------------------
      1          6           0        1.734163   -3.278019   -0.000046
      2          6           0        0.993794   -2.096299   -0.000015
      3          6           0        1.659702   -0.833898    0.000014
      4          6           0        3.072880   -0.769747    0.000014
      5          6           0        3.789529   -1.947873   -0.000019
      6          6           0        3.129967   -3.193605   -0.000050
      7          1           0        1.241650   -4.251250   -0.000070
      8          1           0        3.558869    0.206453    0.000037
      9          1           0        4.880586   -1.918555   -0.000022
     10          1           0        3.717845   -4.112667   -0.000076
     11          7           0        0.860126    0.235608    0.000038
     12         16           0       -0.753463   -1.838571   -0.000006
     13          6           0       -1.404392    1.004126    0.000012
     14          6           0       -2.814656    0.884586    0.000004
     15          6           0       -0.874396    2.396221    0.000014
     16          6           0       -3.639607    2.009954    0.000025
     17          1           0       -3.263831   -0.110085   -0.000011
     18          6           0       -1.742744    3.502375    0.000044
     19          6           0       -3.117493    3.322993    0.000052
     20          1           0       -4.721675    1.867979    0.000025
     21          1           0       -1.281927    4.490610    0.000052
     22          1           0       -3.788469    4.182050    0.000073
     23          6           0       -0.464162   -0.061785    0.000020
     24          8           0        0.407164    2.640851   -0.000017
     25          1           0        0.883004    1.698282   -0.000002
 ---------------------------------------------------------------------

 SCF Done:  E(RwB97XD) =  -1028.81518158     A.U. after    1 cycles

 Excitation energies and oscillator strengths:

 Excited state symmetry could not be determined.
 Excited State   1:      Singlet-?Sym    3.4185 eV  362.68 nm  f=0.6079  <S**2>=0.000
      59 -> 60         0.69095
 This state for optimization and/or second-order correction.
 Total Energy, E(TD-HF/TD-DFT) =  -1028.68955338
 Copying the excited state density for this state as the 1-particle RhoCI density.

 Excited state symmetry could not be determined.
 Excited State   2:      Singlet-?Sym    4.3870 eV  282.62 nm  f=0.3181  <S**2>=0.000
      57 -> 60         0.16498
      58 -> 60         0.64780
      59 -> 62         0.11024
      59 -> 64         0.11799

 Excited state symmetry could not be determined.
 Excited State   3:      Singlet-?Sym    4.6415 eV  267.12 nm  f=0.0386  <S**2>=0.000
      56 -> 61        -0.10509
      57 -> 60         0.58314
      57 -> 62        -0.14558
      58 -> 60        -0.15860
      58 -> 61        -0.16154
      59 -> 61         0.24298

 Alpha  occ. eigenvalues --  -89.09482 -19.27162 -14.47298 -10.40307 -10.37881
 Alpha  occ. eigenvalues --  -10.35168 -10.35126 -10.32658 -10.32487 -10.32193
 Alpha  occ. eigenvalues --  -10.31727 -10.31610 -10.31585 -10.31484 -10.30219
 Alpha  occ. eigenvalues --  -10.29930  -8.11347  -6.06213  -6.05865  -6.05394
 Alpha  occ. eigenvalues --   -1.16342  -1.08779  -0.96768  -0.95471  -0.91713
 Alpha  occ. eigenvalues --   -0.88845  -0.84955  -0.84204  -0.82393  -0.75948
 Alpha  occ. eigenvalues --   -0.71019  -0.70233  -0.68960  -0.68365  -0.63327
 Alpha  occ. eigenvalues --   -0.60536  -0.58854  -0.58485  -0.55667  -0.54348
 Alpha  occ. eigenvalues --   -0.53996  -0.53091  -0.52698  -0.51168  -0.50138
 Alpha  occ. eigenvalues --   -0.49587  -0.47651  -0.45998  -0.45528  -0.44766
 Alpha  occ. eigenvalues --   -0.43776  -0.42648  -0.42571  -0.40158  -0.36586
 Alpha  occ. eigenvalues --   -0.36484  -0.32416  -0.31228  -0.27838
 Alpha virt. eigenvalues --   -0.01776   0.04900   0.06986   0.07095   0.07417
 Alpha virt. eigenvalues --    0.10929   0.12943   0.15079   0.15917   0.17910
 Alpha virt. eigenvalues --    0.18700   0.20888   0.21707   0.22395   0.22543

 Mulliken charges:
               1
     1  C    0.009047
     2  C   -0.230744
     3  C    0.257940
     4  C   -0.015641
     5  C    0.010250
     6  C   -0.006705
     7  H    0.020276
     8  H    0.019881
     9  H    0.020153
    10  H    0.021652
    11  N   -0.346485
    12  S    0.162168
    13  C   -0.108685
    14  C   -0.016141
    15  C    0.100748
    16  C   -0.020745
    17  H    0.008645
    18  C    0.004674
    19  C    0.024816
    20  H    0.010053
    21  H    0.015976
    22  H    0.021169
    23  C    0.081780
    24  O   -0.234662
    25  H    0.190582
 Sum of Mulliken charges =  -0.00000

 Dipole moment (field-independent basis, Debye):
    X=              0.0180    Y=             -2.4144    Z=             -0.0000  Tot=              2.4145
 Quadrupole moment (field-independent basis, Debye-Ang):
   XX=            -83.3177   YY=            -89.6331   ZZ=           -104.4286
   XY=             -6.9254   XZ=             -0.0001   YZ=              0.0004

  Exact polarizability:     391.433    -175.857     363.276      -0.002       0.004      63.475
 Approx polarizability:     278.380     -35.838     262.095      -0.001       0.003      82.462

                      1                      2                      3
                      A                      A                      A
 Frequencies --     18.9786                44.0040               102.8067
 Red. masses --      6.4985                 6.6074                 5.4048
 Frc consts  --      0.0014                 0.0075                 0.0337
 IR Inten    --      0.5103                 1.0616                 0.6963

                      4                      5                      6
                      A                      A                      A
 Frequencies --    104.7796               176.9414               222.9498
 Red. masses --      4.5016                 6.0694                 5.3336
 Frc consts  --      0.0291                 0.1120                 0.1562
 IR Inten    --      0.1682                 0.7687                 0.0237

                      7                      8                      9
                      A                      A                      A
 Frequencies --    267.4116               268.5717               292.2822
 Red. masses --      7.5991                 4.8007                 5.7761
 Frc consts  --      0.3202                 0.2040                 0.2907
 IR Inten    --     22.1620                 0.1973                13.8205

                     10                     11                     12
                      A                      A                      A
 Frequencies --    385.2313               395.0786               437.3145
 Red. masses --      4.7791                 8.8940                 3.2237
 Frc consts  --      0.4179                 0.8179                 0.3632
 IR Inten    --      0.3132                 9.5382                 4.8338

                     13                     14                     15
                      A                      A                      A
 Frequencies --    486.8287               488.9174               497.3501
 Red. masses --      4.6581                 4.3301                 3.1622
 Frc consts  --      0.6504                 0.6099                 0.4609
 IR Inten    --      0.0973                12.6075                 0.0692

                     16                     17                     18
                      A                      A                      A
 Frequencies --    504.1592               527.8031               552.8561
 Red. masses --      8.0591                 8.4585                 3.9426
 Frc consts  --      1.2069                 1.3883                 0.7100
 IR Inten    --      1.0182                26.1588                 0.1503

                     19                     20                     21
                      A                      A                      A
 Frequencies --    580.1176               635.5240               692.6754
 Red. masses --      7.5580                 6.8721                 7.3885
 Frc consts  --      1.4986                 1.6353                 2.0887
 IR Inten    --     11.3607                57.2209                 3.6515

                     22                     23                     24
                      A                      A                      A
 Frequencies --    705.7337               720.7319               736.5204
 Red. masses --      1.7490                 8.7300                 1.9489
 Frc consts  --      0.5132                 2.6719                 0.6229
 IR Inten    --     40.2860                16.0137                25.0076

                     25                     26                     27
                      A                      A                      A
 Frequencies --    757.0594               768.9072               807.7918
 Red. masses --      1.9006                 1.9754                 6.3826
 Frc consts  --      0.6418                 0.6881                 2.4538
 IR Inten    --     30.3827                55.1493                 9.4967

                     28                     29                     30
                      A                      A                      A
 Frequencies --    823.4638               858.4815               899.4172
 Red. masses --      1.6065                 1.4214                 6.4326
 Frc consts  --      0.6418                 0.6172                 3.0659
 IR Inten    --      0.0708                 0.9321                45.7625

                     31                     32                     33
                      A                      A                      A
 Frequencies --    915.6585               952.2231               961.1707
 Red. masses --      1.3562                 1.3443                 1.3702
 Frc consts  --      0.6700                 0.7181                 0.7458
 IR Inten    --      5.6042                 1.6771                 0.4265

                     34                     35                     36
                      A                      A                      A
 Frequencies --    962.7551               999.0057              1037.7268
 Red. masses --      6.9077                 1.2969                 2.2236
 Frc consts  --      3.7724                 0.7626                 1.4108
 IR Inten    --     13.8218                 0.0310                 1.4377

                     37                     38                     39
                      A                      A                      A
 Frequencies --   1042.4297              1071.0457              1114.2297
 Red. masses --      2.2026                 4.1927                 1.0604
 Frc consts  --      1.4102                 2.8337                 0.7757
 IR Inten    --      0.8123                48.3473                65.0735

                     40                     41                     42
                      A                      A                      A
 Frequencies --   1126.6447              1145.7221              1171.0372
 Red. masses --      1.5504                 1.3137                 1.1523
 Frc consts  --      1.1595                 1.0160                 0.9310
 IR Inten    --     58.3175                12.7365                33.3354

                     43                     44                     45
                      A                      A                      A
 Frequencies --   1176.5290              1236.8124              1248.0441
 Red. masses --      1.1702                 2.5699                 2.2120
 Frc consts  --      0.9544                 2.3162                 2.0300
 IR Inten    --     23.0335               121.2993                69.9870

                     46                     47                     48
                      A                      A                      A
 Frequencies --   1276.5732              1283.4424              1362.9116
 Red. masses --      3.6782                 1.7010                 2.6128
 Frc consts  --      3.5317                 1.6508                 2.8596
 IR Inten    --    189.5686                 7.2662                 0.1255

                     49                     50                     51
                      A                      A                      A
 Frequencies --   1376.1791              1402.7810              1442.5414
 Red. masses --      5.1097                 2.0637                 2.4384
 Frc consts  --      5.7015                 2.3927                 2.9895
 IR Inten    --    117.6967                 0.2672               131.6347

                     52                     53                     54
                      A                      A                      A
 Frequencies --   1475.3019              1490.9821              1517.8219
 Red. masses --      3.9912                 3.3629                 5.1383
 Frc consts  --      5.1182                 4.4046                 6.9745
 IR Inten    --     92.9893                75.8333               433.4515

                     55                     56                     57
                      A                      A                      A
 Frequencies --   1531.8633              1553.5828              1581.8981
 Red. masses --      4.0244                 4.7070                 3.4362
 Frc consts  --      5.5641                 6.6936                 5.0662
 IR Inten    --    139.1688               542.2109                57.0049

                     58                     59                     60
                      A                      A                      A
 Frequencies --   1615.9886              1645.0526              1660.2482
 Red. masses --      5.8639                 3.6425                 3.1814
 Frc consts  --      9.0222                 5.8077                 5.1667
 IR Inten    --    273.0932               757.6210                35.4850

                     61                     62                     63
                      A                      A                      A
 Frequencies --   2140.2321              3204.7268              3207.7018
 Red. masses --      1.1153                 1.0870                 1.0860
 Frc consts  --      3.0099                 6.5774                 6.5834
 IR Inten    --    415.0385                 8.3321                 7.8843

                     64                     65                     66
                      A                      A                      A
 Frequencies --   3217.4919              3217.7447              3226.0530
 Red. masses --      1.0898                 1.0895                 1.0929
 Frc consts  --      6.6474                 6.6465                 6.7013
 IR Inten    --      2.7818                 2.6588                19.3847

                     67                     68                     69
                      A                      A                      A
 Frequencies --   3228.4333              3235.5236              3239.0293
 Red. masses --      1.0954                 1.0993                 1.0988
 Frc consts  --      6.7267                 6.7805                 6.7918
 IR Inten    --     10.8314                36.3127                19.1868

 - Thermochemistry -
 -------------------
 Temperature   298.150 Kelvin.  Pressure   1.00000 Atm.
 Atom     1 has atomic number  6 and mass  12.00000

 Molecular mass:   227.04049 amu.
 Principal axes and moments of inertia in atomic units:
                           1         2         3
     Eigenvalues --  1343.325016326.348567669.67357
           X           -0.70017   0.71397   0.00000
           Y            0.71397   0.70017  -0.00001
           Z            0.00001   0.00000   1.00000
 This molecule is an asymmetric top.
 Rotational symmetry number  1.
 Warning -- assumption of classical behavior for rotation
           may cause significant error
 Rotational temperatures (Kelvin)      0.06448     0.01369     0.01129
 Rotational constants (GHZ):           1.34349     0.28527     0.23531
 Zero-point vibrational energy     484821.5 (Joules/Mol)
                                  115.87512 (Kcal/Mol)
 Warning -- explicit consideration of  19 degrees of freedom as
           vibrations may cause significant error
 Vibrational temperatures:     27.31    63.31   147.92   150.75   254.58
          (Kelvin)            320.77   384.75   386.41   420.53   554.26
                              568.43   629.20   700.44   703.44   715.58
                              725.37   759.39   795.44   834.66   914.38
                              996.61  1015.39  1036.97  1059.69  1089.24
                             1106.29  1162.23  1184.78  1235.16  1294.06
                             1317.43  1370.04  1382.91  1385.19  1437.35
                             1493.06  1499.82  1541.00  1603.13  1620.99
                             1648.44  1684.86  1692.76  1779.50  1795.66
                             1836.70  1846.59  1960.93  1980.01  2018.29
                             2075.50  2122.63  2145.19  2183.81  2204.01
                             2235.26  2276.00  2325.05  2366.86  2388.73
                             3079.32  4610.89  4615.17  4629.25  4629.62
                             4641.57  4645.00  4655.20  4660.24

 Zero-point correction=                           0.184659 (Hartree/Particle)
 Thermal correction to Energy=                    0.197109
 Thermal correction to Enthalpy=                  0.198053
 Thermal correction to Gibbs Free Energy=         0.144147
 Sum of electronic and zero-point Energies=          -1028.504895
 Sum of electronic and thermal Energies=             -1028.492445
 Sum of electronic and thermal Enthalpies=           -1028.491501
 Sum of electronic and thermal Free Energies=        -1028.545406

                     E (Thermal)             CV                S
                      KCal/Mol        Cal/Mol-Kelvin    Cal/Mol-Kelvin
 Total                  123.687             49.360            113.454
 Electronic               0.000              0.000              0.000
 Translational            0.889              2.981             42.162
 Rotational               0.889              2.981             32.544
 Vibrational            121.910             43.399             38.748
 Vibration     1          0.593              1.986              6.738
 Vibration     2          0.595              1.980              5.070
 Vibration     3          0.605              1.947              3.400
 Vibration     4          0.605              1.945              3.363
 Vibration     5          0.628              1.871              2.360
 Vibration     6          0.649              1.806              1.935
 Vibration     7          0.673              1.733              1.613
 Vibration     8          0.673              1.731              1.605
 Vibration     9          0.688              1.688              1.461
 Vibration    10          0.754              1.502              1.019
 Vibration    11          0.762              1.481              0.981
 Vibration    12          0.798              1.389              0.835
 Vibration    13          0.843              1.279              0.692
 Vibration    14          0.845              1.275              0.686
 Vibration    15          0.853              1.256              0.665
 Vibration    16          0.859              1.241              0.648
 Vibration    17          0.883              1.188              0.592
 Vibration    18          0.908              1.133              0.538
 Vibration    19          0.937              1.074              0.485

 Optimization completed.
    -- Stationary point found.
 Normal termination of Gaussian 16 at Mon Jul 13 14:31:48 2020.
