 Gaussian 16, Revision C.01,
 Gaussian 16:  ES64L-G16RevC.01  3-Jul-2019

 ----------------------------------------------------------------------
 #p opt=addgic freq td wb97xd/cc-pvdz nosymm int=ultrafine scrf=(solven
 t=CarbonTetraChloride)
 ----------------------------------------------------------------------

 ------------------------------------------------
 NM 2D-scan of HBT TD-WB97XD pVDZ in CTC Relaxed.
 ------------------------------------------------
 Symbolic Z-matrix:
 Charge =  0 Multiplicity = 1

 SCF Done:  E(RwB97XD) =  -1028.81030118     A.U. after   15 cycles
 Total Energy, E(TD-HF/TD-DFT) =  -1028.67964061
 SCF Done:  E(RwB97XD) =  -1028.82027185     A.U. after   13 cycles
 Total Energy, E(TD-HF/TD-DFT) =  -1028.69120554
 SCF Done:  E(RwB97XD) =  -1028.82023223     A.U. after   12 cycles
 Total Energy, E(TD-HF/TD-DFT) =  -1028.69210981
 SCF Done:  E(RwB97XD) =  -1028.82026029     A.U. after   10 cycles
 Total Energy, E(TD-HF/TD-DFT) =  -1028.69213947
 SCF Done:  E(RwB97XD) =  -1028.82020738     A.U. after    9 cycles
 Total Energy, E(TD-HF/TD-DFT) =  -1028.69214349
 SCF Done:  E(RwB97XD) =  -1028.82024536     A.U. after    8 cycles
 Total Energy, E(TD-HF/TD-DFT) =  -1028.69214486
 Optimization completed.
    -- Stationary point found.
 Normal termination of Gaussian 16 at Mon Jul 13 17:18:20 2020.

 ----------------------------------------------------------------------
 #P Geom=AllCheck Guess=TCheck SCRF=Check GenChk RwB97XD TD(FC,Read)/CC
 -pVDZ Freq
 ----------------------------------------------------------------------

 Structure from the checkpoint file:  "config_3_15.chk"
 ------------------------------------------------
 NM 2D-scan of HBT TD-WB97XD pVDZ in CTC Relaxed.
 ------------------------------------------------
 Charge =  0 Multiplicity = 1

                          Input orientation:
 ---------------------------------------------------------------------
 Center     Atomic      Atomic             Coordinates (Angstroms)
 Number     Number       Type             X           Y           Z
 ---------------------------------------------------------------------
      1          6           0        1.563813   -3.272978   -0.000027
      2          6           0        0.983171   -2.008770   -0.000014
      3          6           0        1.758954   -0.801349   -0.000015
      4          6           0        3.174104   -0.927169   -0.000032
      5          6           0        3.739348   -2.190311   -0.000045
      6          6           0        2.951717   -3.361267   -0.000043
      7          1           0        0.942536   -4.169442   -0.000026
      8          1           0        3.792380   -0.028821   -0.000034
      9          1           0        4.826871   -2.285263   -0.000058
     10          1           0        3.433562   -4.339865   -0.000053
     11          7           0        1.038447    0.338596    0.000004
     12         16           0       -0.716183   -1.637882    0.000005
     13          6           0       -1.306342    1.067898    0.000042
     14          6           0       -2.691625    0.756634    0.000043
     15          6           0       -0.923777    2.484014    0.000044
     16          6           0       -3.642501    1.764273    0.000023
     17          1           0       -3.006397   -0.287849    0.000052
     18          6           0       -1.914060    3.478918    0.000016
     19          6           0       -3.262314    3.125889    0.000002
     20          1           0       -4.701589    1.501856    0.000017
     21          1           0       -1.593642    4.521181    0.000012
     22          1           0       -4.027608    3.902743   -0.000018
     23          6           0       -0.302020    0.084900    0.000023
     24          8           0        0.348868    2.802867    0.000080
     25          1           0        0.898407    1.932143    0.000119
 ---------------------------------------------------------------------

 SCF Done:  E(RwB97XD) =  -1028.82024536     A.U. after    1 cycles

 Excitation energies and oscillator strengths:

 Excited state symmetry could not be determined.
 Excited State   1:      Singlet-?Sym    3.4858 eV  355.68 nm  f=0.6786  <S**2>=0.000
      59 -> 60         0.68897
 This state for optimization and/or second-order correction.
 Total Energy, E(TD-HF/TD-DFT) =  -1028.69214488
 Copying the excited state density for this state as the 1-particle RhoCI density.

 Excited state symmetry could not be determined.
 Excited State   2:      Singlet-?Sym    4.3866 eV  282.65 nm  f=0.1731  <S**2>=0.000
      57 -> 60         0.29991
      58 -> 60         0.59083
      59 -> 62         0.12611

 Excited state symmetry could not be determined.
 Excited State   3:      Singlet-?Sym    4.6029 eV  269.36 nm  f=0.0911  <S**2>=0.000
      57 -> 60         0.55093
      57 -> 62        -0.13119
      58 -> 60        -0.29390
      58 -> 61        -0.11725
      59 -> 61         0.21212

 Alpha  occ. eigenvalues --  -89.08816 -19.28297 -14.47381 -10.39687 -10.38110
 Alpha  occ. eigenvalues --  -10.35234 -10.34623 -10.32346 -10.32302 -10.32076
 Alpha  occ. eigenvalues --  -10.32068 -10.31545 -10.31380 -10.31312 -10.30525
 Alpha  occ. eigenvalues --  -10.30502  -8.10848  -6.05685  -6.05347  -6.04911
 Alpha  occ. eigenvalues --   -1.16982  -1.08259  -0.96801  -0.95806  -0.92062
 Alpha  occ. eigenvalues --   -0.88810  -0.85048  -0.84538  -0.82308  -0.75958
 Alpha  occ. eigenvalues --   -0.71263  -0.70250  -0.69177  -0.68141  -0.63615
 Alpha  occ. eigenvalues --   -0.60452  -0.58952  -0.58699  -0.55983  -0.54462
 Alpha  occ. eigenvalues --   -0.53871  -0.53339  -0.52974  -0.50660  -0.50440
 Alpha  occ. eigenvalues --   -0.49354  -0.47508  -0.45952  -0.45648  -0.44804
 Alpha  occ. eigenvalues --   -0.44069  -0.42947  -0.42235  -0.40062  -0.37371
 Alpha  occ. eigenvalues --   -0.36460  -0.32033  -0.31543  -0.28109
 Alpha virt. eigenvalues --   -0.01804   0.05134   0.06891   0.07157   0.07716
 Alpha virt. eigenvalues --    0.11095   0.14318   0.15202   0.16756   0.18058
 Alpha virt. eigenvalues --    0.18576   0.21157   0.21565   0.22359   0.22687

 Mulliken charges:
               1
     1  C    0.019166
     2  C   -0.219581
     3  C    0.221227
     4  C   -0.019770
     5  C    0.005561
     6  C   -0.004951
     7  H    0.017080
     8  H    0.017667
     9  H    0.018876
    10  H    0.020207
    11  N   -0.365978
    12  S    0.158190
    13  C   -0.077866
    14  C   -0.025647
    15  C    0.089459
    16  C   -0.010894
    17  H    0.020717
    18  C    0.003999
    19  C    0.022909
    20  H    0.011206
    21  H    0.019323
    22  H    0.023263
    23  C    0.085280
    24  O   -0.213141
    25  H    0.183698
 Sum of Mulliken charges =  -0.00000

 Dipole moment (field-independent basis, Debye):
    X=             -0.6102    Y=             -2.1767    Z=              0.0000  Tot=              2.2606
 Quadrupole moment (field-independent basis, Debye-Ang):
   XX=            -83.1967   YY=            -89.5552   ZZ=           -104.3159
   XY=             -7.0788   XZ=              0.0000   YZ=             -0.0000

  Exact polarizability:     396.022    -187.823     379.042      -0.003       0.003      63.326
 Approx polarizability:     277.371     -36.064     259.870      -0.001       0.001      82.355

                      1                      2                      3
                      A                      A                      A
 Frequencies --     46.2316                59.4358               108.8146
 Red. masses --      6.0337                 5.5636                 5.1264
 Frc consts  --      0.0076                 0.0116                 0.0358
 IR Inten    --      1.4809                 0.0004                 0.1484

                      4                      5                      6
                      A                      A                      A
 Frequencies --    111.0214               178.3810               223.6065
 Red. masses --      5.5932                 6.4851                 5.3308
 Frc consts  --      0.0406                 0.1216                 0.1570
 IR Inten    --      2.0333                 1.3593                 0.0001

                      7                      8                      9
                      A                      A                      A
 Frequencies --    269.7693               272.6206               302.1874
 Red. masses --      7.6483                 4.8319                 6.5797
 Frc consts  --      0.3279                 0.2116                 0.3540
 IR Inten    --     28.0632                 0.0326                 5.2570

                     10                     11                     12
                      A                      A                      A
 Frequencies --    387.5454               408.4620               440.7710
 Red. masses --      4.5799                 9.4491                 3.2433
 Frc consts  --      0.4053                 0.9288                 0.3713
 IR Inten    --      0.0680                13.7154                 4.0134

                     13                     14                     15
                      A                      A                      A
 Frequencies --    487.8521               501.5585               506.0637
 Red. masses --      4.5669                 8.1689                 3.1620
 Frc consts  --      0.6404                 1.2108                 0.4771
 IR Inten    --      0.1279                 2.5344                 0.0024

                     16                     17                     18
                      A                      A                      A
 Frequencies --    517.5731               527.8085               554.4767
 Red. masses --      4.8958                 8.1038                 3.9596
 Frc consts  --      0.7727                 1.3301                 0.7172
 IR Inten    --     18.0848                46.3237                 0.1336

                     19                     20                     21
                      A                      A                      A
 Frequencies --    576.6185               643.5633               708.3741
 Red. masses --      7.6669                 6.6126                 8.7621
 Frc consts  --      1.5019                 1.6136                 2.5905
 IR Inten    --     28.3184                27.6309                28.8174

                     22                     23                     24
                      A                      A                      A
 Frequencies --    717.9564               721.1449               738.1252
 Red. masses --      1.6413                 7.5322                 1.7802
 Frc consts  --      0.4985                 2.3079                 0.5714
 IR Inten    --     53.3818                26.6245                42.8886

                     25                     26                     27
                      A                      A                      A
 Frequencies --    744.9787               770.1457               812.8924
 Red. masses --      1.9253                 2.2231                 1.7281
 Frc consts  --      0.6296                 0.7769                 0.6728
 IR Inten    --     12.3496                48.2470                 2.3918

                     28                     29                     30
                      A                      A                      A
 Frequencies --    821.8859               860.5745               888.8228
 Red. masses --      6.2032                 1.4259                 6.4387
 Frc consts  --      2.4688                 0.6222                 2.9970
 IR Inten    --     15.8210                 0.9626                64.6522

                     31                     32                     33
                      A                      A                      A
 Frequencies --    915.9148               953.1996               965.5897
 Red. masses --      1.3484                 1.3448                 1.3579
 Frc consts  --      0.6664                 0.7199                 0.7459
 IR Inten    --      6.0181                 2.0563                 0.0349

                     34                     35                     36
                      A                      A                      A
 Frequencies --    969.5968               998.7010              1023.5794
 Red. masses --      7.3652                 1.3030                 1.0611
 Frc consts  --      4.0796                 0.7657                 0.6550
 IR Inten    --      8.7295                 0.0685                66.5733

                     37                     38                     39
                      A                      A                      A
 Frequencies --   1037.8852              1042.8237              1085.5485
 Red. masses --      2.1178                 2.0968                 4.1723
 Frc consts  --      1.3441                 1.3434                 2.8968
 IR Inten    --      2.6231                 0.8279                63.9951

                     40                     41                     42
                      A                      A                      A
 Frequencies --   1135.2899              1150.6521              1174.5363
 Red. masses --      1.4578                 1.3559                 1.1233
 Frc consts  --      1.1070                 1.0577                 0.9130
 IR Inten    --     65.5389                15.5131                 4.2397

                     43                     44                     45
                      A                      A                      A
 Frequencies --   1177.5433              1225.5317              1243.5882
 Red. masses --      1.2231                 3.5649                 2.0853
 Frc consts  --      0.9992                 3.1546                 1.9001
 IR Inten    --     35.6211                48.2671               142.7538

                     46                     47                     48
                      A                      A                      A
 Frequencies --   1280.4838              1317.7420              1364.1842
 Red. masses --      1.7085                 3.9802                 2.5484
 Frc consts  --      1.6505                 4.0721                 2.7942
 IR Inten    --      0.4293               259.3497                36.8734

                     49                     50                     51
                      A                      A                      A
 Frequencies --   1370.5556              1398.3103              1440.2999
 Red. masses --      5.3555                 2.2345                 2.6825
 Frc consts  --      5.9271                 2.5741                 3.2787
 IR Inten    --     88.7544                 3.9500               177.2606

                     52                     53                     54
                      A                      A                      A
 Frequencies --   1470.7831              1496.7388              1531.1955
 Red. masses --      3.6961                 3.5482                 3.3583
 Frc consts  --      4.7108                 4.6833                 4.6390
 IR Inten    --     61.1459                31.3394               223.1563

                     55                     56                     57
                      A                      A                      A
 Frequencies --   1545.2825              1578.6712              1599.9512
 Red. masses --      4.4451                 7.6204                 5.5850
 Frc consts  --      6.2539                11.1895                 8.4234
 IR Inten    --      7.0114               180.9153               224.5666

                     58                     59                     60
                      A                      A                      A
 Frequencies --   1614.7766              1637.8119              1652.9086
 Red. masses --      5.4331                 2.5911                 2.1305
 Frc consts  --      8.3468                 4.0951                 3.4295
 IR Inten    --    915.0587               307.1728                27.2836

                     61                     62                     63
                      A                      A                      A
 Frequencies --   2561.7953              3205.7670              3211.2438
 Red. masses --      1.0925                 1.0862                 1.0861
 Frc consts  --      4.2245                 6.5770                 6.5990
 IR Inten    --    131.3393                 9.2654                 6.2568

                     64                     65                     66
                      A                      A                      A
 Frequencies --   3216.4673              3222.1861              3228.0840
 Red. masses --      1.0898                 1.0889                 1.0953
 Frc consts  --      6.6430                 6.6611                 6.7245
 IR Inten    --      2.4758                 5.0858                10.1828

                     67                     68                     69
                      A                      A                      A
 Frequencies --   3230.0347              3234.2947              3240.6634
 Red. masses --      1.0947                 1.0991                 1.0983
 Frc consts  --      6.7293                 6.7742                 6.7956
 IR Inten    --     13.9503                39.1484                27.2048

 - Thermochemistry -
 -------------------
 Temperature   298.150 Kelvin.  Pressure   1.00000 Atm.
 Atom     1 has atomic number  6 and mass  12.00000

 Molecular mass:   227.04049 amu.
 Principal axes and moments of inertia in atomic units:
                           1         2         3
     Eigenvalues --  1303.291656323.776387627.06804
           X           -0.70123   0.71294   0.00000
           Y            0.71294   0.70123  -0.00001
           Z            0.00001   0.00000   1.00000
 This molecule is an asymmetric top.
 Rotational symmetry number  1.
 Warning -- assumption of classical behavior for rotation
           may cause significant error
 Rotational temperatures (Kelvin)      0.06646     0.01370     0.01136
 Rotational constants (GHZ):           1.38476     0.28539     0.23662
 Zero-point vibrational energy     488432.1 (Joules/Mol)
                                  116.73808 (Kcal/Mol)
 Warning -- explicit consideration of  19 degrees of freedom as
           vibrations may cause significant error
 Vibrational temperatures:     66.52    85.51   156.56   159.74   256.65
          (Kelvin)            321.72   388.14   392.24   434.78   557.59
                              587.69   634.17   701.91   721.63   728.11
                              744.67   759.40   797.77   829.63   925.94
                             1019.19  1032.98  1037.57  1062.00  1071.86
                             1108.07  1169.57  1182.51  1238.17  1278.82
                             1317.80  1371.44  1389.27  1395.03  1436.91
                             1472.70  1493.29  1500.39  1561.86  1633.43
                             1655.53  1689.90  1694.22  1763.27  1789.25
                             1842.33  1895.94  1962.76  1971.92  2011.86
                             2072.27  2116.13  2153.47  2203.05  2223.32
                             2271.36  2301.97  2323.30  2356.45  2378.17
                             3685.85  4612.38  4620.26  4627.78  4636.01
                             4644.49  4647.30  4653.43  4662.59

 Zero-point correction=                           0.186034 (Hartree/Particle)
 Thermal correction to Energy=                    0.198293
 Thermal correction to Enthalpy=                  0.199238
 Thermal correction to Gibbs Free Energy=         0.146718
 Sum of electronic and zero-point Energies=          -1028.506111
 Sum of electronic and thermal Energies=             -1028.493851
 Sum of electronic and thermal Enthalpies=           -1028.492907
 Sum of electronic and thermal Free Energies=        -1028.545427

                     E (Thermal)             CV                S
                      KCal/Mol        Cal/Mol-Kelvin    Cal/Mol-Kelvin
 Total                  124.431             49.158            110.538
 Electronic               0.000              0.000              0.000
 Translational            0.889              2.981             42.162
 Rotational               0.889              2.981             32.508
 Vibrational            122.654             43.197             35.868
 Vibration     1          0.595              1.979              4.972
 Vibration     2          0.597              1.974              4.476
 Vibration     3          0.606              1.942              3.290
 Vibration     4          0.607              1.940              3.251
 Vibration     5          0.629              1.869              2.345
 Vibration     6          0.649              1.805              1.930
 Vibration     7          0.674              1.729              1.598
 Vibration     8          0.676              1.724              1.580
 Vibration     9          0.694              1.670              1.405
 Vibration    10          0.756              1.497              1.010
 Vibration    11          0.773              1.452              0.932
 Vibration    12          0.801              1.381              0.824
 Vibration    13          0.844              1.277              0.689
 Vibration    14          0.857              1.247              0.654
 Vibration    15          0.861              1.237              0.643
 Vibration    16          0.873              1.211              0.616
 Vibration    17          0.883              1.188              0.592
 Vibration    18          0.910              1.130              0.535
 Vibration    19          0.933              1.082              0.492

 Optimization completed.
    -- Stationary point found.
 Normal termination of Gaussian 16 at Mon Jul 13 17:35:58 2020.
