 Gaussian 16, Revision C.01,
 Gaussian 16:  ES64L-G16RevC.01  3-Jul-2019

 ----------------------------------------------------------------------
 #p opt=addgic freq td wb97xd/cc-pvdz nosymm int=ultrafine scrf=(solven
 t=CarbonTetraChloride)
 ----------------------------------------------------------------------

 ------------------------------------------------
 NM 2D-scan of HBT TD-WB97XD pVDZ in CTC Relaxed.
 ------------------------------------------------
 Symbolic Z-matrix:
 Charge =  0 Multiplicity = 1

 SCF Done:  E(RwB97XD) =  -1028.76475432     A.U. after   16 cycles
 Total Energy, E(TD-HF/TD-DFT) =  -1028.65732129
 SCF Done:  E(RwB97XD) =  -1028.79719719     A.U. after   14 cycles
 Total Energy, E(TD-HF/TD-DFT) =  -1028.69492807
 SCF Done:  E(RwB97XD) =  -1028.80351345     A.U. after   13 cycles
 Total Energy, E(TD-HF/TD-DFT) =  -1028.69935170
 SCF Done:  E(RwB97XD) =  -1028.80323279     A.U. after   12 cycles
 Total Energy, E(TD-HF/TD-DFT) =  -1028.69980208
 SCF Done:  E(RwB97XD) =  -1028.80340920     A.U. after   10 cycles
 Total Energy, E(TD-HF/TD-DFT) =  -1028.69983655
 Optimization completed.
    -- Stationary point found.
 Normal termination of Gaussian 16 at Mon Jul 13 16:38:53 2020.

 ----------------------------------------------------------------------
 #P Geom=AllCheck Guess=TCheck SCRF=Check GenChk RwB97XD TD(FC,Read)/CC
 -pVDZ Freq
 ----------------------------------------------------------------------

 Structure from the checkpoint file:  "config_10_11.chk"
 ------------------------------------------------
 NM 2D-scan of HBT TD-WB97XD pVDZ in CTC Relaxed.
 ------------------------------------------------
 Charge =  0 Multiplicity = 1

                          Input orientation:
 ---------------------------------------------------------------------
 Center     Atomic      Atomic             Coordinates (Angstroms)
 Number     Number       Type             X           Y           Z
 ---------------------------------------------------------------------
      1          6           0        1.641506   -3.290624    0.000000
      2          6           0        1.011013   -2.051132   -0.000007
      3          6           0        1.759293   -0.862246   -0.000028
      4          6           0        3.160559   -0.894633   -0.000041
      5          6           0        3.781722   -2.137841   -0.000034
      6          6           0        3.036385   -3.324384   -0.000014
      7          1           0        1.060119   -4.212993    0.000017
      8          1           0        3.735492    0.031782   -0.000057
      9          1           0        4.871642   -2.187662   -0.000043
     10          1           0        3.549484   -4.286586   -0.000009
     11          7           0        0.953920    0.235963   -0.000037
     12         16           0       -0.717775   -1.689190    0.000009
     13          6           0       -1.371457    1.085009    0.000007
     14          6           0       -2.735657    0.832534   -0.000014
     15          6           0       -0.899245    2.491396    0.000050
     16          6           0       -3.689917    1.887364    0.000013
     17          1           0       -3.099572   -0.198156   -0.000053
     18          6           0       -1.905684    3.510010    0.000070
     19          6           0       -3.275915    3.214954    0.000054
     20          1           0       -4.751747    1.636948   -0.000002
     21          1           0       -1.547770    4.541265    0.000106
     22          1           0       -4.011925    4.020265    0.000074
     23          6           0       -0.392808    0.030858   -0.000011
     24          8           0        0.331930    2.752718    0.000068
     25          1           0        1.285418    1.197079   -0.000030
 ---------------------------------------------------------------------

 SCF Done:  E(RwB97XD) =  -1028.80340920     A.U. after    1 cycles

 Excitation energies and oscillator strengths:

 Excited state symmetry could not be determined.
 Excited State   1:      Singlet-?Sym    2.8184 eV  439.92 nm  f=0.4389  <S**2>=0.000
      59 -> 60         0.69694
 This state for optimization and/or second-order correction.
 Total Energy, E(TD-HF/TD-DFT) =  -1028.69983657
 Copying the excited state density for this state as the 1-particle RhoCI density.

 Excited state symmetry could not be determined.
 Excited State   2:      Singlet-?Sym    3.5298 eV  351.25 nm  f=0.0000  <S**2>=0.000
      58 -> 60         0.68350
      58 -> 62         0.11705
      58 -> 64         0.11162

 Excited state symmetry could not be determined.
 Excited State   3:      Singlet-?Sym    4.3128 eV  287.48 nm  f=0.4316  <S**2>=0.000
      57 -> 60         0.68203

 Alpha  occ. eigenvalues --  -89.10570 -19.20716 -14.52621 -10.42279 -10.37479
 Alpha  occ. eigenvalues --  -10.36282 -10.35667 -10.33503 -10.33152 -10.32719
 Alpha  occ. eigenvalues --  -10.32485 -10.31447 -10.31030 -10.30669 -10.29116
 Alpha  occ. eigenvalues --  -10.28240  -8.12561  -6.07439  -6.07060  -6.06581
 Alpha  occ. eigenvalues --   -1.13150  -1.09171  -0.98517  -0.95400  -0.93276
 Alpha  occ. eigenvalues --   -0.89134  -0.86733  -0.83981  -0.80971  -0.75970
 Alpha  occ. eigenvalues --   -0.73681  -0.72071  -0.69055  -0.67586  -0.65079
 Alpha  occ. eigenvalues --   -0.61033  -0.59764  -0.56586  -0.56099  -0.55829
 Alpha  occ. eigenvalues --   -0.55043  -0.53737  -0.53087  -0.50600  -0.48832
 Alpha  occ. eigenvalues --   -0.48724  -0.48396  -0.47011  -0.45540  -0.44845
 Alpha  occ. eigenvalues --   -0.44220  -0.42904  -0.42191  -0.40043  -0.36885
 Alpha  occ. eigenvalues --   -0.33740  -0.31494  -0.31296  -0.25662
 Alpha virt. eigenvalues --   -0.02130   0.03636   0.05747   0.06477   0.09468
 Alpha virt. eigenvalues --    0.10779   0.13155   0.14583   0.16127   0.17101
 Alpha virt. eigenvalues --    0.18402   0.19950   0.20856   0.21287   0.22823

 Mulliken charges:
               1
     1  C    0.016870
     2  C   -0.243781
     3  C    0.246503
     4  C   -0.009838
     5  C    0.012877
     6  C    0.001962
     7  H    0.026092
     8  H    0.032254
     9  H    0.028392
    10  H    0.027358
    11  N   -0.110978
    12  S    0.200820
    13  C   -0.088824
    14  C   -0.031499
    15  C    0.111542
    16  C   -0.036939
    17  H    0.005867
    18  C   -0.037430
    19  C    0.033827
    20  H    0.001480
    21  H    0.000189
    22  H    0.014085
    23  C    0.067500
    24  O   -0.399318
    25  H    0.130989
 Sum of Mulliken charges =  -0.00000

 Dipole moment (field-independent basis, Debye):
    X=              2.1449    Y=             -5.8863    Z=             -0.0002  Tot=              6.2649
 Quadrupole moment (field-independent basis, Debye-Ang):
   XX=            -81.9093   YY=            -96.2408   ZZ=           -104.1906
   XY=             -6.3730   XZ=             -0.0002   YZ=             -0.0003

  Exact polarizability:     348.137    -121.107     295.818      -0.002       0.002      63.260
 Approx polarizability:     274.415     -38.068     265.067      -0.001       0.002      82.014

 ******    1 imaginary frequencies (negative Signs) ******

                      1                      2                      3
                      A                      A                      A
 Frequencies --    -53.0497                45.3056               108.7358
 Red. masses --      5.7460                 6.4720                 5.2955
 Frc consts  --      0.0095                 0.0078                 0.0369
 IR Inten    --      1.6881                 1.5753                 0.4459

                      4                      5                      6
                      A                      A                      A
 Frequencies --    109.5708               177.2754               226.0255
 Red. masses --      5.7456                 5.3907                 5.4954
 Frc consts  --      0.0406                 0.0998                 0.1654
 IR Inten    --      8.6983                 0.0448                 0.3334

                      7                      8                      9
                      A                      A                      A
 Frequencies --    264.8662               272.5793               299.8742
 Red. masses --      7.8529                 4.5618                 7.6585
 Frc consts  --      0.3246                 0.1997                 0.4058
 IR Inten    --      1.9326                 0.9907                 3.4624

                     10                     11                     12
                      A                      A                      A
 Frequencies --    348.0951               382.9862               429.6433
 Red. masses --      4.6474                 7.9178                 3.5170
 Frc consts  --      0.3318                 0.6843                 0.3825
 IR Inten    --      0.9979                 7.5330                 3.4887

                     13                     14                     15
                      A                      A                      A
 Frequencies --    449.4106               501.9739               511.8075
 Red. masses --      4.4191                 8.3995                 3.2123
 Frc consts  --      0.5259                 1.2470                 0.4958
 IR Inten    --      3.8490                11.0396                 0.3897

                     16                     17                     18
                      A                      A                      A
 Frequencies --    541.1354               550.5413               557.6152
 Red. masses --      8.5881                 6.6100                 3.8027
 Frc consts  --      1.4817                 1.1804                 0.6966
 IR Inten    --      9.4308                41.0422                 1.1420

                     19                     20                     21
                      A                      A                      A
 Frequencies --    567.5209               636.7207               688.8123
 Red. masses --      7.2753                 6.1184                 1.5209
 Frc consts  --      1.3806                 1.4615                 0.4252
 IR Inten    --     10.6558                37.0199                49.4916

                     22                     23                     24
                      A                      A                      A
 Frequencies --    709.8182               733.0586               736.3643
 Red. masses --      6.0646                 8.0117                 1.3212
 Frc consts  --      1.8003                 2.5366                 0.4221
 IR Inten    --      2.0498                 4.4350                 0.9369

                     25                     26                     27
                      A                      A                      A
 Frequencies --    748.4304               762.3938               769.3653
 Red. masses --      1.9328                 1.6911                 1.5969
 Frc consts  --      0.6379                 0.5791                 0.5569
 IR Inten    --     23.9687                 3.9618               134.5187

                     28                     29                     30
                      A                      A                      A
 Frequencies --    818.2421               838.2735               866.6262
 Red. masses --      6.3544                 1.8643                 1.3820
 Frc consts  --      2.5066                 0.7719                 0.6115
 IR Inten    --     17.8133                 1.1785                 1.6367

                     31                     32                     33
                      A                      A                      A
 Frequencies --    881.7778               902.8612               953.0953
 Red. masses --      4.7064                 1.4326                 1.3614
 Frc consts  --      2.1560                 0.6881                 0.7286
 IR Inten    --      2.1141                 8.7263                 0.6769

                     34                     35                     36
                      A                      A                      A
 Frequencies --    957.4906               958.1614              1004.2457
 Red. masses --      1.3508                 5.0470                 1.2959
 Frc consts  --      0.7296                 2.7300                 0.7700
 IR Inten    --      1.6594                 0.8261                 0.0110

                     37                     38                     39
                      A                      A                      A
 Frequencies --   1047.9257              1053.7317              1085.6349
 Red. masses --      2.1812                 2.1250                 4.1171
 Frc consts  --      1.4113                 1.3902                 2.8589
 IR Inten    --      0.5745                 8.0550                 1.5189

                     40                     41                     42
                      A                      A                      A
 Frequencies --   1106.0330              1152.6173              1159.7648
 Red. masses --      1.6185                 1.3135                 1.2122
 Frc consts  --      1.1665                 1.0282                 0.9607
 IR Inten    --     40.0277                11.6848                72.4246

                     43                     44                     45
                      A                      A                      A
 Frequencies --   1179.3111              1194.5779              1250.9585
 Red. masses --      1.1663                 1.5671                 2.1581
 Frc consts  --      0.9557                 1.3176                 1.9898
 IR Inten    --     46.2356                52.0424                28.6461

                     46                     47                     48
                      A                      A                      A
 Frequencies --   1270.1479              1297.1126              1339.4638
 Red. masses --      2.2202                 1.7680                 5.1489
 Frc consts  --      2.1103                 1.7527                 5.4428
 IR Inten    --     67.3236                 1.2591                12.7536

                     49                     50                     51
                      A                      A                      A
 Frequencies --   1367.1278              1398.2103              1399.8909
 Red. masses --      3.3650                 3.5290                 2.4095
 Frc consts  --      3.7056                 4.0648                 2.7821
 IR Inten    --    111.7055                14.4889                30.6454

                     52                     53                     54
                      A                      A                      A
 Frequencies --   1440.0275              1477.0230              1510.9945
 Red. masses --      2.9428                 3.0468                 2.9912
 Frc consts  --      3.5955                 3.9162                 4.0237
 IR Inten    --    216.8841                 1.9329                34.3473

                     55                     56                     57
                      A                      A                      A
 Frequencies --   1525.6624              1558.6811              1591.1439
 Red. masses --      3.8822                 5.1600                 5.0330
 Frc consts  --      5.3241                 7.3861                 7.5075
 IR Inten    --     47.9938               200.0371               112.0377

                     58                     59                     60
                      A                      A                      A
 Frequencies --   1626.1549              1659.0990              1669.5601
 Red. masses --      7.0189                 6.7601                 6.9425
 Frc consts  --     10.9356                10.9634                11.4017
 IR Inten    --    156.2269                 9.4817               160.7653

                     61                     62                     63
                      A                      A                      A
 Frequencies --   3191.4692              3209.9298              3214.1537
 Red. masses --      1.0889                 1.0863                 1.0862
 Frc consts  --      6.5346                 6.5946                 6.6116
 IR Inten    --     24.0458                 2.1882                 4.5435

                     64                     65                     66
                      A                      A                      A
 Frequencies --   3221.0348              3224.8694              3234.1012
 Red. masses --      1.0919                 1.0903                 1.0989
 Frc consts  --      6.6744                 6.6807                 6.7723
 IR Inten    --     14.9562                 3.3082                27.5864

                     67                     68                     69
                      A                      A                      A
 Frequencies --   3234.3357              3241.1039              3523.3376
 Red. masses --      1.0957                 1.0996                 1.0828
 Frc consts  --      6.7535                 6.8056                 7.9194
 IR Inten    --      7.8742                12.5039               571.2303

 - Thermochemistry -
 -------------------
 Temperature   298.150 Kelvin.  Pressure   1.00000 Atm.
 Atom     1 has atomic number  6 and mass  12.00000

 Molecular mass:   227.04049 amu.
 Principal axes and moments of inertia in atomic units:
                           1         2         3
     Eigenvalues --  1289.041646469.896987758.93862
           X           -0.70354   0.71066   0.00000
           Y            0.71066   0.70354  -0.00001
           Z            0.00001   0.00000   1.00000
 This molecule is an asymmetric top.
 Rotational symmetry number  1.
 Warning -- assumption of classical behavior for rotation
           may cause significant error
 Rotational temperatures (Kelvin)      0.06719     0.01339     0.01116
 Rotational constants (GHZ):           1.40006     0.27894     0.23260
    1 imaginary frequencies ignored.
 Zero-point vibrational energy     490264.9 (Joules/Mol)
                                  117.17612 (Kcal/Mol)
 Warning -- explicit consideration of  18 degrees of freedom as
           vibrations may cause significant error
 Vibrational temperatures:     65.18   156.45   157.65   255.06   325.20
          (Kelvin)            381.08   392.18   431.45   500.83   551.03
                              618.16   646.60   722.23   736.38   778.57
                              792.11   802.28   816.54   916.10   991.05
                             1021.27  1054.71  1059.46  1076.82  1096.91
                             1106.95  1177.27  1206.09  1246.88  1268.68
                             1299.02  1371.29  1377.62  1378.58  1444.89
                             1507.73  1516.08  1561.99  1591.33  1658.36
                             1668.64  1696.77  1718.73  1799.85  1827.46
                             1866.26  1927.19  1966.99  2011.71  2014.13
                             2071.88  2125.11  2173.98  2195.09  2242.59
                             2289.30  2339.67  2387.07  2402.12  4591.81
                             4618.37  4624.45  4634.35  4639.87  4653.15
                             4653.49  4663.23  5069.30

 Zero-point correction=                           0.186732 (Hartree/Particle)
 Thermal correction to Energy=                    0.198338
 Thermal correction to Enthalpy=                  0.199282
 Thermal correction to Gibbs Free Energy=         0.148588
 Sum of electronic and zero-point Energies=          -1028.513105
 Sum of electronic and thermal Energies=             -1028.501499
 Sum of electronic and thermal Enthalpies=           -1028.500554
 Sum of electronic and thermal Free Energies=        -1028.551249

                     E (Thermal)             CV                S
                      KCal/Mol        Cal/Mol-Kelvin    Cal/Mol-Kelvin
 Total                  124.459             47.836            106.695
 Electronic               0.000              0.000              0.000
 Translational            0.889              2.981             42.162
 Rotational               0.889              2.981             32.537
 Vibrational            122.681             41.875             31.996
 Vibration     1          0.595              1.979              5.012
 Vibration     2          0.606              1.942              3.291
 Vibration     3          0.606              1.942              3.277
 Vibration     4          0.628              1.870              2.357
 Vibration     5          0.650              1.801              1.910
 Vibration     6          0.671              1.737              1.629
 Vibration     7          0.676              1.724              1.580
 Vibration     8          0.692              1.674              1.418
 Vibration     9          0.726              1.579              1.175
 Vibration    10          0.752              1.506              1.027
 Vibration    11          0.791              1.406              0.860
 Vibration    12          0.808              1.362              0.798
 Vibration    13          0.857              1.246              0.653
 Vibration    14          0.867              1.224              0.629
 Vibration    15          0.896              1.159              0.563
 Vibration    16          0.906              1.138              0.543
 Vibration    17          0.913              1.123              0.529
 Vibration    18          0.923              1.102              0.509

 Optimization completed.
    -- Stationary point found.
 Normal termination of Gaussian 16 at Mon Jul 13 16:57:08 2020.
