 Gaussian 16, Revision C.01,
 Gaussian 16:  ES64L-G16RevC.01  3-Jul-2019

 ----------------------------------------------------------------------
 #p opt=addgic freq td wb97xd/cc-pvdz nosymm int=ultrafine scrf=(solven
 t=CarbonTetraChloride)
 ----------------------------------------------------------------------

 ------------------------------------------------
 NM 2D-scan of HBT TD-WB97XD pVDZ in CTC Relaxed.
 ------------------------------------------------
 Symbolic Z-matrix:
 Charge =  0 Multiplicity = 1

 SCF Done:  E(RwB97XD) =  -1028.69711768     A.U. after   15 cycles
 Total Energy, E(TD-HF/TD-DFT) =  -1028.56511594
 SCF Done:  E(RwB97XD) =  -1028.80328054     A.U. after   13 cycles
 Total Energy, E(TD-HF/TD-DFT) =  -1028.67352433
 SCF Done:  E(RwB97XD) =  -1028.79265192     A.U. after   15 cycles
 Total Energy, E(TD-HF/TD-DFT) =  -1028.66830879
 SCF Done:  E(RwB97XD) =  -1028.81625643     A.U. after   12 cycles
 Total Energy, E(TD-HF/TD-DFT) =  -1028.68941217
 SCF Done:  E(RwB97XD) =  -1028.81729684     A.U. after   11 cycles
 Total Energy, E(TD-HF/TD-DFT) =  -1028.68971590
 SCF Done:  E(RwB97XD) =  -1028.81741419     A.U. after    9 cycles
 Total Energy, E(TD-HF/TD-DFT) =  -1028.68978157
 SCF Done:  E(RwB97XD) =  -1028.81745588     A.U. after    9 cycles
 Total Energy, E(TD-HF/TD-DFT) =  -1028.68978292
 Optimization completed.
    -- Stationary point found.
 Normal termination of Gaussian 16 at Mon Jul 13 18:13:06 2020.

 ----------------------------------------------------------------------
 #P Geom=AllCheck Guess=TCheck SCRF=Check GenChk RwB97XD TD(FC,Read)/CC
 -pVDZ Freq
 ----------------------------------------------------------------------

 Structure from the checkpoint file:  "config_2_8.chk"
 ------------------------------------------------
 NM 2D-scan of HBT TD-WB97XD pVDZ in CTC Relaxed.
 ------------------------------------------------
 Charge =  0 Multiplicity = 1

                          Input orientation:
 ---------------------------------------------------------------------
 Center     Atomic      Atomic             Coordinates (Angstroms)
 Number     Number       Type             X           Y           Z
 ---------------------------------------------------------------------
      1          6           0        1.666386   -3.304909   -0.000019
      2          6           0        0.968066   -2.097035   -0.000010
      3          6           0        1.680175   -0.846892   -0.000014
      4          6           0        3.100797   -0.844741   -0.000024
      5          6           0        3.770798   -2.045645   -0.000034
      6          6           0        3.063443   -3.269898   -0.000031
      7          1           0        1.139677   -4.260134   -0.000017
      8          1           0        3.621917    0.113121   -0.000025
      9          1           0        4.862168   -2.058973   -0.000042
     10          1           0        3.618678   -4.209198   -0.000039
     11          7           0        0.945100    0.262718   -0.000005
     12         16           0       -0.759542   -1.781000    0.000003
     13          6           0       -1.344792    1.039747    0.000010
     14          6           0       -2.760462    0.839560   -0.000003
     15          6           0       -0.905843    2.455966    0.000030
     16          6           0       -3.642625    1.905174    0.000016
     17          1           0       -3.146578   -0.181407   -0.000026
     18          6           0       -1.829363    3.504676    0.000053
     19          6           0       -3.189571    3.247012    0.000047
     20          1           0       -4.715523    1.706280    0.000007
     21          1           0       -1.427597    4.518263    0.000073
     22          1           0       -3.905743    4.069099    0.000064
     23          6           0       -0.389668    0.000876    0.000005
     24          8           0        0.365364    2.824105    0.000039
     25          1           0        0.923925    2.005631    0.000049
 ---------------------------------------------------------------------

 SCF Done:  E(RwB97XD) =  -1028.81745588     A.U. after    1 cycles

 Excitation energies and oscillator strengths:

 Excited state symmetry could not be determined.
 Excited State   1:      Singlet-?Sym    3.4742 eV  356.88 nm  f=0.7293  <S**2>=0.000
      59 -> 60         0.68961
 This state for optimization and/or second-order correction.
 Total Energy, E(TD-HF/TD-DFT) =  -1028.68978293
 Copying the excited state density for this state as the 1-particle RhoCI density.

 Excited state symmetry could not be determined.
 Excited State   2:      Singlet-?Sym    4.3856 eV  282.71 nm  f=0.1795  <S**2>=0.000
      57 -> 60         0.31780
      58 -> 60         0.57748
      59 -> 62        -0.17013

 Excited state symmetry could not be determined.
 Excited State   3:      Singlet-?Sym    4.5489 eV  272.56 nm  f=0.0657  <S**2>=0.000
      57 -> 60         0.53792
      57 -> 63        -0.12493
      58 -> 60        -0.30478
      58 -> 61        -0.11085
      59 -> 61         0.23580

 Alpha  occ. eigenvalues --  -89.09029 -19.28933 -14.46885 -10.39827 -10.38344
 Alpha  occ. eigenvalues --  -10.34837 -10.34748 -10.33033 -10.32381 -10.32187
 Alpha  occ. eigenvalues --  -10.31971 -10.31379 -10.31238 -10.31166 -10.30549
 Alpha  occ. eigenvalues --  -10.30338  -8.10894  -6.05751  -6.05416  -6.04948
 Alpha  occ. eigenvalues --   -1.17449  -1.08097  -0.96660  -0.95567  -0.91457
 Alpha  occ. eigenvalues --   -0.88774  -0.85027  -0.84366  -0.82229  -0.76000
 Alpha  occ. eigenvalues --   -0.71106  -0.70120  -0.69115  -0.68254  -0.63369
 Alpha  occ. eigenvalues --   -0.60154  -0.58921  -0.58469  -0.55944  -0.54419
 Alpha  occ. eigenvalues --   -0.53523  -0.53131  -0.52723  -0.50812  -0.50483
 Alpha  occ. eigenvalues --   -0.49151  -0.47994  -0.45830  -0.45504  -0.44718
 Alpha  occ. eigenvalues --   -0.43783  -0.42929  -0.42149  -0.39886  -0.37532
 Alpha  occ. eigenvalues --   -0.36418  -0.32061  -0.31556  -0.27932
 Alpha virt. eigenvalues --   -0.01877   0.05232   0.06932   0.07093   0.07207
 Alpha virt. eigenvalues --    0.11254   0.13288   0.15130   0.16009   0.17909
 Alpha virt. eigenvalues --    0.18534   0.20718   0.21656   0.22297   0.22784

 Mulliken charges:
               1
     1  C    0.009107
     2  C   -0.216963
     3  C    0.221611
     4  C   -0.015779
     5  C    0.008826
     6  C   -0.009226
     7  H    0.018403
     8  H    0.014821
     9  H    0.017799
    10  H    0.020109
    11  N   -0.347358
    12  S    0.147647
    13  C   -0.084172
    14  C   -0.017461
    15  C    0.079594
    16  C   -0.010899
    17  H    0.014342
    18  C    0.016556
    19  C    0.020809
    20  H    0.012131
    21  H    0.019813
    22  H    0.022842
    23  C    0.077610
    24  O   -0.185595
    25  H    0.165433
 Sum of Mulliken charges =  -0.00000

 Dipole moment (field-independent basis, Debye):
    X=             -0.4590    Y=             -1.6590    Z=              0.0000  Tot=              1.7213
 Quadrupole moment (field-independent basis, Debye-Ang):
   XX=            -83.1634   YY=            -88.9862   ZZ=           -104.4973
   XY=             -6.8155   XZ=             -0.0001   YZ=              0.0002

  Exact polarizability:     407.067    -197.896     395.549      -0.003       0.003      63.518
 Approx polarizability:     281.024     -37.236     263.672      -0.001       0.002      82.464

                      1                      2                      3
                      A                      A                      A
 Frequencies --     35.6466                70.6795               109.7805
 Red. masses --      5.9994                 5.6589                 4.7672
 Frc consts  --      0.0045                 0.0167                 0.0339
 IR Inten    --      1.2312                 0.0307                 0.3503

                      4                      5                      6
                      A                      A                      A
 Frequencies --    111.0862               183.0653               224.1681
 Red. masses --      5.6564                 6.7627                 5.4469
 Frc consts  --      0.0411                 0.1335                 0.1613
 IR Inten    --      1.9610                 1.0058                 0.0021

                      7                      8                      9
                      A                      A                      A
 Frequencies --    262.5063               268.4231               290.7969
 Red. masses --      8.0861                 4.8168                 6.6566
 Frc consts  --      0.3283                 0.2045                 0.3317
 IR Inten    --     19.8658                 0.1356                 8.7143

                     10                     11                     12
                      A                      A                      A
 Frequencies --    394.2496               395.1614               438.9935
 Red. masses --      8.8024                 4.6273                 3.3013
 Frc consts  --      0.8061                 0.4257                 0.3748
 IR Inten    --     13.2300                 0.1205                 4.2733

                     13                     14                     15
                      A                      A                      A
 Frequencies --    493.8266               494.1116               503.6989
 Red. masses --      6.1426                 4.4444                 6.3836
 Frc consts  --      0.8826                 0.6393                 0.9542
 IR Inten    --     19.5757                 0.1752                12.7551

                     16                     17                     18
                      A                      A                      A
 Frequencies --    506.9735               525.4434               548.7096
 Red. masses --      3.1384                 7.9398                 3.9825
 Frc consts  --      0.4753                 1.2916                 0.7065
 IR Inten    --      0.2236                19.0290                 0.2168

                     19                     20                     21
                      A                      A                      A
 Frequencies --    578.6372               641.7575               664.9615
 Red. masses --      7.7155                 6.6980                 9.2130
 Frc consts  --      1.5220                 1.6253                 2.4002
 IR Inten    --     62.1290                35.8966                33.1017

                     22                     23                     24
                      A                      A                      A
 Frequencies --    706.6476               718.5857               734.7501
 Red. masses --      6.8178                 1.8022                 1.8989
 Frc consts  --      2.0059                 0.5483                 0.6040
 IR Inten    --     10.9358                50.8388                33.2888

                     25                     26                     27
                      A                      A                      A
 Frequencies --    747.2753               772.7820               803.8372
 Red. masses --      1.8251                 2.0430                 6.5654
 Frc consts  --      0.6005                 0.7188                 2.4995
 IR Inten    --     27.2561                51.9993                20.1004

                     28                     29                     30
                      A                      A                      A
 Frequencies --    822.2426               851.3380               860.9883
 Red. masses --      1.6338                 1.1028                 1.4039
 Frc consts  --      0.6508                 0.4709                 0.6132
 IR Inten    --     11.1433                50.1436                 9.8033

                     31                     32                     33
                      A                      A                      A
 Frequencies --    886.2756               925.5781               948.7746
 Red. masses --      6.3744                 1.3423                 7.1860
 Frc consts  --      2.9500                 0.6775                 3.8112
 IR Inten    --     55.1975                 1.6235                 6.3270

                     34                     35                     36
                      A                      A                      A
 Frequencies --    954.7407               969.4611              1000.4807
 Red. masses --      1.3417                 1.3447                 1.3003
 Frc consts  --      0.7205                 0.7446                 0.7668
 IR Inten    --      2.0095                 0.0003                 0.0039

                     37                     38                     39
                      A                      A                      A
 Frequencies --   1038.7387              1040.1191              1072.1537
 Red. masses --      2.1352                 2.2247                 5.0489
 Frc consts  --      1.3574                 1.4181                 3.4195
 IR Inten    --      1.8914                 2.6296                33.5693

                     40                     41                     42
                      A                      A                      A
 Frequencies --   1136.0650              1148.3066              1176.1338
 Red. masses --      1.4860                 1.3060                 1.1554
 Frc consts  --      1.1300                 1.0146                 0.9416
 IR Inten    --     46.3118                15.0735                16.9524

                     43                     44                     45
                      A                      A                      A
 Frequencies --   1179.5809              1218.3634              1233.2528
 Red. masses --      1.1738                 6.4198                 1.5863
 Frc consts  --      0.9623                 5.6147                 1.4215
 IR Inten    --     19.3899                66.4519               178.3971

                     46                     47                     48
                      A                      A                      A
 Frequencies --   1277.6554              1294.7074              1360.4937
 Red. masses --      1.6420                 2.7254                 2.9057
 Frc consts  --      1.5792                 2.6917                 3.1688
 IR Inten    --      6.8524               249.7164                86.8381

                     49                     50                     51
                      A                      A                      A
 Frequencies --   1370.9394              1402.1202              1434.4241
 Red. masses --      5.5937                 1.9601                 2.4967
 Frc consts  --      6.1942                 2.2704                 3.0267
 IR Inten    --     21.1963                30.5565               233.4630

                     52                     53                     54
                      A                      A                      A
 Frequencies --   1474.5732              1483.1811              1518.0204
 Red. masses --      3.1286                 1.9978                 5.8013
 Frc consts  --      4.0081                 2.5893                 7.8764
 IR Inten    --     62.3868               176.3805                58.6732

                     55                     56                     57
                      A                      A                      A
 Frequencies --   1538.3767              1555.9478              1579.5048
 Red. masses --      4.5935                 6.5604                 3.0130
 Frc consts  --      6.4050                 9.3578                 4.4288
 IR Inten    --     12.6639               521.3179               211.9022

                     58                     59                     60
                      A                      A                      A
 Frequencies --   1598.4985              1632.8440              1651.6170
 Red. masses --      4.7174                 5.4195                 5.8732
 Frc consts  --      7.1019                 8.5134                 9.4394
 IR Inten    --     82.4809               414.5787               193.0495

                     61                     62                     63
                      A                      A                      A
 Frequencies --   3205.2987              3207.6373              3218.2640
 Red. masses --      1.0869                 1.0862                 1.0898
 Frc consts  --      6.5793                 6.5848                 6.6503
 IR Inten    --      3.2888                 8.9913                 3.4256

                     64                     65                     66
                      A                      A                      A
 Frequencies --   3218.8024              3227.1593              3230.2804
 Red. masses --      1.0887                 1.0939                 1.0954
 Frc consts  --      6.6461                 6.7124                 6.7343
 IR Inten    --      1.0280                17.1111                13.7234

                     67                     68                     69
                      A                      A                      A
 Frequencies --   3236.3567              3239.3350              3262.3320
 Red. masses --      1.0989                 1.0989                 1.0702
 Frc consts  --      6.7814                 6.7938                 6.7107
 IR Inten    --     41.4908                21.8309                22.7558

 - Thermochemistry -
 -------------------
 Temperature   298.150 Kelvin.  Pressure   1.00000 Atm.
 Atom     1 has atomic number  6 and mass  12.00000

 Molecular mass:   227.04049 amu.
 Principal axes and moments of inertia in atomic units:
                           1         2         3
     Eigenvalues --  1354.471056373.728557728.19960
           X           -0.69523   0.71879   0.00000
           Y            0.71879   0.69523  -0.00001
           Z            0.00001   0.00000   1.00000
 This molecule is an asymmetric top.
 Rotational symmetry number  1.
 Warning -- assumption of classical behavior for rotation
           may cause significant error
 Rotational temperatures (Kelvin)      0.06395     0.01359     0.01121
 Rotational constants (GHZ):           1.33243     0.28315     0.23353
 Zero-point vibrational energy     489915.8 (Joules/Mol)
                                  117.09268 (Kcal/Mol)
 Warning -- explicit consideration of  19 degrees of freedom as
           vibrations may cause significant error
 Vibrational temperatures:     51.29   101.69   157.95   159.83   263.39
          (Kelvin)            322.53   377.69   386.20   418.39   567.24
                              568.55   631.61   710.51   710.92   724.71
                              729.42   756.00   789.47   832.53   923.35
                              956.73  1016.71  1033.88  1057.14  1075.16
                             1111.86  1156.54  1183.02  1224.89  1238.77
                             1275.15  1331.70  1365.08  1373.66  1394.84
                             1439.47  1494.51  1496.50  1542.59  1634.54
                             1652.16  1692.19  1697.15  1752.95  1774.38
                             1838.26  1862.80  1957.45  1972.48  2017.34
                             2063.82  2121.58  2133.97  2184.09  2213.38
                             2238.66  2272.56  2299.88  2349.30  2376.31
                             4611.71  4615.07  4630.36  4631.14  4643.16
                             4647.65  4656.40  4660.68  4693.77

 Zero-point correction=                           0.186599 (Hartree/Particle)
 Thermal correction to Energy=                    0.198964
 Thermal correction to Enthalpy=                  0.199908
 Thermal correction to Gibbs Free Energy=         0.147124
 Sum of electronic and zero-point Energies=          -1028.503184
 Sum of electronic and thermal Energies=             -1028.490819
 Sum of electronic and thermal Enthalpies=           -1028.489875
 Sum of electronic and thermal Free Energies=        -1028.542659

                     E (Thermal)             CV                S
                      KCal/Mol        Cal/Mol-Kelvin    Cal/Mol-Kelvin
 Total                  124.852             49.660            111.093
 Electronic               0.000              0.000              0.000
 Translational            0.889              2.981             42.162
 Rotational               0.889              2.981             32.567
 Vibrational            123.074             43.699             36.363
 Vibration     1          0.594              1.982              5.487
 Vibration     2          0.598              1.968              4.134
 Vibration     3          0.606              1.941              3.273
 Vibration     4          0.607              1.940              3.250
 Vibration     5          0.631              1.863              2.297
 Vibration     6          0.649              1.804              1.925
 Vibration     7          0.670              1.742              1.645
 Vibration     8          0.673              1.731              1.606
 Vibration     9          0.687              1.691              1.469
 Vibration    10          0.761              1.482              0.984
 Vibration    11          0.762              1.481              0.981
 Vibration    12          0.799              1.385              0.830
 Vibration    13          0.849              1.264              0.674
 Vibration    14          0.850              1.263              0.673
 Vibration    15          0.859              1.242              0.649
 Vibration    16          0.862              1.235              0.641
 Vibration    17          0.880              1.194              0.597
 Vibration    18          0.904              1.143              0.547
 Vibration    19          0.935              1.077              0.488

 Optimization completed.
    -- Stationary point found.
 Normal termination of Gaussian 16 at Mon Jul 13 18:30:26 2020.
