 Gaussian 16, Revision C.01,
 Gaussian 16:  ES64L-G16RevC.01  3-Jul-2019

 ----------------------------------------------------------------------
 #p opt=addgic freq td wb97xd/cc-pvdz nosymm int=ultrafine scrf=(solven
 t=CarbonTetraChloride)
 ----------------------------------------------------------------------

 ------------------------------------------------
 NM 2D-scan of HBT TD-WB97XD pVDZ in CTC Relaxed.
 ------------------------------------------------
 Symbolic Z-matrix:
 Charge =  0 Multiplicity = 1

 SCF Done:  E(RwB97XD) =  -1028.75487677     A.U. after   15 cycles
 Total Energy, E(TD-HF/TD-DFT) =  -1028.62292981
 SCF Done:  E(RwB97XD) =  -1028.81661971     A.U. after   13 cycles
 Total Energy, E(TD-HF/TD-DFT) =  -1028.68705398
 SCF Done:  E(RwB97XD) =  -1028.81806069     A.U. after   13 cycles
 Total Energy, E(TD-HF/TD-DFT) =  -1028.69036877
 SCF Done:  E(RwB97XD) =  -1028.82026471     A.U. after   12 cycles
 Total Energy, E(TD-HF/TD-DFT) =  -1028.69198864
 SCF Done:  E(RwB97XD) =  -1028.82060174     A.U. after   11 cycles
 Total Energy, E(TD-HF/TD-DFT) =  -1028.69253614
 SCF Done:  E(RwB97XD) =  -1028.82069232     A.U. after    9 cycles
 Total Energy, E(TD-HF/TD-DFT) =  -1028.69254877
 Optimization completed.
    -- Stationary point found.
 Normal termination of Gaussian 16 at Mon Jul 13 17:43:16 2020.

 ----------------------------------------------------------------------
 #P Geom=AllCheck Guess=TCheck SCRF=Check GenChk RwB97XD TD(FC,Read)/CC
 -pVDZ Freq
 ----------------------------------------------------------------------

 Structure from the checkpoint file:  "config_2_13.chk"
 ------------------------------------------------
 NM 2D-scan of HBT TD-WB97XD pVDZ in CTC Relaxed.
 ------------------------------------------------
 Charge =  0 Multiplicity = 1

                          Input orientation:
 ---------------------------------------------------------------------
 Center     Atomic      Atomic             Coordinates (Angstroms)
 Number     Number       Type             X           Y           Z
 ---------------------------------------------------------------------
      1          6           0        1.593968   -3.292774   -0.000045
      2          6           0        0.970902   -2.046849   -0.000032
      3          6           0        1.728992   -0.823735    0.000007
      4          6           0        3.148183   -0.906367    0.000033
      5          6           0        3.749228   -2.147645    0.000019
      6          6           0        2.986602   -3.337424   -0.000020
      7          1           0        1.006438   -4.211715   -0.000075
      8          1           0        3.731924    0.014701    0.000064
      9          1           0        4.838647   -2.216136    0.000038
     10          1           0        3.494112   -4.303134   -0.000031
     11          7           0        1.015910    0.310087    0.000012
     12         16           0       -0.735921   -1.686267   -0.000054
     13          6           0       -1.310136    1.063900   -0.000018
     14          6           0       -2.709149    0.784141    0.000004
     15          6           0       -0.922432    2.484308    0.000001
     16          6           0       -3.642044    1.804500    0.000056
     17          1           0       -3.042396   -0.254911   -0.000008
     18          6           0       -1.894491    3.490256    0.000062
     19          6           0       -3.244780    3.162605    0.000091
     20          1           0       -4.704796    1.557452    0.000078
     21          1           0       -1.550974    4.525056    0.000075
     22          1           0       -3.997533    3.951542    0.000136
     23          6           0       -0.324422    0.061082   -0.000028
     24          8           0        0.346216    2.847939   -0.000067
     25          1           0        0.910121    2.019151   -0.000184
 ---------------------------------------------------------------------

 SCF Done:  E(RwB97XD) =  -1028.82069232     A.U. after    1 cycles

 Excitation energies and oscillator strengths:

 Excited state symmetry could not be determined.
 Excited State   1:      Singlet-?Sym    3.4870 eV  355.56 nm  f=0.7223  <S**2>=0.000
      59 -> 60         0.68907
 This state for optimization and/or second-order correction.
 Total Energy, E(TD-HF/TD-DFT) =  -1028.69254877
 Copying the excited state density for this state as the 1-particle RhoCI density.

 Excited state symmetry could not be determined.
 Excited State   2:      Singlet-?Sym    4.3869 eV  282.62 nm  f=0.1497  <S**2>=0.000
      57 -> 60         0.37467
      58 -> 60         0.54293
      59 -> 62        -0.16053

 Excited state symmetry could not be determined.
 Excited State   3:      Singlet-?Sym    4.5626 eV  271.74 nm  f=0.0875  <S**2>=0.000
      57 -> 60         0.50699
      57 -> 63         0.10113
      58 -> 60        -0.36288
      58 -> 61        -0.10518
      59 -> 61         0.21918

 Alpha  occ. eigenvalues --  -89.08834 -19.28881 -14.47105 -10.39677 -10.38283
 Alpha  occ. eigenvalues --  -10.34948 -10.34655 -10.32702 -10.32379 -10.32073
 Alpha  occ. eigenvalues --  -10.32063 -10.31337 -10.31327 -10.31192 -10.30590
 Alpha  occ. eigenvalues --  -10.30494  -8.10793  -6.05638  -6.05303  -6.04854
 Alpha  occ. eigenvalues --   -1.17394  -1.08081  -0.96757  -0.95677  -0.91782
 Alpha  occ. eigenvalues --   -0.88785  -0.85071  -0.84492  -0.82221  -0.75986
 Alpha  occ. eigenvalues --   -0.71224  -0.70137  -0.69148  -0.68247  -0.63516
 Alpha  occ. eigenvalues --   -0.60275  -0.58973  -0.58573  -0.56033  -0.54454
 Alpha  occ. eigenvalues --   -0.53652  -0.53274  -0.52849  -0.50660  -0.50522
 Alpha  occ. eigenvalues --   -0.49229  -0.47818  -0.45894  -0.45565  -0.44772
 Alpha  occ. eigenvalues --   -0.43953  -0.42979  -0.42116  -0.39948  -0.37583
 Alpha  occ. eigenvalues --   -0.36435  -0.31989  -0.31616  -0.28031
 Alpha virt. eigenvalues --   -0.01859   0.05235   0.06916   0.07080   0.07548
 Alpha virt. eigenvalues --    0.11214   0.13981   0.15184   0.16436   0.18060
 Alpha virt. eigenvalues --    0.18500   0.20928   0.21586   0.22323   0.22781

 Mulliken charges:
               1
     1  C    0.015219
     2  C   -0.216644
     3  C    0.214302
     4  C   -0.017781
     5  C    0.006821
     6  C   -0.007372
     7  H    0.017141
     8  H    0.015594
     9  H    0.017961
    10  H    0.019868
    11  N   -0.356760
    12  S    0.151431
    13  C   -0.075098
    14  C   -0.022903
    15  C    0.079383
    16  C   -0.008938
    17  H    0.019109
    18  C    0.011957
    19  C    0.021570
    20  H    0.011932
    21  H    0.020120
    22  H    0.023330
    23  C    0.081236
    24  O   -0.192776
    25  H    0.171297
 Sum of Mulliken charges =  -0.00000

 Dipole moment (field-independent basis, Debye):
    X=             -0.6436    Y=             -1.8250    Z=             -0.0001  Tot=              1.9351
 Quadrupole moment (field-independent basis, Debye-Ang):
   XX=            -83.1814   YY=            -89.1965   ZZ=           -104.4008
   XY=             -6.9396   XZ=             -0.0004   YZ=              0.0002

  Exact polarizability:     402.700    -195.337     391.046      -0.002       0.004      63.401
 Approx polarizability:     279.351     -36.946     261.887      -0.000       0.003      82.390

                      1                      2                      3
                      A                      A                      A
 Frequencies --     40.6553                69.4408               108.7713
 Red. masses --      6.0733                 5.2993                 5.0339
 Frc consts  --      0.0059                 0.0151                 0.0351
 IR Inten    --      1.3218                 0.0089                 0.2579

                      4                      5                      6
                      A                      A                      A
 Frequencies --    110.9683               181.4077               224.1633
 Red. masses --      5.6648                 6.7558                 5.4080
 Frc consts  --      0.0411                 0.1310                 0.1601
 IR Inten    --      2.0363                 1.2784                 0.0042

                      7                      8                      9
                      A                      A                      A
 Frequencies --    266.4578               270.8346               293.7287
 Red. masses --      7.9895                 4.8353                 6.6375
 Frc consts  --      0.3342                 0.2090                 0.3374
 IR Inten    --     22.0560                 0.0542                 9.1237

                     10                     11                     12
                      A                      A                      A
 Frequencies --    392.5369               402.1407               439.7781
 Red. masses --      4.5507                 9.0895                 3.2794
 Frc consts  --      0.4131                 0.8661                 0.3737
 IR Inten    --      0.0779                13.4057                 4.0498

                     13                     14                     15
                      A                      A                      A
 Frequencies --    492.1431               497.6507               508.1690
 Red. masses --      4.4587                 7.5561                 3.1560
 Frc consts  --      0.6363                 1.1025                 0.4802
 IR Inten    --      0.2155                 8.0217                 0.1032

                     16                     17                     18
                      A                      A                      A
 Frequencies --    513.0853               524.5570               551.2827
 Red. masses --      5.2564                 8.1993                 4.0013
 Frc consts  --      0.8153                 1.3293                 0.7165
 IR Inten    --     27.5519                22.1709                 0.1596

                     19                     20                     21
                      A                      A                      A
 Frequencies --    577.1260               644.0114               684.6265
 Red. masses --      7.7002                 6.5727                10.0206
 Frc consts  --      1.5111                 1.6061                 2.7673
 IR Inten    --     49.0383                18.6176                50.4118

                     22                     23                     24
                      A                      A                      A
 Frequencies --    713.1387               721.5421               736.2680
 Red. masses --      6.7820                 1.7077                 1.8167
 Frc consts  --      2.0321                 0.5238                 0.5802
 IR Inten    --     13.6989                52.2593                42.3087

                     25                     26                     27
                      A                      A                      A
 Frequencies --    743.7874               771.9060               813.8823
 Red. masses --      1.9182                 2.1544                 6.4637
 Frc consts  --      0.6252                 0.7563                 2.5226
 IR Inten    --     14.8552                50.2213                20.7904

                     28                     29                     30
                      A                      A                      A
 Frequencies --    818.1696               860.2323               885.0019
 Red. masses --      1.6801                 1.4275                 6.3851
 Frc consts  --      0.6626                 0.6224                 2.9465
 IR Inten    --      3.9569                 0.5328                62.3550

                     31                     32                     33
                      A                      A                      A
 Frequencies --    908.1167               924.5420               953.7616
 Red. masses --      1.1123                 1.2842                 1.3432
 Frc consts  --      0.5404                 0.6467                 0.7199
 IR Inten    --     68.4623                 3.4431                 2.0168

                     34                     35                     36
                      A                      A                      A
 Frequencies --    956.8696               968.6867               999.5206
 Red. masses --      7.2704                 1.3472                 1.3029
 Frc consts  --      3.9220                 0.7448                 0.7669
 IR Inten    --      7.3941                 0.0477                 0.0025

                     37                     38                     39
                      A                      A                      A
 Frequencies --   1040.0703              1042.9245              1080.4048
 Red. masses --      2.0999                 2.1861                 4.7868
 Frc consts  --      1.3383                 1.4010                 3.2921
 IR Inten    --      0.8777                 3.4067                43.0896

                     40                     41                     42
                      A                      A                      A
 Frequencies --   1138.0500              1150.0623              1177.3045
 Red. masses --      1.4695                 1.3273                 1.1822
 Frc consts  --      1.1214                 1.0343                 0.9654
 IR Inten    --     53.7414                14.9721                22.8854

                     43                     44                     45
                      A                      A                      A
 Frequencies --   1180.7783              1219.1490              1243.5977
 Red. masses --      1.2139                 5.2600                 1.6415
 Frc consts  --      0.9972                 4.6063                 1.4957
 IR Inten    --     16.3405                45.7418               169.1096

                     46                     47                     48
                      A                      A                      A
 Frequencies --   1277.7267              1316.2807              1360.1353
 Red. masses --      1.6612                 3.2390                 2.8568
 Frc consts  --      1.5979                 3.3065                 3.1139
 IR Inten    --      2.0273               301.5886                48.2314

                     49                     50                     51
                      A                      A                      A
 Frequencies --   1371.9023              1400.8951              1441.1109
 Red. masses --      5.7610                 1.9897                 2.4808
 Frc consts  --      6.3884                 2.3006                 3.0356
 IR Inten    --     39.4201                 7.1691               182.1798

                     52                     53                     54
                      A                      A                      A
 Frequencies --   1472.5094              1500.0855              1514.0898
 Red. masses --      3.5165                 3.0742                 2.7391
 Frc consts  --      4.4923                 4.0759                 3.6997
 IR Inten    --     73.2870               110.7144               114.7027

                     55                     56                     57
                      A                      A                      A
 Frequencies --   1542.3249              1572.2352              1592.2307
 Red. masses --      4.7180                 7.1325                 3.4398
 Frc consts  --      6.6125                10.3878                 5.1379
 IR Inten    --     24.0802               212.9569               590.5050

                     58                     59                     60
                      A                      A                      A
 Frequencies --   1603.9166              1627.7647              1647.7440
 Red. masses --      2.8879                 4.8738                 5.4106
 Frc consts  --      4.3771                 7.6086                 8.6551
 IR Inten    --     67.9763               371.1768               213.4845

                     61                     62                     63
                      A                      A                      A
 Frequencies --   3054.3949              3207.9688              3209.9804
 Red. masses --      1.0746                 1.0862                 1.0861
 Frc consts  --      5.9067                 6.5861                 6.5934
 IR Inten    --     28.7275                 9.9338                 5.2455

                     64                     65                     66
                      A                      A                      A
 Frequencies --   3218.9117              3221.6687              3229.5813
 Red. masses --      1.0898                 1.0892                 1.0944
 Frc consts  --      6.6531                 6.6610                 6.7255
 IR Inten    --      3.3132                 1.6666                16.4548

                     67                     68                     69
                      A                      A                      A
 Frequencies --   3231.0888              3236.8305              3241.0539
 Red. masses --      1.0954                 1.0988                 1.0985
 Frc consts  --      6.7381                 6.7830                 6.7987
 IR Inten    --     11.8689                40.1029                27.4282

 - Thermochemistry -
 -------------------
 Temperature   298.150 Kelvin.  Pressure   1.00000 Atm.
 Atom     1 has atomic number  6 and mass  12.00000

 Molecular mass:   227.04049 amu.
 Principal axes and moments of inertia in atomic units:
                           1         2         3
     Eigenvalues --  1326.413226354.592647681.00586
           X           -0.69762   0.71647  -0.00000
           Y            0.71647   0.69762  -0.00001
           Z            0.00001   0.00001   1.00000
 This molecule is an asymmetric top.
 Rotational symmetry number  1.
 Warning -- assumption of classical behavior for rotation
           may cause significant error
 Rotational temperatures (Kelvin)      0.06530     0.01363     0.01128
 Rotational constants (GHZ):           1.36062     0.28401     0.23496
 Zero-point vibrational energy     490072.6 (Joules/Mol)
                                  117.13015 (Kcal/Mol)
 Warning -- explicit consideration of  19 degrees of freedom as
           vibrations may cause significant error
 Vibrational temperatures:     58.49    99.91   156.50   159.66   261.01
          (Kelvin)            322.52   383.37   389.67   422.61   564.77
                              578.59   632.74   708.08   716.01   731.14
                              738.22   754.72   793.17   830.36   926.59
                              985.02  1026.05  1038.14  1059.33  1070.14
                             1110.60  1171.00  1177.16  1237.68  1273.32
                             1306.58  1330.21  1372.25  1376.72  1393.72
                             1438.09  1496.43  1500.54  1554.46  1637.40
                             1654.68  1693.88  1698.88  1754.08  1789.26
                             1838.36  1893.83  1956.93  1973.86  2015.58
                             2073.44  2118.61  2158.29  2178.44  2219.06
                             2262.10  2290.86  2307.68  2341.99  2370.74
                             4394.59  4615.55  4618.45  4631.30  4635.26
                             4646.65  4648.82  4657.08  4663.15

 Zero-point correction=                           0.186659 (Hartree/Particle)
 Thermal correction to Energy=                    0.198961
 Thermal correction to Enthalpy=                  0.199906
 Thermal correction to Gibbs Free Energy=         0.147320
 Sum of electronic and zero-point Energies=          -1028.505890
 Sum of electronic and thermal Energies=             -1028.493587
 Sum of electronic and thermal Enthalpies=           -1028.492643
 Sum of electronic and thermal Free Energies=        -1028.545229

                     E (Thermal)             CV                S
                      KCal/Mol        Cal/Mol-Kelvin    Cal/Mol-Kelvin
 Total                  124.850             49.411            110.675
 Electronic               0.000              0.000              0.000
 Translational            0.889              2.981             42.162
 Rotational               0.889              2.981             32.537
 Vibrational            123.073             43.450             35.976
 Vibration     1          0.594              1.981              5.227
 Vibration     2          0.598              1.969              4.169
 Vibration     3          0.606              1.942              3.291
 Vibration     4          0.607              1.940              3.252
 Vibration     5          0.630              1.865              2.314
 Vibration     6          0.649              1.804              1.925
 Vibration     7          0.672              1.735              1.619
 Vibration     8          0.675              1.727              1.591
 Vibration     9          0.689              1.685              1.452
 Vibration    10          0.760              1.486              0.990
 Vibration    11          0.768              1.466              0.955
 Vibration    12          0.800              1.383              0.827
 Vibration    13          0.848              1.267              0.678
 Vibration    14          0.853              1.255              0.664
 Vibration    15          0.863              1.232              0.638
 Vibration    16          0.868              1.221              0.626
 Vibration    17          0.880              1.196              0.599
 Vibration    18          0.907              1.137              0.542
 Vibration    19          0.934              1.081              0.491

 Optimization completed.
    -- Stationary point found.
 Normal termination of Gaussian 16 at Mon Jul 13 18:00:58 2020.
