 Gaussian 16, Revision C.01,
 Gaussian 16:  ES64L-G16RevC.01  3-Jul-2019

 ----------------------------------------------------------------------
 #p opt=addgic freq td wb97xd/cc-pvdz nosymm int=ultrafine scrf=(solven
 t=CarbonTetraChloride)
 ----------------------------------------------------------------------

 ------------------------------------------------
 NM 2D-scan of HBT TD-WB97XD pVDZ in CTC Relaxed.
 ------------------------------------------------
 Symbolic Z-matrix:
 Charge =  0 Multiplicity = 1

 SCF Done:  E(RwB97XD) =  -1028.80276872     A.U. after   16 cycles
 Total Energy, E(TD-HF/TD-DFT) =  -1028.69252587
 SCF Done:  E(RwB97XD) =  -1028.79536313     A.U. after   14 cycles
 Total Energy, E(TD-HF/TD-DFT) =  -1028.69225018
 SCF Done:  E(RwB97XD) =  -1028.80477387     A.U. after   12 cycles
 Total Energy, E(TD-HF/TD-DFT) =  -1028.69722417
 SCF Done:  E(RwB97XD) =  -1028.80533255     A.U. after   11 cycles
 Total Energy, E(TD-HF/TD-DFT) =  -1028.69729003
 SCF Done:  E(RwB97XD) =  -1028.80528464     A.U. after    9 cycles
 Total Energy, E(TD-HF/TD-DFT) =  -1028.69729207
 Optimization completed.
    -- Stationary point found.
 Normal termination of Gaussian 16 at Mon Jul 13 16:21:11 2020.

 ----------------------------------------------------------------------
 #P Geom=AllCheck Guess=TCheck SCRF=Check GenChk RwB97XD TD(FC,Read)/CC
 -pVDZ Freq
 ----------------------------------------------------------------------

 Structure from the checkpoint file:  "config_9_4.chk"
 ------------------------------------------------
 NM 2D-scan of HBT TD-WB97XD pVDZ in CTC Relaxed.
 ------------------------------------------------
 Charge =  0 Multiplicity = 1

                          Input orientation:
 ---------------------------------------------------------------------
 Center     Atomic      Atomic             Coordinates (Angstroms)
 Number     Number       Type             X           Y           Z
 ---------------------------------------------------------------------
      1          6           0        1.730654   -3.282972   -0.000017
      2          6           0        1.008010   -2.090415   -0.000011
      3          6           0        1.690573   -0.852989   -0.000017
      4          6           0        3.091923   -0.790210   -0.000025
      5          6           0        3.797195   -1.981887   -0.000030
      6          6           0        3.127106   -3.215614   -0.000027
      7          1           0        1.223469   -4.248428   -0.000015
      8          1           0        3.592361    0.178446   -0.000029
      9          1           0        4.888083   -1.961076   -0.000038
     10          1           0        3.703524   -4.141537   -0.000032
     11          7           0        0.857238    0.210734   -0.000015
     12         16           0       -0.744343   -1.813976   -0.000004
     13          6           0       -1.408823    1.033212    0.000005
     14          6           0       -2.795674    0.889993   -0.000012
     15          6           0       -0.859535    2.425115    0.000036
     16          6           0       -3.660160    2.012036    0.000013
     17          1           0       -3.235815   -0.110057   -0.000043
     18          6           0       -1.778825    3.511611    0.000066
     19          6           0       -3.158289    3.315877    0.000056
     20          1           0       -4.737878    1.841844    0.000002
     21          1           0       -1.336300    4.508886    0.000097
     22          1           0       -3.837737    4.168879    0.000079
     23          6           0       -0.473200   -0.058069   -0.000005
     24          8           0        0.388297    2.663499    0.000050
     25          1           0        1.052226    1.261247   -0.000006
 ---------------------------------------------------------------------

 SCF Done:  E(RwB97XD) =  -1028.80528464     A.U. after    1 cycles

 Excitation energies and oscillator strengths:

 Excited state symmetry could not be determined.
 Excited State   1:      Singlet-?Sym    2.9386 eV  421.91 nm  f=0.4400  <S**2>=0.000
      59 -> 60         0.69574
 This state for optimization and/or second-order correction.
 Total Energy, E(TD-HF/TD-DFT) =  -1028.69729211
 Copying the excited state density for this state as the 1-particle RhoCI density.

 Excited state symmetry could not be determined.
 Excited State   2:      Singlet-?Sym    3.8472 eV  322.27 nm  f=0.0000  <S**2>=0.000
      57 -> 60         0.68406
      57 -> 62         0.11605
      57 -> 64         0.11748

 Excited state symmetry could not be determined.
 Excited State   3:      Singlet-?Sym    4.3375 eV  285.84 nm  f=0.4419  <S**2>=0.000
      58 -> 60         0.67913

 Alpha  occ. eigenvalues --  -89.10692 -19.21804 -14.51482 -10.42048 -10.37107
 Alpha  occ. eigenvalues --  -10.36316 -10.36276 -10.33443 -10.32743 -10.32475
 Alpha  occ. eigenvalues --  -10.32349 -10.31630 -10.31559 -10.30830 -10.29290
 Alpha  occ. eigenvalues --  -10.28470  -8.12586  -6.07471  -6.07100  -6.06605
 Alpha  occ. eigenvalues --   -1.12946  -1.09775  -0.98163  -0.94984  -0.93074
 Alpha  occ. eigenvalues --   -0.89169  -0.86321  -0.83990  -0.81279  -0.76042
 Alpha  occ. eigenvalues --   -0.72709  -0.71675  -0.68856  -0.67685  -0.64747
 Alpha  occ. eigenvalues --   -0.60916  -0.59652  -0.56826  -0.55724  -0.55403
 Alpha  occ. eigenvalues --   -0.54838  -0.53604  -0.53019  -0.50956  -0.49332
 Alpha  occ. eigenvalues --   -0.48858  -0.48190  -0.46821  -0.45402  -0.44936
 Alpha  occ. eigenvalues --   -0.44338  -0.42997  -0.41981  -0.40419  -0.36798
 Alpha  occ. eigenvalues --   -0.33548  -0.32445  -0.31395  -0.26157
 Alpha virt. eigenvalues --   -0.02065   0.03814   0.06071   0.06235   0.09022
 Alpha virt. eigenvalues --    0.10531   0.12270   0.14651   0.16059   0.17380
 Alpha virt. eigenvalues --    0.18933   0.20238   0.21090   0.21451   0.22973

 Mulliken charges:
               1
     1  C    0.012276
     2  C   -0.244682
     3  C    0.270075
     4  C   -0.011077
     5  C    0.014000
     6  C   -0.001424
     7  H    0.026480
     8  H    0.032143
     9  H    0.026979
    10  H    0.026443
    11  N   -0.149820
    12  S    0.197361
    13  C   -0.120678
    14  C   -0.020576
    15  C    0.122074
    16  C   -0.036486
    17  H    0.002588
    18  C   -0.017894
    19  C    0.032791
    20  H    0.003168
    21  H    0.003056
    22  H    0.014900
    23  C    0.061770
    24  O   -0.406532
    25  H    0.163067
 Sum of Mulliken charges =  -0.00000

 Dipole moment (field-independent basis, Debye):
    X=              1.5601    Y=             -5.1900    Z=             -0.0001  Tot=              5.4194
 Quadrupole moment (field-independent basis, Debye-Ang):
   XX=            -82.7089   YY=            -94.3541   ZZ=           -104.2978
   XY=             -6.7834   XZ=             -0.0002   YZ=             -0.0000

  Exact polarizability:     350.418    -125.303     303.224      -0.002       0.003      63.353
 Approx polarizability:     274.665     -36.892     266.982      -0.001       0.002      82.194

 ******    1 imaginary frequencies (negative Signs) ******

                      1                      2                      3
                      A                      A                      A
 Frequencies --    -51.2032                39.1986               107.5094
 Red. masses --      7.0196                 6.4203                 4.7497
 Frc consts  --      0.0108                 0.0058                 0.0323
 IR Inten    --      1.0449                 1.8637                 0.1056

                      4                      5                      6
                      A                      A                      A
 Frequencies --    118.7074               175.7691               221.7444
 Red. masses --      5.7435                 5.3812                 5.3533
 Frc consts  --      0.0477                 0.0980                 0.1551
 IR Inten    --      9.8579                 0.1529                 0.2122

                      7                      8                      9
                      A                      A                      A
 Frequencies --    265.5939               269.0425               324.0543
 Red. masses --      7.7238                 4.6637                 6.8943
 Frc consts  --      0.3210                 0.1989                 0.4266
 IR Inten    --      1.2357                 0.4655                13.6633

                     10                     11                     12
                      A                      A                      A
 Frequencies --    357.9820               391.5341               434.6619
 Red. masses --      5.0338                 9.7097                 3.3048
 Frc consts  --      0.3801                 0.8770                 0.3679
 IR Inten    --      1.0199                 3.4874                 4.6316

                     13                     14                     15
                      A                      A                      A
 Frequencies --    459.0443               504.0743               504.2469
 Red. masses --      4.6800                 8.7613                 3.1725
 Frc consts  --      0.5810                 1.3116                 0.4753
 IR Inten    --      1.6905                 6.7508                 0.5689

                     16                     17                     18
                      A                      A                      A
 Frequencies --    539.8460               556.0709               567.1806
 Red. masses --      8.7422                 3.8413                 6.6169
 Frc consts  --      1.5011                 0.6998                 1.2541
 IR Inten    --      3.4912                 0.6766                11.5220

                     19                     20                     21
                      A                      A                      A
 Frequencies --    575.2750               634.4986               691.4608
 Red. masses --      7.6407                 5.8865                 1.5924
 Frc consts  --      1.4898                 1.3963                 0.4486
 IR Inten    --     43.5642               107.8088                36.0751

                     22                     23                     24
                      A                      A                      A
 Frequencies --    698.6987               714.0785               741.5497
 Red. masses --      7.2839                 7.0684                 2.5409
 Frc consts  --      2.0950                 2.1236                 0.8232
 IR Inten    --      1.1424                 8.1158                13.9544

                     25                     26                     27
                      A                      A                      A
 Frequencies --    763.9992               767.6869               809.6931
 Red. masses --      1.7350                 1.7280                 6.4833
 Frc consts  --      0.5967                 0.6000                 2.5043
 IR Inten    --      0.0427                89.2277                13.8766

                     28                     29                     30
                      A                      A                      A
 Frequencies --    839.2260               864.4455               875.3236
 Red. masses --      1.6897                 1.3891                 4.3675
 Frc consts  --      0.7012                 0.6116                 1.9716
 IR Inten    --      0.0232                 0.5614                21.2043

                     31                     32                     33
                      A                      A                      A
 Frequencies --    908.2229               949.8572               953.9697
 Red. masses --      1.4162                 5.6001                 1.3663
 Frc consts  --      0.6883                 2.9769                 0.7326
 IR Inten    --      6.5008                 4.9399                 0.3161

                     34                     35                     36
                      A                      A                      A
 Frequencies --    956.8098              1003.0531              1018.1151
 Red. masses --      1.3477                 1.2912                 1.0725
 Frc consts  --      0.7269                 0.7654                 0.6550
 IR Inten    --      1.4479                 1.0358                68.9100

                     37                     38                     39
                      A                      A                      A
 Frequencies --   1046.0813              1051.1061              1077.3364
 Red. masses --      2.2172                 2.2209                 4.0722
 Frc consts  --      1.4295                 1.4457                 2.7847
 IR Inten    --      0.7962                 8.5959                 2.6204

                     40                     41                     42
                      A                      A                      A
 Frequencies --   1116.2576              1151.2464              1162.1696
 Red. masses --      1.5287                 1.3211                 1.2035
 Frc consts  --      1.1223                 1.0316                 0.9577
 IR Inten    --     45.3792                14.4855                72.7453

                     43                     44                     45
                      A                      A                      A
 Frequencies --   1178.9438              1224.5325              1258.4364
 Red. masses --      1.1387                 2.0780                 2.2577
 Frc consts  --      0.9325                 1.8358                 2.1065
 IR Inten    --     30.8410               109.8719                38.7330

                     46                     47                     48
                      A                      A                      A
 Frequencies --   1282.1785              1316.7237              1335.7401
 Red. masses --      1.6070                 1.9330                 4.8159
 Frc consts  --      1.5565                 1.9745                 5.0626
 IR Inten    --    117.8463               155.7817                10.2445

                     49                     50                     51
                      A                      A                      A
 Frequencies --   1367.3484              1395.6396              1401.5011
 Red. masses --      5.6380                 2.6314                 2.2991
 Frc consts  --      6.2106                 3.0198                 2.6606
 IR Inten    --    136.1897                21.9309                 3.5165

                     52                     53                     54
                      A                      A                      A
 Frequencies --   1436.5531              1483.4832              1504.5363
 Red. masses --      3.5483                 2.6643                 3.0344
 Frc consts  --      4.3143                 3.4546                 4.0470
 IR Inten    --    463.7322                 3.4251                20.6668

                     55                     56                     57
                      A                      A                      A
 Frequencies --   1535.4175              1561.6429              1587.9114
 Red. masses --      4.4059                 4.9638                 4.2560
 Frc consts  --      6.1199                 7.1323                 6.3228
 IR Inten    --     56.0332               160.1195                52.0171

                     58                     59                     60
                      A                      A                      A
 Frequencies --   1623.6837              1646.9674              1669.5476
 Red. masses --      5.8233                 5.7804                 6.7205
 Frc consts  --      9.0453                 9.2381                11.0370
 IR Inten    --    263.8362                80.1057               223.0822

                     61                     62                     63
                      A                      A                      A
 Frequencies --   2783.2516              3193.1692              3211.6776
 Red. masses --      1.1004                 1.0890                 1.0865
 Frc consts  --      5.0223                 6.5420                 6.6032
 IR Inten    --   1369.2098                22.8770                 0.7095

                     64                     65                     66
                      A                      A                      A
 Frequencies --   3212.1214              3222.0367              3223.4665
 Red. masses --      1.0862                 1.0902                 1.0922
 Frc consts  --      6.6030                 6.6682                 6.6866
 IR Inten    --      5.5148                 2.7970                16.4058

                     67                     68                     69
                      A                      A                      A
 Frequencies --   3231.5254              3234.8002              3239.0410
 Red. masses --      1.0959                 1.0990                 1.0995
 Frc consts  --      6.7428                 6.7758                 6.7967
 IR Inten    --      7.7095                21.9991                14.2723

 - Thermochemistry -
 -------------------
 Temperature   298.150 Kelvin.  Pressure   1.00000 Atm.
 Atom     1 has atomic number  6 and mass  12.00000

 Molecular mass:   227.04049 amu.
 Principal axes and moments of inertia in atomic units:
                           1         2         3
     Eigenvalues --  1327.306986390.621107717.92808
           X           -0.70123   0.71294   0.00000
           Y            0.71294   0.70123  -0.00001
           Z            0.00001   0.00001   1.00000
 This molecule is an asymmetric top.
 Rotational symmetry number  1.
 Warning -- assumption of classical behavior for rotation
           may cause significant error
 Rotational temperatures (Kelvin)      0.06526     0.01355     0.01122
 Rotational constants (GHZ):           1.35970     0.28240     0.23384
    1 imaginary frequencies ignored.
 Zero-point vibrational energy     487886.8 (Joules/Mol)
                                  116.60774 (Kcal/Mol)
 Warning -- explicit consideration of  18 degrees of freedom as
           vibrations may cause significant error
 Vibrational temperatures:     56.40   154.68   170.79   252.89   319.04
          (Kelvin)            382.13   387.09   466.24   515.06   563.33
                              625.38   660.46   725.25   725.50   776.72
                              800.06   816.05   827.69   912.90   994.86
                             1005.27  1027.40  1066.92  1099.22  1104.53
                             1164.97  1207.46  1243.74  1259.40  1306.73
                             1366.63  1372.55  1376.64  1443.17  1464.84
                             1505.08  1512.31  1550.05  1606.05  1656.39
                             1672.10  1696.24  1761.83  1810.61  1844.77
                             1894.47  1921.83  1967.31  2008.01  2016.45
                             2066.88  2134.40  2164.69  2209.12  2246.86
                             2284.65  2336.12  2369.62  2402.11  4004.48
                             4594.26  4620.89  4621.53  4635.79  4637.85
                             4649.44  4654.16  4660.26

 Zero-point correction=                           0.185826 (Hartree/Particle)
 Thermal correction to Energy=                    0.197323
 Thermal correction to Enthalpy=                  0.198267
 Thermal correction to Gibbs Free Energy=         0.147658
 Sum of electronic and zero-point Energies=          -1028.511466
 Sum of electronic and thermal Energies=             -1028.499969
 Sum of electronic and thermal Enthalpies=           -1028.499025
 Sum of electronic and thermal Free Energies=        -1028.549634

                     E (Thermal)             CV                S
                      KCal/Mol        Cal/Mol-Kelvin    Cal/Mol-Kelvin
 Total                  123.822             47.354            106.515
 Electronic               0.000              0.000              0.000
 Translational            0.889              2.981             42.162
 Rotational               0.889              2.981             32.548
 Vibrational            122.045             41.392             31.805
 Vibration     1          0.594              1.981              5.299
 Vibration     2          0.606              1.943              3.313
 Vibration     3          0.609              1.934              3.121
 Vibration     4          0.628              1.872              2.373
 Vibration     5          0.648              1.808              1.945
 Vibration     6          0.671              1.736              1.625
 Vibration     7          0.673              1.730              1.602
 Vibration     8          0.709              1.627              1.290
 Vibration     9          0.733              1.559              1.131
 Vibration    10          0.759              1.488              0.994
 Vibration    11          0.795              1.395              0.844
 Vibration    12          0.817              1.341              0.769
 Vibration    13          0.859              1.241              0.648
 Vibration    14          0.860              1.241              0.648
 Vibration    15          0.895              1.162              0.566
 Vibration    16          0.912              1.126              0.532
 Vibration    17          0.923              1.102              0.510
 Vibration    18          0.932              1.085              0.494

 Optimization completed.
    -- Stationary point found.
 Normal termination of Gaussian 16 at Mon Jul 13 16:38:55 2020.
