 Gaussian 16, Revision C.01,
 Gaussian 16:  ES64L-G16RevC.01  3-Jul-2019

 ----------------------------------------------------------------------
 #p opt=addgic freq td wb97xd/cc-pvdz nosymm int=ultrafine scrf=(solven
 t=CarbonTetraChloride)
 ----------------------------------------------------------------------

 ------------------------------------------------
 NM 2D-scan of HBT TD-WB97XD pVDZ in CTC Relaxed.
 ------------------------------------------------
 Symbolic Z-matrix:
 Charge =  0 Multiplicity = 1

 SCF Done:  E(RwB97XD) =  -1028.65824204     A.U. after   15 cycles
 Total Energy, E(TD-HF/TD-DFT) =  -1028.52644292
 SCF Done:  E(RwB97XD) =  -1028.79434845     A.U. after   13 cycles
 Total Energy, E(TD-HF/TD-DFT) =  -1028.66434261
 SCF Done:  E(RwB97XD) =  -1028.80099925     A.U. after   15 cycles
 Total Energy, E(TD-HF/TD-DFT) =  -1028.67559671
 SCF Done:  E(RwB97XD) =  -1028.81857898     A.U. after   13 cycles
 Total Energy, E(TD-HF/TD-DFT) =  -1028.69110877
 SCF Done:  E(RwB97XD) =  -1028.81935787     A.U. after   11 cycles
 Total Energy, E(TD-HF/TD-DFT) =  -1028.69124942
 SCF Done:  E(RwB97XD) =  -1028.81954497     A.U. after    9 cycles
 Total Energy, E(TD-HF/TD-DFT) =  -1028.69125727
 SCF Done:  E(RwB97XD) =  -1028.81954208     A.U. after    8 cycles
 Total Energy, E(TD-HF/TD-DFT) =  -1028.69125857
 Optimization completed.
    -- Stationary point found.
 Normal termination of Gaussian 16 at Mon Jul 13 20:24:44 2020.

 ----------------------------------------------------------------------
 #P Geom=AllCheck Guess=TCheck SCRF=Check GenChk RwB97XD TD(FC,Read)/CC
 -pVDZ Freq
 ----------------------------------------------------------------------

 Structure from the checkpoint file:  "config_1_15.chk"
 ------------------------------------------------
 NM 2D-scan of HBT TD-WB97XD pVDZ in CTC Relaxed.
 ------------------------------------------------
 Charge =  0 Multiplicity = 1

                          Input orientation:
 ---------------------------------------------------------------------
 Center     Atomic      Atomic             Coordinates (Angstroms)
 Number     Number       Type             X           Y           Z
 ---------------------------------------------------------------------
      1          6           0        1.568128   -3.300641   -0.000016
      2          6           0        0.963910   -2.044883   -0.000007
      3          6           0        1.740215   -0.829732   -0.000017
      4          6           0        3.159284   -0.937039   -0.000037
      5          6           0        3.740321   -2.186989   -0.000045
      6          6           0        2.959138   -3.366327   -0.000034
      7          1           0        0.966270   -4.210234   -0.000008
      8          1           0        3.757494   -0.025361   -0.000045
      9          1           0        4.828499   -2.272747   -0.000060
     10          1           0        3.452508   -4.339366   -0.000041
     11          7           0        1.048787    0.317389   -0.000004
     12         16           0       -0.734016   -1.661696    0.000013
     13          6           0       -1.287357    1.079841    0.000029
     14          6           0       -2.684096    0.769285    0.000023
     15          6           0       -0.935379    2.507477    0.000039
     16          6           0       -3.639924    1.764529    0.000016
     17          1           0       -2.993710   -0.276888    0.000019
     18          6           0       -1.929734    3.488440    0.000031
     19          6           0       -3.272403    3.130836    0.000017
     20          1           0       -4.696637    1.493057    0.000009
     21          1           0       -1.610026    4.530874    0.000038
     22          1           0       -4.042173    3.903248    0.000011
     23          6           0       -0.294914    0.085804    0.000017
     24          8           0        0.325086    2.914986    0.000074
     25          1           0        0.917342    2.120614    0.000100
 ---------------------------------------------------------------------

 SCF Done:  E(RwB97XD) =  -1028.81954208     A.U. after    1 cycles

 Excitation energies and oscillator strengths:

 Excited state symmetry could not be determined.
 Excited State   1:      Singlet-?Sym    3.4908 eV  355.18 nm  f=0.7458  <S**2>=0.000
      59 -> 60         0.68917
 This state for optimization and/or second-order correction.
 Total Energy, E(TD-HF/TD-DFT) =  -1028.69125855
 Copying the excited state density for this state as the 1-particle RhoCI density.

 Excited state symmetry could not be determined.
 Excited State   2:      Singlet-?Sym    4.3826 eV  282.90 nm  f=0.1027  <S**2>=0.000
      57 -> 60         0.53942
      58 -> 60        -0.37660
      59 -> 62        -0.15572

 Excited state symmetry could not be determined.
 Excited State   3:      Singlet-?Sym    4.5402 eV  273.08 nm  f=0.1088  <S**2>=0.000
      57 -> 60         0.34942
      57 -> 63        -0.10336
      58 -> 60         0.52097
      59 -> 61         0.20567
      59 -> 62         0.10591

 Alpha  occ. eigenvalues --  -89.08681 -19.29310 -14.47075 -10.39599 -10.38405
 Alpha  occ. eigenvalues --  -10.34876 -10.34570 -10.32829 -10.32421 -10.32130
 Alpha  occ. eigenvalues --  -10.31985 -10.31281 -10.31264 -10.31122 -10.30667
 Alpha  occ. eigenvalues --  -10.30596  -8.10645  -6.05487  -6.05155  -6.04708
 Alpha  occ. eigenvalues --   -1.17625  -1.07907  -0.96809  -0.95638  -0.91737
 Alpha  occ. eigenvalues --   -0.88763  -0.85208  -0.84455  -0.82132  -0.76009
 Alpha  occ. eigenvalues --   -0.71312  -0.70132  -0.69125  -0.68248  -0.63541
 Alpha  occ. eigenvalues --   -0.60178  -0.59043  -0.58512  -0.56138  -0.54482
 Alpha  occ. eigenvalues --   -0.53544  -0.53344  -0.52789  -0.50595  -0.50543
 Alpha  occ. eigenvalues --   -0.49128  -0.47896  -0.45917  -0.45527  -0.44795
 Alpha  occ. eigenvalues --   -0.43971  -0.43018  -0.41974  -0.39879  -0.37696
 Alpha  occ. eigenvalues --   -0.36421  -0.31908  -0.31716  -0.28031
 Alpha virt. eigenvalues --   -0.01899   0.05300   0.06840   0.07059   0.07613
 Alpha virt. eigenvalues --    0.11294   0.14007   0.15197   0.16537   0.18075
 Alpha virt. eigenvalues --    0.18437   0.20663   0.21556   0.22297   0.22808

 Mulliken charges:
               1
     1  C    0.015688
     2  C   -0.212203
     3  C    0.202794
     4  C   -0.017801
     5  C    0.006199
     6  C   -0.007760
     7  H    0.016585
     8  H    0.014554
     9  H    0.017446
    10  H    0.019536
    11  N   -0.349856
    12  S    0.146051
    13  C   -0.065837
    14  C   -0.024761
    15  C    0.072546
    16  C   -0.006162
    17  H    0.021856
    18  C    0.014800
    19  C    0.021095
    20  H    0.012423
    21  H    0.020996
    22  H    0.023679
    23  C    0.076889
    24  O   -0.184624
    25  H    0.165868
 Sum of Mulliken charges =  -0.00000

 Dipole moment (field-independent basis, Debye):
    X=             -0.7574    Y=             -1.6466    Z=              0.0000  Tot=              1.8124
 Quadrupole moment (field-independent basis, Debye-Ang):
   XX=            -83.1129   YY=            -89.1202   ZZ=           -104.4201
   XY=             -6.8616   XZ=             -0.0000   YZ=              0.0001

  Exact polarizability:     404.147    -198.684     397.544      -0.003       0.003      63.405
 Approx polarizability:     279.987     -37.383     262.534      -0.001       0.001      82.383

                      1                      2                      3
                      A                      A                      A
 Frequencies --     39.8375                72.7628               105.3099
 Red. masses --      6.0629                 5.0458                 5.6483
 Frc consts  --      0.0057                 0.0157                 0.0369
 IR Inten    --      1.2163                 0.0013                 1.8216

                      4                      5                      6
                      A                      A                      A
 Frequencies --    109.5018               182.6362               225.4640
 Red. masses --      5.1008                 6.8690                 5.4421
 Frc consts  --      0.0360                 0.1350                 0.1630
 IR Inten    --      0.2897                 1.3029                 0.0173

                      7                      8                      9
                      A                      A                      A
 Frequencies --    258.9864               271.3167               285.1205
 Red. masses --      8.0394                 4.8404                 6.5616
 Frc consts  --      0.3177                 0.2099                 0.3143
 IR Inten    --     14.3987                 0.0440                15.6368

                     10                     11                     12
                      A                      A                      A
 Frequencies --    394.6464               401.7626               440.7306
 Red. masses --      4.5098                 8.8729                 3.2887
 Frc consts  --      0.4138                 0.8438                 0.3764
 IR Inten    --      0.0606                13.5573                 3.9576

                     13                     14                     15
                      A                      A                      A
 Frequencies --    493.4995               495.5863               507.3467
 Red. masses --      4.3821                 6.7733                 5.7083
 Frc consts  --      0.6288                 0.9801                 0.8657
 IR Inten    --      0.1795                10.6433                16.4517

                     16                     17                     18
                      A                      A                      A
 Frequencies --    510.5951               524.2107               549.9868
 Red. masses --      3.1529                 8.3077                 3.9959
 Frc consts  --      0.4843                 1.3451                 0.7122
 IR Inten    --      0.2593                23.2141                 0.2681

                     19                     20                     21
                      A                      A                      A
 Frequencies --    576.8444               644.1244               674.3315
 Red. masses --      7.7090                 6.5767                10.2307
 Frc consts  --      1.5114                 1.6077                 2.7410
 IR Inten    --     58.9748                 7.1222                63.7130

                     22                     23                     24
                      A                      A                      A
 Frequencies --    711.9489               723.3324               735.0063
 Red. masses --      6.5552                 1.6144                 1.7851
 Frc consts  --      1.9576                 0.4977                 0.5682
 IR Inten    --     10.9164                67.0169                50.7543

                     25                     26                     27
                      A                      A                      A
 Frequencies --    739.9926               772.1339               811.8014
 Red. masses --      1.9695                 2.2272                 6.4294
 Frc consts  --      0.6354                 0.7823                 2.4964
 IR Inten    --      3.0192                47.3327                21.9046

                     28                     29                     30
                      A                      A                      A
 Frequencies --    814.0508               836.6943               860.1409
 Red. masses --      1.6285                 1.1206                 1.4356
 Frc consts  --      0.6358                 0.4622                 0.6258
 IR Inten    --     28.2146                39.3728                 2.4925

                     31                     32                     33
                      A                      A                      A
 Frequencies --    881.2649               924.4776               950.6218
 Red. masses --      6.3533                 1.3441                 7.2648
 Frc consts  --      2.9071                 0.6768                 3.8680
 IR Inten    --     66.4272                 1.8461                 9.3405

                     34                     35                     36
                      A                      A                      A
 Frequencies --    953.8847               969.9009               999.2008
 Red. masses --      1.3433                 1.3408                 1.3052
 Frc consts  --      0.7202                 0.7431                 0.7678
 IR Inten    --      2.0781                 0.0786                 0.0002

                     37                     38                     39
                      A                      A                      A
 Frequencies --   1038.5320              1042.2681              1081.4864
 Red. masses --      2.0998                 2.1740                 4.7610
 Frc consts  --      1.3343                 1.3915                 3.2809
 IR Inten    --      0.9205                 4.8295                38.4928

                     40                     41                     42
                      A                      A                      A
 Frequencies --   1137.5562              1150.4564              1175.6247
 Red. masses --      1.4759                 1.3229                 1.1903
 Frc consts  --      1.1253                 1.0317                 0.9693
 IR Inten    --     45.2773                14.8464                29.5916

                     43                     44                     45
                      A                      A                      A
 Frequencies --   1179.8806              1206.6216              1235.0880
 Red. masses --      1.2109                 4.8823                 1.5979
 Frc consts  --      0.9932                 4.1881                 1.4361
 IR Inten    --     11.2176                43.2954               164.7906

                     46                     47                     48
                      A                      A                      A
 Frequencies --   1275.8541              1309.4377              1356.0674
 Red. masses --      1.6638                 2.9134                 2.9902
 Frc consts  --      1.5957                 2.9432                 3.2397
 IR Inten    --      0.3591               222.6064                73.5308

                     49                     50                     51
                      A                      A                      A
 Frequencies --   1369.6801              1395.9740              1434.2185
 Red. masses --      5.4830                 1.9352                 2.6119
 Frc consts  --      6.0605                 2.2219                 3.1655
 IR Inten    --     26.9169                11.4248               239.3058

                     52                     53                     54
                      A                      A                      A
 Frequencies --   1471.6457              1488.3736              1506.5593
 Red. masses --      3.4472                 2.0452                 3.9113
 Frc consts  --      4.3986                 2.6693                 5.2306
 IR Inten    --     78.6623               181.7882                17.8450

                     55                     56                     57
                      A                      A                      A
 Frequencies --   1542.2195              1572.3501              1583.2784
 Red. masses --      4.8979                 5.6670                 3.2189
 Frc consts  --      6.8637                 8.2547                 4.7542
 IR Inten    --     58.9078               153.3499               478.6736

                     58                     59                     60
                      A                      A                      A
 Frequencies --   1598.8532              1632.4049              1646.4541
 Red. masses --      5.0879                 5.2208                 5.6293
 Frc consts  --      7.6631                 8.1968                 8.9909
 IR Inten    --     79.4942               300.4081               253.2786

                     61                     62                     63
                      A                      A                      A
 Frequencies --   3207.2834              3210.0344              3218.2637
 Red. masses --      1.0862                 1.0860                 1.0898
 Frc consts  --      6.5833                 6.5932                 6.6500
 IR Inten    --      9.5364                 5.0626                 3.6273

                     64                     65                     66
                      A                      A                      A
 Frequencies --   3221.6474              3229.8639              3230.5117
 Red. masses --      1.0891                 1.0947                 1.0956
 Frc consts  --      6.6601                 6.7284                 6.7366
 IR Inten    --      1.6710                15.3383                12.7267

                     67                     68                     69
                      A                      A                      A
 Frequencies --   3236.0945              3240.9407              3287.3205
 Red. masses --      1.0987                 1.0985                 1.0708
 Frc consts  --      6.7789                 6.7984                 6.8175
 IR Inten    --     38.9615                26.2967                 7.0017

 - Thermochemistry -
 -------------------
 Temperature   298.150 Kelvin.  Pressure   1.00000 Atm.
 Atom     1 has atomic number  6 and mass  12.00000

 Molecular mass:   227.04049 amu.
 Principal axes and moments of inertia in atomic units:
                           1         2         3
     Eigenvalues --  1329.102456374.586377703.68882
           X           -0.69567   0.71836   0.00000
           Y            0.71836   0.69567  -0.00001
           Z            0.00001   0.00000   1.00000
 This molecule is an asymmetric top.
 Rotational symmetry number  1.
 Warning -- assumption of classical behavior for rotation
           may cause significant error
 Rotational temperatures (Kelvin)      0.06517     0.01359     0.01124
 Rotational constants (GHZ):           1.35786     0.28312     0.23427
 Zero-point vibrational energy     490241.0 (Joules/Mol)
                                  117.17042 (Kcal/Mol)
 Warning -- explicit consideration of  19 degrees of freedom as
           vibrations may cause significant error
 Vibrational temperatures:     57.32   104.69   151.52   157.55   262.77
          (Kelvin)            324.39   372.62   390.36   410.22   567.81
                              578.05   634.11   710.04   713.04   729.96
                              734.63   754.22   791.31   829.95   926.75
                              970.21  1024.34  1040.71  1057.51  1064.68
                             1110.93  1168.00  1171.24  1203.82  1237.55
                             1267.94  1330.12  1367.73  1372.43  1395.47
                             1437.63  1494.22  1499.59  1556.02  1636.69
                             1655.25  1691.46  1697.59  1736.06  1777.02
                             1835.67  1883.99  1951.08  1970.66  2008.50
                             2063.52  2117.37  2141.44  2167.60  2218.91
                             2262.26  2277.98  2300.39  2348.67  2368.88
                             4614.57  4618.52  4630.36  4635.23  4647.05
                             4647.99  4656.02  4662.99  4729.72

 Zero-point correction=                           0.186723 (Hartree/Particle)
 Thermal correction to Energy=                    0.199077
 Thermal correction to Enthalpy=                  0.200021
 Thermal correction to Gibbs Free Energy=         0.147340
 Sum of electronic and zero-point Energies=          -1028.504536
 Sum of electronic and thermal Energies=             -1028.492182
 Sum of electronic and thermal Enthalpies=           -1028.491238
 Sum of electronic and thermal Free Energies=        -1028.543919

                     E (Thermal)             CV                S
                      KCal/Mol        Cal/Mol-Kelvin    Cal/Mol-Kelvin
 Total                  124.923             49.632            110.877
 Electronic               0.000              0.000              0.000
 Translational            0.889              2.981             42.162
 Rotational               0.889              2.981             32.545
 Vibrational            123.145             43.670             36.170
 Vibration     1          0.594              1.981              5.267
 Vibration     2          0.599              1.967              4.077
 Vibration     3          0.605              1.945              3.354
 Vibration     4          0.606              1.942              3.278
 Vibration     5          0.630              1.863              2.301
 Vibration     6          0.650              1.802              1.915
 Vibration     7          0.668              1.748              1.669
 Vibration     8          0.675              1.726              1.588
 Vibration     9          0.683              1.701              1.503
 Vibration    10          0.762              1.482              0.983
 Vibration    11          0.767              1.466              0.956
 Vibration    12          0.801              1.381              0.824
 Vibration    13          0.849              1.264              0.675
 Vibration    14          0.851              1.260              0.669
 Vibration    15          0.863              1.234              0.640
 Vibration    16          0.866              1.227              0.632
 Vibration    17          0.879              1.196              0.600
 Vibration    18          0.905              1.140              0.544
 Vibration    19          0.933              1.081              0.491

 Optimization completed.
    -- Stationary point found.
 Normal termination of Gaussian 16 at Mon Jul 13 20:42:04 2020.
