 Gaussian 16, Revision C.01,
 Gaussian 16:  ES64L-G16RevC.01  3-Jul-2019

 ----------------------------------------------------------------------
 #p opt=addgic freq td wb97xd/cc-pvdz nosymm int=ultrafine scrf=(solven
 t=CarbonTetraChloride)
 ----------------------------------------------------------------------

 ------------------------------------------------
 NM 2D-scan of HBT TD-WB97XD pVDZ in CTC Relaxed.
 ------------------------------------------------
 Symbolic Z-matrix:
 Charge =  0 Multiplicity = 1

 SCF Done:  E(RwB97XD) =  -1028.81378585     A.U. after   15 cycles
 Total Energy, E(TD-HF/TD-DFT) =  -1028.68388681
 SCF Done:  E(RwB97XD) =  -1028.81965816     A.U. after   13 cycles
 Total Energy, E(TD-HF/TD-DFT) =  -1028.69123514
 SCF Done:  E(RwB97XD) =  -1028.81829622     A.U. after   12 cycles
 Total Energy, E(TD-HF/TD-DFT) =  -1028.69175542
 SCF Done:  E(RwB97XD) =  -1028.81905648     A.U. after   11 cycles
 Total Energy, E(TD-HF/TD-DFT) =  -1028.69218235
 SCF Done:  E(RwB97XD) =  -1028.81922060     A.U. after   10 cycles
 Total Energy, E(TD-HF/TD-DFT) =  -1028.69221127
 SCF Done:  E(RwB97XD) =  -1028.81924125     A.U. after    9 cycles
 Total Energy, E(TD-HF/TD-DFT) =  -1028.69221300
 Optimization completed.
    -- Stationary point found.
 Normal termination of Gaussian 16 at Mon Jul 13 14:44:36 2020.

 ----------------------------------------------------------------------
 #P Geom=AllCheck Guess=TCheck SCRF=Check GenChk RwB97XD TD(FC,Read)/CC
 -pVDZ Freq
 ----------------------------------------------------------------------

 Structure from the checkpoint file:  "config_4_7.chk"
 ------------------------------------------------
 NM 2D-scan of HBT TD-WB97XD pVDZ in CTC Relaxed.
 ------------------------------------------------
 Charge =  0 Multiplicity = 1

                          Input orientation:
 ---------------------------------------------------------------------
 Center     Atomic      Atomic             Coordinates (Angstroms)
 Number     Number       Type             X           Y           Z
 ---------------------------------------------------------------------
      1          6           0        1.677267   -3.282130   -0.000032
      2          6           0        0.985965   -2.072421   -0.000015
      3          6           0        1.689125   -0.825763   -0.000004
      4          6           0        3.106240   -0.822592   -0.000008
      5          6           0        3.775521   -2.028914   -0.000026
      6          6           0        3.073186   -3.252163   -0.000039
      7          1           0        1.143801   -4.233494   -0.000041
      8          1           0        3.634369    0.131467    0.000001
      9          1           0        4.866971   -2.039989   -0.000031
     10          1           0        3.627852   -4.191593   -0.000053
     11          7           0        0.921131    0.269408    0.000010
     12         16           0       -0.746251   -1.774294   -0.000004
     13          6           0       -1.369201    1.025823    0.000013
     14          6           0       -2.775711    0.841479    0.000006
     15          6           0       -0.891831    2.428691    0.000026
     16          6           0       -3.643643    1.927681    0.000023
     17          1           0       -3.178452   -0.172884   -0.000010
     18          6           0       -1.801342    3.497957    0.000046
     19          6           0       -3.168633    3.259664    0.000045
     20          1           0       -4.719590    1.745631    0.000019
     21          1           0       -1.386488    4.506340    0.000059
     22          1           0       -3.872566    4.092151    0.000060
     23          6           0       -0.409293   -0.012650    0.000009
     24          8           0        0.387129    2.710300    0.000022
     25          1           0        0.894541    1.809687    0.000023
 ---------------------------------------------------------------------

 SCF Done:  E(RwB97XD) =  -1028.81924125     A.U. after    1 cycles

 Excitation energies and oscillator strengths:

 Excited state symmetry could not be determined.
 Excited State   1:      Singlet-?Sym    3.4566 eV  358.69 nm  f=0.6532  <S**2>=0.000
      59 -> 60         0.68992
 This state for optimization and/or second-order correction.
 Total Energy, E(TD-HF/TD-DFT) =  -1028.69221300
 Copying the excited state density for this state as the 1-particle RhoCI density.

 Excited state symmetry could not be determined.
 Excited State   2:      Singlet-?Sym    4.3900 eV  282.42 nm  f=0.2614  <S**2>=0.000
      57 -> 60         0.21084
      58 -> 60         0.63056
      59 -> 62         0.12315
      59 -> 63         0.10987

 Excited state symmetry could not be determined.
 Excited State   3:      Singlet-?Sym    4.6167 eV  268.56 nm  f=0.0511  <S**2>=0.000
      57 -> 60         0.57731
      57 -> 62        -0.14049
      58 -> 60        -0.20338
      58 -> 61        -0.14044
      59 -> 61         0.23736

 Alpha  occ. eigenvalues --  -89.09232 -19.27807 -14.47188 -10.40017 -10.38025
 Alpha  occ. eigenvalues --  -10.35084 -10.34937 -10.32605 -10.32311 -10.32265
 Alpha  occ. eigenvalues --  -10.31876 -10.31500 -10.31489 -10.31374 -10.30368
 Alpha  occ. eigenvalues --  -10.30164  -8.11141  -6.05997  -6.05655  -6.05195
 Alpha  occ. eigenvalues --   -1.16760  -1.08508  -0.96715  -0.95617  -0.91758
 Alpha  occ. eigenvalues --   -0.88826  -0.84932  -0.84361  -0.82386  -0.75956
 Alpha  occ. eigenvalues --   -0.71045  -0.70206  -0.69095  -0.68296  -0.63410
 Alpha  occ. eigenvalues --   -0.60452  -0.58855  -0.58589  -0.55796  -0.54393
 Alpha  occ. eigenvalues --   -0.53871  -0.53042  -0.52913  -0.50983  -0.50299
 Alpha  occ. eigenvalues --   -0.49463  -0.47687  -0.45937  -0.45563  -0.44755
 Alpha  occ. eigenvalues --   -0.43858  -0.42803  -0.42429  -0.40082  -0.37028
 Alpha  occ. eigenvalues --   -0.36469  -0.32252  -0.31351  -0.27954
 Alpha virt. eigenvalues --   -0.01787   0.05037   0.06990   0.07255   0.07279
 Alpha virt. eigenvalues --    0.11041   0.13522   0.15119   0.16085   0.17970
 Alpha virt. eigenvalues --    0.18625   0.20969   0.21696   0.22367   0.22644

 Mulliken charges:
               1
     1  C    0.011956
     2  C   -0.226079
     3  C    0.242618
     4  C   -0.016349
     5  C    0.008883
     6  C   -0.006759
     7  H    0.018927
     8  H    0.018054
     9  H    0.019307
    10  H    0.020918
    11  N   -0.356176
    12  S    0.159357
    13  C   -0.096226
    14  C   -0.018094
    15  C    0.093433
    16  C   -0.016343
    17  H    0.012000
    18  C    0.006787
    19  C    0.023430
    20  H    0.010756
    21  H    0.017600
    22  H    0.022128
    23  C    0.083247
    24  O   -0.217182
    25  H    0.183808
 Sum of Mulliken charges =  -0.00000

 Dipole moment (field-independent basis, Debye):
    X=             -0.2471    Y=             -2.2025    Z=             -0.0000  Tot=              2.2163
 Quadrupole moment (field-independent basis, Debye-Ang):
   XX=            -83.2734   YY=            -89.4348   ZZ=           -104.4020
   XY=             -6.9696   XZ=             -0.0001   YZ=              0.0002

  Exact polarizability:     396.941    -184.258     373.931      -0.002       0.003      63.435
 Approx polarizability:     278.499     -36.130     261.437      -0.001       0.002      82.422

                      1                      2                      3
                      A                      A                      A
 Frequencies --     42.0457                54.3158               108.8551
 Red. masses --      5.8561                 6.6168                 4.6984
 Frc consts  --      0.0061                 0.0115                 0.0328
 IR Inten    --      1.5034                 0.0261                 0.1840

                      4                      5                      6
                      A                      A                      A
 Frequencies --    112.6125               179.1102               223.1461
 Red. masses --      5.5945                 6.3259                 5.3690
 Frc consts  --      0.0418                 0.1196                 0.1575
 IR Inten    --      1.5095                 0.9736                 0.0067

                      7                      8                      9
                      A                      A                      A
 Frequencies --    267.9097               269.8710               307.2047
 Red. masses --      7.6319                 4.8166                 6.5336
 Frc consts  --      0.3227                 0.2067                 0.3633
 IR Inten    --     24.7782                 0.1323                 6.1788

                     10                     11                     12
                      A                      A                      A
 Frequencies --    388.2701               399.1666               438.4494
 Red. masses --      4.6975                 9.1982                 3.2594
 Frc consts  --      0.4172                 0.8635                 0.3692
 IR Inten    --      0.1844                11.7406                 4.4387

                     13                     14                     15
                      A                      A                      A
 Frequencies --    489.5940               499.4360               501.3820
 Red. masses --      4.6009                 7.2210                 3.1539
 Frc consts  --      0.6498                 1.0612                 0.4671
 IR Inten    --      0.1519                 7.5898                 0.0030

                     16                     17                     18
                      A                      A                      A
 Frequencies --    512.1877               526.9598               552.9767
 Red. masses --      4.9801                 8.4793                 3.9711
 Frc consts  --      0.7697                 1.3873                 0.7154
 IR Inten    --     20.5953                26.4063                 0.1186

                     19                     20                     21
                      A                      A                      A
 Frequencies --    579.1721               640.4633               693.6393
 Red. masses --      7.6231                 6.7065                 8.0717
 Frc consts  --      1.5066                 1.6208                 2.2881
 IR Inten    --     23.9120                51.4201                13.5094

                     22                     23                     24
                      A                      A                      A
 Frequencies --    711.3010               717.7625               737.4777
 Red. masses --      1.7348                 8.0965                 1.9410
 Frc consts  --      0.5171                 2.4576                 0.6220
 IR Inten    --     43.8434                19.6197                27.3743

                     25                     26                     27
                      A                      A                      A
 Frequencies --    753.5336               770.9225               812.2257
 Red. masses --      1.8985                 1.9988                 6.3837
 Frc consts  --      0.6351                 0.6999                 2.4813
 IR Inten    --     28.6371                54.0512                12.5882

                     28                     29                     30
                      A                      A                      A
 Frequencies --    820.9870               860.6207               895.6257
 Red. masses --      1.6338                 1.4180                 6.4587
 Frc consts  --      0.6488                 0.6188                 3.0525
 IR Inten    --      0.3457                 0.8480                51.3725

                     31                     32                     33
                      A                      A                      A
 Frequencies --    916.6964               954.1605               964.0086
 Red. masses --      1.3522                 1.3422                 7.1400
 Frc consts  --      0.6695                 0.7200                 3.9094
 IR Inten    --      6.1325                 1.7977                 5.7119

                     34                     35                     36
                      A                      A                      A
 Frequencies --    964.0118              1000.1618              1038.5170
 Red. masses --      1.3635                 1.2976                 2.1959
 Frc consts  --      0.7466                 0.7648                 1.3954
 IR Inten    --      0.2303                 0.0637                 1.5528

                     37                     38                     39
                      A                      A                      A
 Frequencies --   1043.1633              1051.3350              1075.7628
 Red. masses --      2.1437                 1.0623                 4.5230
 Frc consts  --      1.3744                 0.6918                 3.0839
 IR Inten    --      0.8609                66.2532                52.4554

                     40                     41                     42
                      A                      A                      A
 Frequencies --   1132.9644              1147.7545              1175.2518
 Red. masses --      1.4779                 1.3207                 1.1367
 Frc consts  --      1.1177                 1.0251                 0.9251
 IR Inten    --     65.1002                13.8866                12.2402

                     43                     44                     45
                      A                      A                      A
 Frequencies --   1178.2092              1238.2639              1244.1850
 Red. masses --      1.1863                 5.1893                 1.7326
 Frc consts  --      0.9703                 4.6880                 1.5802
 IR Inten    --     40.7748                49.0634               162.8582

                     46                     47                     48
                      A                      A                      A
 Frequencies --   1282.8448              1306.1796              1366.0222
 Red. masses --      1.6738                 3.6680                 2.7218
 Frc consts  --      1.6229                 3.6871                 2.9924
 IR Inten    --      5.6759               312.4138                11.2933

                     49                     50                     51
                      A                      A                      A
 Frequencies --   1375.8939              1403.2224              1443.1821
 Red. masses --      5.3504                 2.0341                 2.5745
 Frc consts  --      5.9677                 2.3598                 3.1593
 IR Inten    --     72.2363                 0.5794               151.0552

                     52                     53                     54
                      A                      A                      A
 Frequencies --   1476.5736              1503.1686              1528.3727
 Red. masses --      3.5385                 4.1169                 3.8342
 Frc consts  --      4.5454                 5.4807                 5.2769
 IR Inten    --     87.2131                53.8019               178.3526

                     55                     56                     57
                      A                      A                      A
 Frequencies --   1533.3529              1558.5816              1597.5056
 Red. masses --      4.3482                 5.7128                 3.9929
 Frc consts  --      6.0235                 8.1764                 6.0037
 IR Inten    --     99.7859               562.8036               145.9530

                     58                     59                     60
                      A                      A                      A
 Frequencies --   1618.6763              1635.6340              1655.0779
 Red. masses --      4.9999                 2.2554                 3.6459
 Frc consts  --      7.7185                 3.5551                 5.8842
 IR Inten    --    386.1184               571.2045                40.7703

                     61                     62                     63
                      A                      A                      A
 Frequencies --   2467.0438              3205.5432              3207.4610
 Red. masses --      1.0936                 1.0872                 1.0864
 Frc consts  --      3.9216                 6.5821                 6.5848
 IR Inten    --    238.1878                 6.2712                 9.3940

                     64                     65                     66
                      A                      A                      A
 Frequencies --   3218.2345              3218.8740              3226.7342
 Red. masses --      1.0886                 1.0899                 1.0937
 Frc consts  --      6.6429                 6.6532                 6.7095
 IR Inten    --      1.4038                 3.1613                17.1161

                     67                     68                     69
                      A                      A                      A
 Frequencies --   3230.6790              3236.6527              3238.7695
 Red. masses --      1.0953                 1.0991                 1.0988
 Frc consts  --      6.7356                 6.7836                 6.7907
 IR Inten    --     11.1280                41.7134                20.8986

 - Thermochemistry -
 -------------------
 Temperature   298.150 Kelvin.  Pressure   1.00000 Atm.
 Atom     1 has atomic number  6 and mass  12.00000

 Molecular mass:   227.04049 amu.
 Principal axes and moments of inertia in atomic units:
                           1         2         3
     Eigenvalues --  1332.462916333.045947665.50886
           X           -0.70007   0.71408   0.00000
           Y            0.71408   0.70007  -0.00001
           Z            0.00001   0.00000   1.00000
 This molecule is an asymmetric top.
 Rotational symmetry number  1.
 Warning -- assumption of classical behavior for rotation
           may cause significant error
 Rotational temperatures (Kelvin)      0.06500     0.01368     0.01130
 Rotational constants (GHZ):           1.35444     0.28497     0.23544
 Zero-point vibrational energy     487633.5 (Joules/Mol)
                                  116.54720 (Kcal/Mol)
 Warning -- explicit consideration of  19 degrees of freedom as
           vibrations may cause significant error
 Vibrational temperatures:     60.49    78.15   156.62   162.02   257.70
          (Kelvin)            321.06   385.46   388.28   442.00   558.63
                              574.31   630.83   704.42   718.58   721.38
                              736.92   758.18   795.61   833.30   921.48
                              997.99  1023.40  1032.70  1061.07  1084.17
                             1109.19  1168.61  1181.22  1238.24  1288.61
                             1318.92  1372.82  1386.99  1387.00  1439.01
                             1494.19  1500.88  1512.64  1547.78  1630.08
                             1651.36  1690.93  1695.18  1781.59  1790.10
                             1845.73  1879.30  1965.40  1979.60  2018.92
                             2076.42  2124.46  2162.72  2198.99  2206.15
                             2242.45  2298.45  2328.91  2353.31  2381.29
                             3549.53  4612.06  4614.82  4630.32  4631.24
                             4642.55  4648.23  4656.82  4659.87

 Zero-point correction=                           0.185730 (Hartree/Particle)
 Thermal correction to Energy=                    0.198028
 Thermal correction to Enthalpy=                  0.198972
 Thermal correction to Gibbs Free Energy=         0.146241
 Sum of electronic and zero-point Energies=          -1028.506483
 Sum of electronic and thermal Energies=             -1028.494185
 Sum of electronic and thermal Enthalpies=           -1028.493241
 Sum of electronic and thermal Free Energies=        -1028.545972

                     E (Thermal)             CV                S
                      KCal/Mol        Cal/Mol-Kelvin    Cal/Mol-Kelvin
 Total                  124.265             49.219            110.982
 Electronic               0.000              0.000              0.000
 Translational            0.889              2.981             42.162
 Rotational               0.889              2.981             32.536
 Vibrational            122.487             43.258             36.283
 Vibration     1          0.595              1.980              5.160
 Vibration     2          0.596              1.976              4.654
 Vibration     3          0.606              1.942              3.289
 Vibration     4          0.607              1.939              3.223
 Vibration     5          0.629              1.868              2.338
 Vibration     6          0.649              1.806              1.933
 Vibration     7          0.673              1.732              1.610
 Vibration     8          0.674              1.729              1.597
 Vibration     9          0.697              1.660              1.377
 Vibration    10          0.756              1.495              1.007
 Vibration    11          0.765              1.472              0.966
 Vibration    12          0.799              1.386              0.831
 Vibration    13          0.845              1.273              0.685
 Vibration    14          0.855              1.251              0.660
 Vibration    15          0.857              1.247              0.655
 Vibration    16          0.867              1.223              0.628
 Vibration    17          0.882              1.190              0.594
 Vibration    18          0.908              1.133              0.538
 Vibration    19          0.936              1.076              0.487

 Optimization completed.
    -- Stationary point found.
 Normal termination of Gaussian 16 at Mon Jul 13 15:02:06 2020.
