 Gaussian 16, Revision C.01,
 Gaussian 16:  ES64L-G16RevC.01  3-Jul-2019

 ----------------------------------------------------------------------
 #p opt=addgic freq td wb97xd/cc-pvdz nosymm int=ultrafine scrf=(solven
 t=CarbonTetraChloride)
 ----------------------------------------------------------------------

 ------------------------------------------------
 NM 2D-scan of HBT TD-WB97XD pVDZ in CTC Relaxed.
 ------------------------------------------------
 Symbolic Z-matrix:
 Charge =  0 Multiplicity = 1

 SCF Done:  E(RwB97XD) =  -1028.81155434     A.U. after   15 cycles
 Total Energy, E(TD-HF/TD-DFT) =  -1028.68148057
 SCF Done:  E(RwB97XD) =  -1028.81861906     A.U. after   13 cycles
 Total Energy, E(TD-HF/TD-DFT) =  -1028.68965230
 SCF Done:  E(RwB97XD) =  -1028.81868416     A.U. after   12 cycles
 Total Energy, E(TD-HF/TD-DFT) =  -1028.69028499
 SCF Done:  E(RwB97XD) =  -1028.81829851     A.U. after   11 cycles
 Total Energy, E(TD-HF/TD-DFT) =  -1028.69042043
 SCF Done:  E(RwB97XD) =  -1028.81857835     A.U. after   10 cycles
 Total Energy, E(TD-HF/TD-DFT) =  -1028.69045815
 Optimization completed.
    -- Stationary point found.
 Normal termination of Gaussian 16 at Tue Jul 14 13:27:25 2020.

 ----------------------------------------------------------------------
 #P Geom=AllCheck Guess=TCheck SCRF=Check GenChk RwB97XD TD(FC,Read)/CC
 -pVDZ Freq
 ----------------------------------------------------------------------

 Structure from the checkpoint file:  "config_3_17.chk"
 ------------------------------------------------
 NM 2D-scan of HBT TD-WB97XD pVDZ in CTC Relaxed.
 ------------------------------------------------
 Charge =  0 Multiplicity = 1

                          Input orientation:
 ---------------------------------------------------------------------
 Center     Atomic      Atomic             Coordinates (Angstroms)
 Number     Number       Type             X           Y           Z
 ---------------------------------------------------------------------
      1          6           0        1.535968   -3.266191   -0.000052
      2          6           0        0.986842   -1.988643   -0.000048
      3          6           0        1.779933   -0.792563   -0.000005
      4          6           0        3.192486   -0.953433    0.000030
      5          6           0        3.729042   -2.231256    0.000025
      6          6           0        2.919865   -3.387227   -0.000015
      7          1           0        0.890649   -4.145498   -0.000083
      8          1           0        3.835454   -0.072499    0.000062
      9          1           0        4.814509   -2.348192    0.000054
     10          1           0        3.381461   -4.375478   -0.000016
     11          7           0        1.066438    0.356986   -0.000006
     12         16           0       -0.704124   -1.601936   -0.000084
     13          6           0       -1.293520    1.077499   -0.000011
     14          6           0       -2.670817    0.735553    0.000029
     15          6           0       -0.931152    2.495068    0.000003
     16          6           0       -3.641487    1.723913    0.000069
     17          1           0       -2.965642   -0.314354    0.000036
     18          6           0       -1.941360    3.471653    0.000049
     19          6           0       -3.284367    3.091026    0.000079
     20          1           0       -4.695518    1.441795    0.000099
     21          1           0       -1.645628    4.521230    0.000055
     22          1           0       -4.063699    3.853947    0.000110
     23          6           0       -0.276452    0.109165   -0.000042
     24          8           0        0.340842    2.813609   -0.000051
     25          1           0        0.897588    1.939720   -0.000169
 ---------------------------------------------------------------------

 SCF Done:  E(RwB97XD) =  -1028.81857835     A.U. after    1 cycles

 Excitation energies and oscillator strengths:

 Excited state symmetry could not be determined.
 Excited State   1:      Singlet-?Sym    3.4863 eV  355.63 nm  f=0.6714  <S**2>=0.000
      59 -> 60         0.68890
 This state for optimization and/or second-order correction.
 Total Energy, E(TD-HF/TD-DFT) =  -1028.69045817
 Copying the excited state density for this state as the 1-particle RhoCI density.

 Excited state symmetry could not be determined.
 Excited State   2:      Singlet-?Sym    4.3809 eV  283.01 nm  f=0.1587  <S**2>=0.000
      57 -> 60         0.30277
      58 -> 60         0.58988
      59 -> 62         0.11827

 Excited state symmetry could not be determined.
 Excited State   3:      Singlet-?Sym    4.6067 eV  269.14 nm  f=0.1023  <S**2>=0.000
      57 -> 60         0.55204
      57 -> 62        -0.13325
      58 -> 60        -0.29829
      58 -> 61        -0.11450
      59 -> 61         0.20319

 Alpha  occ. eigenvalues --  -89.08725 -19.28270 -14.47499 -10.39649 -10.38099
 Alpha  occ. eigenvalues --  -10.35342 -10.34557 -10.32320 -10.32230 -10.32112
 Alpha  occ. eigenvalues --  -10.32031 -10.31621 -10.31384 -10.31333 -10.30574
 Alpha  occ. eigenvalues --  -10.30541  -8.10796  -6.05629  -6.05290  -6.04861
 Alpha  occ. eigenvalues --   -1.16907  -1.08239  -0.96836  -0.95861  -0.92171
 Alpha  occ. eigenvalues --   -0.88809  -0.85089  -0.84560  -0.82303  -0.75955
 Alpha  occ. eigenvalues --   -0.71326  -0.70311  -0.69171  -0.68065  -0.63669
 Alpha  occ. eigenvalues --   -0.60489  -0.58975  -0.58741  -0.56011  -0.54479
 Alpha  occ. eigenvalues --   -0.53912  -0.53435  -0.52981  -0.50605  -0.50441
 Alpha  occ. eigenvalues --   -0.49338  -0.47390  -0.45978  -0.45680  -0.44821
 Alpha  occ. eigenvalues --   -0.44123  -0.42962  -0.42209  -0.40078  -0.37366
 Alpha  occ. eigenvalues --   -0.36462  -0.31999  -0.31568  -0.28154
 Alpha virt. eigenvalues --   -0.01810   0.05122   0.06844   0.07161   0.07855
 Alpha virt. eigenvalues --    0.11070   0.14437   0.15222   0.16980   0.18036
 Alpha virt. eigenvalues --    0.18610   0.21195   0.21517   0.22367   0.22658

 Mulliken charges:
               1
     1  C    0.021270
     2  C   -0.218713
     3  C    0.218640
     4  C   -0.021195
     5  C    0.004461
     6  C   -0.004000
     7  H    0.016898
     8  H    0.018222
     9  H    0.019066
    10  H    0.020210
    11  N   -0.369223
    12  S    0.159108
    13  C   -0.075580
    14  C   -0.027836
    15  C    0.092089
    16  C   -0.010439
    17  H    0.023190
    18  C    0.001327
    19  C    0.023081
    20  H    0.011203
    21  H    0.019544
    22  H    0.023454
    23  C    0.086350
    24  O   -0.218322
    25  H    0.187198
 Sum of Mulliken charges =   0.00000

 Dipole moment (field-independent basis, Debye):
    X=             -0.6697    Y=             -2.2521    Z=             -0.0001  Tot=              2.3496
 Quadrupole moment (field-independent basis, Debye-Ang):
   XX=            -83.1603   YY=            -89.6836   ZZ=           -104.2901
   XY=             -7.1308   XZ=             -0.0003   YZ=              0.0001

  Exact polarizability:     394.009    -186.552     377.444      -0.002       0.004      63.302
 Approx polarizability:     276.895     -35.913     259.334       0.000       0.002      82.347

                      1                      2                      3
                      A                      A                      A
 Frequencies --     48.1231                55.2585               109.5487
 Red. masses --      5.8513                 5.6541                 5.2200
 Frc consts  --      0.0080                 0.0102                 0.0369
 IR Inten    --      1.4645                 0.0308                 0.1219

                      4                      5                      6
                      A                      A                      A
 Frequencies --    123.4791               177.8110               224.1526
 Red. masses --      5.6857                 6.4362                 5.3007
 Frc consts  --      0.0511                 0.1199                 0.1569
 IR Inten    --      1.2853                 1.4386                 0.0001

                      7                      8                      9
                      A                      A                      A
 Frequencies --    273.7594               280.0452               304.0648
 Red. masses --      4.8327                 7.8637                 6.5117
 Frc consts  --      0.2134                 0.3634                 0.3547
 IR Inten    --      0.0175                28.9709                 8.3717

                     10                     11                     12
                      A                      A                      A
 Frequencies --    386.5823               413.7299               441.4385
 Red. masses --      4.5694                 9.6221                 3.2336
 Frc consts  --      0.4023                 0.9704                 0.3713
 IR Inten    --      0.0550                11.9661                 3.9202

                     13                     14                     15
                      A                      A                      A
 Frequencies --    486.5472               503.0811               506.5780
 Red. masses --      4.5684                 8.2458                 3.1615
 Frc consts  --      0.6372                 1.2296                 0.4780
 IR Inten    --      0.1156                 1.7721                 0.0007

                     16                     17                     18
                      A                      A                      A
 Frequencies --    518.8743               529.8046               555.5363
 Red. masses --      5.1032                 7.5475                 3.9398
 Frc consts  --      0.8095                 1.2482                 0.7164
 IR Inten    --     11.6717                55.6274                 0.1381

                     19                     20                     21
                      A                      A                      A
 Frequencies --    576.6911               643.9494               715.0553
 Red. masses --      7.6974                 6.6298                 8.7025
 Frc consts  --      1.5083                 1.6198                 2.6216
 IR Inten    --     25.7678                24.8246                27.9687

                     22                     23                     24
                      A                      A                      A
 Frequencies --    717.9108               724.0262               738.5361
 Red. masses --      1.5804                 7.5659                 1.7752
 Frc consts  --      0.4799                 2.3368                 0.5705
 IR Inten    --     58.6485                28.2082                48.2548

                     25                     26                     27
                      A                      A                      A
 Frequencies --    742.9473               769.7785               809.9909
 Red. masses --      1.9400                 2.2809                 1.7684
 Frc consts  --      0.6309                 0.7963                 0.6836
 IR Inten    --      3.0128                46.6975                 3.1837

                     28                     29                     30
                      A                      A                      A
 Frequencies --    827.0444               860.7189               887.9637
 Red. masses --      6.5064                 1.4263                 6.4763
 Frc consts  --      2.6221                 0.6226                 3.0086
 IR Inten    --     14.8412                 1.0149                66.6975

                     31                     32                     33
                      A                      A                      A
 Frequencies --    915.0097               953.0436               964.9614
 Red. masses --      1.3497                 1.3455                 1.3594
 Frc consts  --      0.6658                 0.7200                 0.7458
 IR Inten    --      5.5798                 2.0957                 0.0083

                     34                     35                     36
                      A                      A                      A
 Frequencies --    973.0850               998.4192              1041.4455
 Red. masses --      7.4463                 1.3044                 1.0591
 Frc consts  --      4.1542                 0.7661                 0.6768
 IR Inten    --     11.5094                 0.0143                67.0195

                     37                     38                     39
                      A                      A                      A
 Frequencies --   1043.1404              1049.2554              1089.7288
 Red. masses --      2.1134                 2.1091                 4.0647
 Frc consts  --      1.3549                 1.3681                 2.8439
 IR Inten    --      0.3668                 6.6116                58.6804

                     40                     41                     42
                      A                      A                      A
 Frequencies --   1140.1546              1151.9731              1176.9069
 Red. masses --      1.4765                 1.3743                 1.2166
 Frc consts  --      1.1309                 1.0745                 0.9929
 IR Inten    --     57.2511                14.9948                30.1362

                     43                     44                     45
                      A                      A                      A
 Frequencies --   1184.1040              1235.2300              1270.7749
 Red. masses --      1.3680                 4.2805                 1.9215
 Frc consts  --      1.1301                 3.8480                 1.8283
 IR Inten    --      9.6275                47.5330               178.9331

                     46                     47                     48
                      A                      A                      A
 Frequencies --   1283.9877              1313.5602              1365.9210
 Red. masses --      1.6592                 3.7641                 2.4982
 Frc consts  --      1.6116                 3.8266                 2.7462
 IR Inten    --     47.8303               164.2965                33.9657

                     49                     50                     51
                      A                      A                      A
 Frequencies --   1370.7843              1408.7569              1463.8105
 Red. masses --      5.6307                 2.6359                 2.0272
 Frc consts  --      6.2338                 3.0821                 2.5593
 IR Inten    --    187.0558               147.0821                22.2941

                     52                     53                     54
                      A                      A                      A
 Frequencies --   1468.8715              1494.1882              1541.6940
 Red. masses --      3.7021                 3.3431                 3.7155
 Frc consts  --      4.7061                 4.3976                 5.2032
 IR Inten    --     53.1935                38.9116               154.4902

                     55                     56                     57
                      A                      A                      A
 Frequencies --   1548.7815              1583.1505              1599.8156
 Red. masses --      3.8032                 6.8067                 5.6353
 Frc consts  --      5.3750                10.0515                 8.4978
 IR Inten    --     33.0769                60.0601               147.8140

                     58                     59                     60
                      A                      A                      A
 Frequencies --   1618.2271              1641.8048              1663.4393
 Red. masses --      4.7591                 4.5039                 1.4663
 Frc consts  --      7.3427                 7.1528                 2.3905
 IR Inten    --    935.5292               411.1648                60.8352

                     61                     62                     63
                      A                      A                      A
 Frequencies --   2462.5498              3204.3058              3213.1597
 Red. masses --      1.0998                 1.0863                 1.0861
 Frc consts  --      3.9295                 6.5713                 6.6069
 IR Inten    --    149.6709                 9.2598                 5.7515

                     64                     65                     66
                      A                      A                      A
 Frequencies --   3215.1155              3223.9663              3226.1946
 Red. masses --      1.0897                 1.0885                 1.0952
 Frc consts  --      6.6369                 6.6660                 6.7162
 IR Inten    --      2.0150                16.5415                10.3386

                     67                     68                     69
                      A                      A                      A
 Frequencies --   3233.0874              3233.3729              3240.4968
 Red. masses --      1.0992                 1.0943                 1.0984
 Frc consts  --      6.7697                 6.7409                 6.7955
 IR Inten    --     39.4806                 6.9104                23.5911

 - Thermochemistry -
 -------------------
 Temperature   298.150 Kelvin.  Pressure   1.00000 Atm.
 Atom     1 has atomic number  6 and mass  12.00000

 Molecular mass:   227.04049 amu.
 Principal axes and moments of inertia in atomic units:
                           1         2         3
     Eigenvalues --  1294.013916317.518877611.53278
           X           -0.70205   0.71213  -0.00000
           Y            0.71213   0.70205  -0.00001
           Z            0.00001   0.00001   1.00000
 This molecule is an asymmetric top.
 Rotational symmetry number  1.
 Warning -- assumption of classical behavior for rotation
           may cause significant error
 Rotational temperatures (Kelvin)      0.06693     0.01371     0.01138
 Rotational constants (GHZ):           1.39468     0.28567     0.23711
 Zero-point vibrational energy     489029.2 (Joules/Mol)
                                  116.88079 (Kcal/Mol)
 Warning -- explicit consideration of  19 degrees of freedom as
           vibrations may cause significant error
 Vibrational temperatures:     69.24    79.50   157.62   177.66   255.83
          (Kelvin)            322.51   393.88   402.92   437.48   556.21
                              595.27   635.13   700.03   723.82   728.85
                              746.54   762.27   799.29   829.73   926.50
                             1028.81  1032.91  1041.71  1062.59  1068.94
                             1107.54  1165.40  1189.93  1238.38  1277.58
                             1316.49  1371.22  1388.36  1400.05  1436.50
                             1498.41  1500.85  1509.64  1567.88  1640.43
                             1657.43  1693.31  1703.66  1777.22  1828.36
                             1847.37  1889.92  1965.26  1972.25  2026.89
                             2106.10  2113.38  2149.80  2218.15  2228.35
                             2277.80  2301.78  2328.27  2362.19  2393.32
                             3543.06  4610.28  4623.02  4625.83  4638.57
                             4641.77  4651.69  4652.10  4662.35

 Zero-point correction=                           0.186261 (Hartree/Particle)
 Thermal correction to Energy=                    0.198463
 Thermal correction to Enthalpy=                  0.199407
 Thermal correction to Gibbs Free Energy=         0.147033
 Sum of electronic and zero-point Energies=          -1028.504197
 Sum of electronic and thermal Energies=             -1028.491995
 Sum of electronic and thermal Enthalpies=           -1028.491051
 Sum of electronic and thermal Free Energies=        -1028.543425

                     E (Thermal)             CV                S
                      KCal/Mol        Cal/Mol-Kelvin    Cal/Mol-Kelvin
 Total                  124.538             49.001            110.232
 Electronic               0.000              0.000              0.000
 Translational            0.889              2.981             42.162
 Rotational               0.889              2.981             32.498
 Vibrational            122.760             43.039             35.572
 Vibration     1          0.595              1.978              4.893
 Vibration     2          0.596              1.975              4.620
 Vibration     3          0.606              1.942              3.277
 Vibration     4          0.610              1.929              3.045
 Vibration     5          0.628              1.870              2.351
 Vibration     6          0.649              1.804              1.925
 Vibration     7          0.676              1.722              1.572
 Vibration     8          0.680              1.711              1.533
 Vibration     9          0.695              1.666              1.394
 Vibration    10          0.755              1.499              1.013
 Vibration    11          0.777              1.440              0.914
 Vibration    12          0.801              1.380              0.822
 Vibration    13          0.843              1.280              0.693
 Vibration    14          0.858              1.243              0.650
 Vibration    15          0.862              1.235              0.642
 Vibration    16          0.874              1.208              0.613
 Vibration    17          0.885              1.184              0.588
 Vibration    18          0.911              1.128              0.533
 Vibration    19          0.933              1.082              0.492

                           ! Non-Optimized Parameters !
 Normal termination of Gaussian 16 at Tue Jul 14 13:45:24 2020.
