 Gaussian 16, Revision C.01,
 Gaussian 16:  ES64L-G16RevC.01  3-Jul-2019

 ----------------------------------------------------------------------
 #p opt=addgic freq td wb97xd/cc-pvdz nosymm int=ultrafine scrf=(solven
 t=CarbonTetraChloride)
 ----------------------------------------------------------------------

 ------------------------------------------------
 NM 2D-scan of HBT TD-WB97XD pVDZ in CTC Relaxed.
 ------------------------------------------------
 Symbolic Z-matrix:
 Charge =  0 Multiplicity = 1

 SCF Done:  E(RwB97XD) =  -1028.79881641     A.U. after   16 cycles
 Total Energy, E(TD-HF/TD-DFT) =  -1028.68913919
 SCF Done:  E(RwB97XD) =  -1028.79964981     A.U. after   14 cycles
 Total Energy, E(TD-HF/TD-DFT) =  -1028.69718927
 SCF Done:  E(RwB97XD) =  -1028.80650409     A.U. after   13 cycles
 Total Energy, E(TD-HF/TD-DFT) =  -1028.70062986
 SCF Done:  E(RwB97XD) =  -1028.80703113     A.U. after   11 cycles
 Total Energy, E(TD-HF/TD-DFT) =  -1028.70069430
 SCF Done:  E(RwB97XD) =  -1028.80697991     A.U. after    9 cycles
 Total Energy, E(TD-HF/TD-DFT) =  -1028.70069708
 Optimization completed.
    -- Stationary point found.
 Normal termination of Gaussian 16 at Mon Jul 13 16:20:15 2020.

 ----------------------------------------------------------------------
 #P Geom=AllCheck Guess=TCheck SCRF=Check GenChk RwB97XD TD(FC,Read)/CC
 -pVDZ Freq
 ----------------------------------------------------------------------

 Structure from the checkpoint file:  "config_9_10.chk"
 ------------------------------------------------
 NM 2D-scan of HBT TD-WB97XD pVDZ in CTC Relaxed.
 ------------------------------------------------
 Charge =  0 Multiplicity = 1

                          Input orientation:
 ---------------------------------------------------------------------
 Center     Atomic      Atomic             Coordinates (Angstroms)
 Number     Number       Type             X           Y           Z
 ---------------------------------------------------------------------
      1          6           0        1.648483   -3.286899   -0.000034
      2          6           0        1.003162   -2.053086   -0.000022
      3          6           0        1.741562   -0.848029   -0.000013
      4          6           0        3.143944   -0.873251   -0.000011
      5          6           0        3.777344   -2.108223   -0.000023
      6          6           0        3.043747   -3.304095   -0.000035
      7          1           0        1.078502   -4.216614   -0.000040
      8          1           0        3.708225    0.059615   -0.000002
      9          1           0        4.867732   -2.147601   -0.000023
     10          1           0        3.567659   -4.260576   -0.000043
     11          7           0        0.942469    0.253789   -0.000004
     12         16           0       -0.727474   -1.713627   -0.000011
     13          6           0       -1.366788    1.069203    0.000015
     14          6           0       -2.738798    0.831208    0.000013
     15          6           0       -0.889502    2.477152    0.000033
     16          6           0       -3.672560    1.894987    0.000034
     17          1           0       -3.113262   -0.195437   -0.000002
     18          6           0       -1.875441    3.506142    0.000040
     19          6           0       -3.243720    3.222869    0.000047
     20          1           0       -4.738114    1.661039    0.000034
     21          1           0       -1.502367    4.531698    0.000045
     22          1           0       -3.972153    4.034723    0.000057
     23          6           0       -0.396888    0.015724   -0.000003
     24          8           0        0.347886    2.752941   -0.000000
     25          1           0        1.170011    1.279339    0.000037
 ---------------------------------------------------------------------

 SCF Done:  E(RwB97XD) =  -1028.80697991     A.U. after    1 cycles

 Excitation energies and oscillator strengths:

 Excited state symmetry could not be determined.
 Excited State   1:      Singlet-?Sym    2.8921 eV  428.70 nm  f=0.4408  <S**2>=0.000
      59 -> 60         0.69648
 This state for optimization and/or second-order correction.
 Total Energy, E(TD-HF/TD-DFT) =  -1028.70069708
 Copying the excited state density for this state as the 1-particle RhoCI density.

 Excited state symmetry could not be determined.
 Excited State   2:      Singlet-?Sym    3.7067 eV  334.49 nm  f=0.0000  <S**2>=0.000
      57 -> 60         0.68363
      57 -> 62         0.11714
      57 -> 64         0.11580

 Excited state symmetry could not be determined.
 Excited State   3:      Singlet-?Sym    4.3190 eV  287.07 nm  f=0.4141  <S**2>=0.000
      58 -> 60         0.68095

 Alpha  occ. eigenvalues --  -89.10528 -19.21280 -14.52239 -10.42011 -10.37447
 Alpha  occ. eigenvalues --  -10.36284 -10.35954 -10.33416 -10.32930 -10.32558
 Alpha  occ. eigenvalues --  -10.32387 -10.31546 -10.31163 -10.30808 -10.29235
 Alpha  occ. eigenvalues --  -10.28400  -8.12496  -6.07372  -6.07003  -6.06516
 Alpha  occ. eigenvalues --   -1.12865  -1.09315  -0.98320  -0.95277  -0.93223
 Alpha  occ. eigenvalues --   -0.89135  -0.86584  -0.83887  -0.81234  -0.75975
 Alpha  occ. eigenvalues --   -0.72987  -0.72010  -0.68806  -0.67655  -0.64988
 Alpha  occ. eigenvalues --   -0.60986  -0.59693  -0.56702  -0.55866  -0.55537
 Alpha  occ. eigenvalues --   -0.54963  -0.53738  -0.53078  -0.50684  -0.49083
 Alpha  occ. eigenvalues --   -0.48776  -0.48357  -0.46918  -0.45460  -0.44873
 Alpha  occ. eigenvalues --   -0.44276  -0.43003  -0.42124  -0.40214  -0.36823
 Alpha  occ. eigenvalues --   -0.33611  -0.31921  -0.31424  -0.25974
 Alpha virt. eigenvalues --   -0.02062   0.03753   0.05832   0.06390   0.09214
 Alpha virt. eigenvalues --    0.10674   0.13179   0.14653   0.16162   0.17301
 Alpha virt. eigenvalues --    0.18660   0.20121   0.20900   0.21348   0.22929

 Mulliken charges:
               1
     1  C    0.016502
     2  C   -0.240720
     3  C    0.261023
     4  C   -0.010225
     5  C    0.012487
     6  C    0.000656
     7  H    0.025969
     8  H    0.031567
     9  H    0.027401
    10  H    0.026736
    11  N   -0.141197
    12  S    0.200141
    13  C   -0.099056
    14  C   -0.028283
    15  C    0.116754
    16  C   -0.035052
    17  H    0.006347
    18  C   -0.025286
    19  C    0.032824
    20  H    0.002251
    21  H    0.002058
    22  H    0.014760
    23  C    0.059786
    24  O   -0.409506
    25  H    0.152063
 Sum of Mulliken charges =   0.00000

 Dipole moment (field-independent basis, Debye):
    X=              1.7583    Y=             -5.5704    Z=              0.0000  Tot=              5.8413
 Quadrupole moment (field-independent basis, Debye-Ang):
   XX=            -82.2823   YY=            -95.5551   ZZ=           -104.2318
   XY=             -6.6231   XZ=              0.0000   YZ=              0.0003

  Exact polarizability:     348.645    -123.072     299.606      -0.002       0.003      63.267
 Approx polarizability:     273.687     -36.743     265.582      -0.001       0.002      82.066

                      1                      2                      3
                      A                      A                      A
 Frequencies --     18.1133                39.5262               112.4714
 Red. masses --      5.7183                 6.5339                 5.2906
 Frc consts  --      0.0011                 0.0060                 0.0394
 IR Inten    --      1.0637                 1.8702                 0.4042

                      4                      5                      6
                      A                      A                      A
 Frequencies --    117.3393               179.1572               222.4930
 Red. masses --      5.7369                 5.5670                 5.4300
 Frc consts  --      0.0465                 0.1053                 0.1584
 IR Inten    --      9.2333                 0.1034                 0.2128

                      7                      8                      9
                      A                      A                      A
 Frequencies --    267.1712               271.1191               313.1647
 Red. masses --      7.7882                 4.6364                 7.3903
 Frc consts  --      0.3275                 0.2008                 0.4270
 IR Inten    --      1.7051                 0.4583                 6.3131

                     10                     11                     12
                      A                      A                      A
 Frequencies --    354.6464               391.6447               433.3161
 Red. masses --      4.8734                 8.8907                 3.3732
 Frc consts  --      0.3611                 0.8035                 0.3732
 IR Inten    --      0.9510                 5.0148                 3.6828

                     13                     14                     15
                      A                      A                      A
 Frequencies --    456.3560               505.0160               508.5168
 Red. masses --      4.6051                 8.6686                 3.2004
 Frc consts  --      0.5651                 1.3026                 0.4876
 IR Inten    --      2.6046                 8.0986                 0.4903

                     16                     17                     18
                      A                      A                      A
 Frequencies --    541.3657               557.7222               560.7745
 Red. masses --      8.7167                 3.8433                 6.6733
 Frc consts  --      1.5052                 0.7044                 1.2364
 IR Inten    --      6.5023                 0.6576                36.0363

                     19                     20                     21
                      A                      A                      A
 Frequencies --    569.5486               634.7324               692.0669
 Red. masses --      7.3144                 6.0649                 1.5573
 Frc consts  --      1.3979                 1.4397                 0.4394
 IR Inten    --     14.8700                66.1903                38.2203

                     22                     23                     24
                      A                      A                      A
 Frequencies --    711.4998               724.1446               743.0948
 Red. masses --      6.5048                 7.9277                 2.6494
 Frc consts  --      1.9401                 2.4493                 0.8619
 IR Inten    --      2.2262                 3.5349                13.2343

                     25                     26                     27
                      A                      A                      A
 Frequencies --    762.2754               768.1584               818.2707
 Red. masses --      1.7361                 1.6557                 6.3877
 Frc consts  --      0.5944                 0.5756                 2.5200
 IR Inten    --      3.0976                85.5089                17.4148

                     28                     29                     30
                      A                      A                      A
 Frequencies --    836.6493               867.3587               874.6876
 Red. masses --      1.7551                 1.3828                 4.5305
 Frc consts  --      0.7238                 0.6129                 2.0422
 IR Inten    --      0.0156                 0.3260                 8.3378

                     31                     32                     33
                      A                      A                      A
 Frequencies --    904.2691               928.8055               953.8168
 Red. masses --      1.4166                 1.0814                 1.3602
 Frc consts  --      0.6825                 0.5496                 0.7291
 IR Inten    --      4.2743                75.4956                 3.0110

                     34                     35                     36
                      A                      A                      A
 Frequencies --    957.6407               957.8241              1004.4332
 Red. masses --      5.5226                 1.3494                 1.2957
 Frc consts  --      2.9840                 0.7294                 0.7702
 IR Inten    --      1.5306                 1.3317                 0.0569

                     37                     38                     39
                      A                      A                      A
 Frequencies --   1048.8259              1052.9796              1084.4081
 Red. masses --      2.1448                 2.1297                 4.1773
 Frc consts  --      1.3901                 1.3913                 2.8942
 IR Inten    --      1.3211                 8.4958                 1.7165

                     40                     41                     42
                      A                      A                      A
 Frequencies --   1114.6191              1153.2824              1162.2672
 Red. masses --      1.5460                 1.3167                 1.2158
 Frc consts  --      1.1317                 1.0318                 0.9677
 IR Inten    --     34.0191                18.6395                58.7608

                     43                     44                     45
                      A                      A                      A
 Frequencies --   1180.3435              1224.0816              1257.0860
 Red. masses --      1.1453                 1.8488                 2.1639
 Frc consts  --      0.9401                 1.6322                 2.0147
 IR Inten    --     32.5463                80.6449                47.6090

                     46                     47                     48
                      A                      A                      A
 Frequencies --   1280.0305              1307.8078              1342.2218
 Red. masses --      1.7110                 1.9823                 5.8280
 Frc consts  --      1.6517                 1.9976                 6.1862
 IR Inten    --     93.5813                43.8597                11.0065

                     49                     50                     51
                      A                      A                      A
 Frequencies --   1366.4509              1396.5992              1400.4198
 Red. masses --      5.3051                 2.6896                 2.3388
 Frc consts  --      5.8362                 3.0909                 2.7025
 IR Inten    --    152.5305                 6.3086                 2.1300

                     52                     53                     54
                      A                      A                      A
 Frequencies --   1436.4878              1483.1242              1504.4911
 Red. masses --      3.2291                 2.7809                 3.1065
 Frc consts  --      3.9258                 3.6041                 4.1429
 IR Inten    --    360.5518                 1.5124                37.0409

                     55                     56                     57
                      A                      A                      A
 Frequencies --   1531.3183              1560.5234              1580.4008
 Red. masses --      4.0988                 5.0927                 4.1321
 Frc consts  --      5.6629                 7.3071                 6.0808
 IR Inten    --     38.1769               205.6210                77.5229

                     58                     59                     60
                      A                      A                      A
 Frequencies --   1620.8889              1647.5123              1667.6938
 Red. masses --      6.3888                 6.2270                 6.7969
 Frc consts  --      9.8896                 9.9584                11.1377
 IR Inten    --    219.3205                51.8436               161.9851

                     61                     62                     63
                      A                      A                      A
 Frequencies --   3077.2185              3194.2496              3211.7733
 Red. masses --      1.0886                 1.0887                 1.0864
 Frc consts  --      6.0736                 6.5446                 6.6031
 IR Inten    --    991.3812                30.7495                 1.6285

                     64                     65                     66
                      A                      A                      A
 Frequencies --   3213.2866              3222.6621              3223.4888
 Red. masses --      1.0862                 1.0923                 1.0905
 Frc consts  --      6.6080                 6.6836                 6.6761
 IR Inten    --      4.5691                14.0676                 3.9935

                     67                     68                     69
                      A                      A                      A
 Frequencies --   3234.0602              3235.2275              3240.4667
 Red. masses --      1.0956                 1.0989                 1.0995
 Frc consts  --      6.7513                 6.7767                 6.8025
 IR Inten    --      8.9223                25.0162                10.7662

 - Thermochemistry -
 -------------------
 Temperature   298.150 Kelvin.  Pressure   1.00000 Atm.
 Atom     1 has atomic number  6 and mass  12.00000

 Molecular mass:   227.04049 amu.
 Principal axes and moments of inertia in atomic units:
                           1         2         3
     Eigenvalues --  1303.330706420.483787723.81448
           X           -0.70203   0.71215   0.00000
           Y            0.71215   0.70203  -0.00001
           Z            0.00001   0.00000   1.00000
 This molecule is an asymmetric top.
 Rotational symmetry number  1.
 Warning -- assumption of classical behavior for rotation
           may cause significant error
 Rotational temperatures (Kelvin)      0.06646     0.01349     0.01121
 Rotational constants (GHZ):           1.38471     0.28109     0.23366
 Zero-point vibrational energy     489365.3 (Joules/Mol)
                                  116.96111 (Kcal/Mol)
 Warning -- explicit consideration of  19 degrees of freedom as
           vibrations may cause significant error
 Vibrational temperatures:     26.06    56.87   161.82   168.83   257.77
          (Kelvin)            320.12   384.40   390.08   450.57   510.26
                              563.49   623.45   656.59   726.61   731.64
                              778.90   802.44   806.83   819.45   913.24
                              995.73  1023.69  1041.88  1069.15  1096.74
                             1105.21  1177.31  1203.75  1247.94  1258.48
                             1301.04  1336.34  1372.33  1377.83  1378.10
                             1445.16  1509.03  1515.00  1560.22  1603.69
                             1659.32  1672.24  1698.25  1761.18  1808.67
                             1841.68  1881.64  1931.16  1966.02  2009.39
                             2014.89  2066.79  2133.88  2164.63  2203.23
                             2245.25  2273.84  2332.10  2370.40  2399.44
                             4427.43  4595.81  4621.03  4623.20  4636.69
                             4637.88  4653.09  4654.77  4662.31

 Zero-point correction=                           0.186389 (Hartree/Particle)
 Thermal correction to Energy=                    0.198793
 Thermal correction to Enthalpy=                  0.199737
 Thermal correction to Gibbs Free Energy=         0.145918
 Sum of electronic and zero-point Energies=          -1028.514308
 Sum of electronic and thermal Energies=             -1028.501904
 Sum of electronic and thermal Enthalpies=           -1028.500960
 Sum of electronic and thermal Free Energies=        -1028.554780

                     E (Thermal)             CV                S
                      KCal/Mol        Cal/Mol-Kelvin    Cal/Mol-Kelvin
 Total                  124.744             49.403            113.273
 Electronic               0.000              0.000              0.000
 Translational            0.889              2.981             42.162
 Rotational               0.889              2.981             32.536
 Vibrational            122.967             43.441             38.575
 Vibration     1          0.593              1.986              6.831
 Vibration     2          0.594              1.981              5.283
 Vibration     3          0.607              1.939              3.226
 Vibration     4          0.608              1.935              3.144
 Vibration     5          0.629              1.868              2.337
 Vibration     6          0.648              1.807              1.939
 Vibration     7          0.672              1.733              1.614
 Vibration     8          0.675              1.726              1.589
 Vibration     9          0.701              1.649              1.346
 Vibration    10          0.730              1.566              1.145
 Vibration    11          0.759              1.488              0.994
 Vibration    12          0.794              1.398              0.848
 Vibration    13          0.815              1.347              0.777
 Vibration    14          0.860              1.239              0.646
 Vibration    15          0.864              1.231              0.637
 Vibration    16          0.896              1.159              0.562
 Vibration    17          0.913              1.123              0.528
 Vibration    18          0.916              1.116              0.522
 Vibration    19          0.926              1.097              0.505

 Optimization completed.
    -- Stationary point found.
 Normal termination of Gaussian 16 at Mon Jul 13 16:38:09 2020.
