 Gaussian 16, Revision C.01,
 Gaussian 16:  ES64L-G16RevC.01  3-Jul-2019

 ----------------------------------------------------------------------
 #p opt=addgic freq td wb97xd/cc-pvdz nosymm int=ultrafine scrf=(solven
 t=CarbonTetraChloride)
 ----------------------------------------------------------------------

 ------------------------------------------------
 NM 2D-scan of HBT TD-WB97XD pVDZ in CTC Relaxed.
 ------------------------------------------------
 Symbolic Z-matrix:
 Charge =  0 Multiplicity = 1

 SCF Done:  E(RwB97XD) =  -1028.80825908     A.U. after   15 cycles
 Total Energy, E(TD-HF/TD-DFT) =  -1028.69479763
 SCF Done:  E(RwB97XD) =  -1028.79956792     A.U. after   14 cycles
 Total Energy, E(TD-HF/TD-DFT) =  -1028.69308842
 SCF Done:  E(RwB97XD) =  -1028.80685576     A.U. after   11 cycles
 Total Energy, E(TD-HF/TD-DFT) =  -1028.69624048
 SCF Done:  E(RwB97XD) =  -1028.80714635     A.U. after    9 cycles
 Total Energy, E(TD-HF/TD-DFT) =  -1028.69625954
 Optimization completed.
    -- Stationary point found.
 Normal termination of Gaussian 16 at Mon Jul 13 15:45:45 2020.

 ----------------------------------------------------------------------
 #P Geom=AllCheck Guess=TCheck SCRF=Check GenChk RwB97XD TD(FC,Read)/CC
 -pVDZ Freq
 ----------------------------------------------------------------------

 Structure from the checkpoint file:  "config_8_6.chk"
 ------------------------------------------------
 NM 2D-scan of HBT TD-WB97XD pVDZ in CTC Relaxed.
 ------------------------------------------------
 Charge =  0 Multiplicity = 1

                          Input orientation:
 ---------------------------------------------------------------------
 Center     Atomic      Atomic             Coordinates (Angstroms)
 Number     Number       Type             X           Y           Z
 ---------------------------------------------------------------------
      1          6           0        1.697166   -3.280038   -0.000038
      2          6           0        0.999011   -2.072636   -0.000020
      3          6           0        1.698614   -0.836707   -0.000006
      4          6           0        3.102854   -0.811421   -0.000005
      5          6           0        3.784378   -2.016524   -0.000022
      6          6           0        3.093486   -3.239994   -0.000040
      7          1           0        1.169057   -4.234321   -0.000049
      8          1           0        3.625361    0.145547    0.000006
      9          1           0        4.875585   -2.015398   -0.000023
     10          1           0        3.653879   -4.175740   -0.000053
     11          7           0        0.891191    0.251354   -0.000000
     12         16           0       -0.743283   -1.782907   -0.000006
     13          6           0       -1.389158    1.033639    0.000009
     14          6           0       -2.776748    0.858483    0.000009
     15          6           0       -0.870168    2.432277    0.000024
     16          6           0       -3.652217    1.962769    0.000026
     17          1           0       -3.196403   -0.150104   -0.000002
     18          6           0       -1.796961    3.504736    0.000041
     19          6           0       -3.170207    3.278971    0.000046
     20          1           0       -4.727847    1.779602    0.000028
     21          1           0       -1.372873    4.509692    0.000052
     22          1           0       -3.866691    4.117934    0.000061
     23          6           0       -0.437578   -0.031632   -0.000005
     24          8           0        0.383499    2.686262    0.000014
     25          1           0        1.014573    1.365016    0.000037
 ---------------------------------------------------------------------

 SCF Done:  E(RwB97XD) =  -1028.80714635     A.U. after    1 cycles

 Excitation energies and oscillator strengths:

 Excited state symmetry could not be determined.
 Excited State   1:      Singlet-?Sym    3.0174 eV  410.90 nm  f=0.4490  <S**2>=0.000
      59 -> 60         0.69537
 This state for optimization and/or second-order correction.
 Total Energy, E(TD-HF/TD-DFT) =  -1028.69625940
 Copying the excited state density for this state as the 1-particle RhoCI density.

 Excited state symmetry could not be determined.
 Excited State   2:      Singlet-?Sym    4.0495 eV  306.17 nm  f=0.0000  <S**2>=0.000
      57 -> 60         0.68514
      57 -> 62         0.11188
      57 -> 64         0.11697

 Excited state symmetry could not be determined.
 Excited State   3:      Singlet-?Sym    4.3368 eV  285.89 nm  f=0.4086  <S**2>=0.000
      58 -> 60         0.67754

 Alpha  occ. eigenvalues --  -89.10452 -19.22470 -14.51085 -10.41681 -10.36995
 Alpha  occ. eigenvalues --  -10.36480 -10.36155 -10.33256 -10.32533 -10.32289
 Alpha  occ. eigenvalues --  -10.32205 -10.31736 -10.31545 -10.31042 -10.29450
 Alpha  occ. eigenvalues --  -10.28721  -8.12366  -6.07242  -6.06881  -6.06390
 Alpha  occ. eigenvalues --   -1.12653  -1.09845  -0.97902  -0.95117  -0.92963
 Alpha  occ. eigenvalues --   -0.89094  -0.86173  -0.83865  -0.81584  -0.75953
 Alpha  occ. eigenvalues --   -0.72133  -0.71579  -0.68624  -0.67775  -0.64437
 Alpha  occ. eigenvalues --   -0.60904  -0.59527  -0.57017  -0.55398  -0.55251
 Alpha  occ. eigenvalues --   -0.54657  -0.53588  -0.52948  -0.50925  -0.49604
 Alpha  occ. eigenvalues --   -0.48981  -0.48043  -0.46695  -0.45277  -0.45109
 Alpha  occ. eigenvalues --   -0.44199  -0.43113  -0.41925  -0.40572  -0.36729
 Alpha  occ. eigenvalues --   -0.33340  -0.33158  -0.31320  -0.26516
 Alpha virt. eigenvalues --   -0.01992   0.03996   0.06148   0.06326   0.08763
 Alpha virt. eigenvalues --    0.10516   0.12868   0.14738   0.16098   0.17507
 Alpha virt. eigenvalues --    0.18878   0.20416   0.21144   0.21576   0.22940

 Mulliken charges:
               1
     1  C    0.013574
     2  C   -0.238028
     3  C    0.272871
     4  C   -0.012063
     5  C    0.012521
     6  C   -0.001811
     7  H    0.025318
     8  H    0.029897
     9  H    0.025674
    10  H    0.025561
    11  N   -0.200404
    12  S    0.194757
    13  C   -0.117469
    14  C   -0.021832
    15  C    0.124426
    16  C   -0.033275
    17  H    0.005246
    18  C   -0.012182
    19  C    0.031457
    20  H    0.003984
    21  H    0.005336
    22  H    0.016151
    23  C    0.062133
    24  O   -0.405586
    25  H    0.193744
 Sum of Mulliken charges =  -0.00000

 Dipole moment (field-independent basis, Debye):
    X=              1.2070    Y=             -4.8192    Z=              0.0000  Tot=              4.9681
 Quadrupole moment (field-independent basis, Debye-Ang):
   XX=            -82.8398   YY=            -93.7752   ZZ=           -104.3047
   XY=             -6.8697   XZ=             -0.0001   YZ=              0.0003

  Exact polarizability:     351.393    -128.060     306.707      -0.002       0.003      63.323
 Approx polarizability:     274.148     -35.903     266.288      -0.001       0.002      82.212

                      1                      2                      3
                      A                      A                      A
 Frequencies --     35.7888                44.1545               110.6552
 Red. masses --      5.7889                 7.0796                 5.5901
 Frc consts  --      0.0044                 0.0081                 0.0403
 IR Inten    --      0.9401                 1.4803                36.6434

                      4                      5                      6
                      A                      A                      A
 Frequencies --    112.3422               179.1139               219.4485
 Red. masses --      4.9758                 5.6988                 5.3860
 Frc consts  --      0.0370                 0.1077                 0.1528
 IR Inten    --      0.1007                 0.2011                 0.1751

                      7                      8                      9
                      A                      A                      A
 Frequencies --    250.3992               268.8597               299.1056
 Red. masses --      6.8415                 4.6839                 5.6994
 Frc consts  --      0.2527                 0.1995                 0.3004
 IR Inten    --     47.0313                 0.2666                63.8904

                     10                     11                     12
                      A                      A                      A
 Frequencies --    362.8951               398.0481               436.8154
 Red. masses --      5.0803                10.1630                 3.2801
 Frc consts  --      0.3942                 0.9487                 0.3687
 IR Inten    --      0.8884                 2.6284                 4.6909

                     13                     14                     15
                      A                      A                      A
 Frequencies --    465.1057               502.0387               504.4246
 Red. masses --      4.7204                 3.1694                 8.8695
 Frc consts  --      0.6016                 0.4707                 1.3297
 IR Inten    --      1.1327                 0.5276                17.0032

                     16                     17                     18
                      A                      A                      A
 Frequencies --    530.1722               550.7016               556.9936
 Red. masses --      5.2196                 6.1030                 3.8605
 Frc consts  --      0.8644                 1.0905                 0.7057
 IR Inten    --    117.7100                72.5247                 0.4885

                     19                     20                     21
                      A                      A                      A
 Frequencies --    578.7990               606.0221               679.8472
 Red. masses --      7.7322                 5.1545                 6.8632
 Frc consts  --      1.5262                 1.1154                 1.8690
 IR Inten    --     58.7116               147.5522                 5.0996

                     22                     23                     24
                      A                      A                      A
 Frequencies --    693.7649               710.0407               741.7947
 Red. masses --      1.5949                 6.1503                 2.5941
 Frc consts  --      0.4523                 1.8269                 0.8410
 IR Inten    --     37.4557                 6.6452                13.3665

                     25                     26                     27
                      A                      A                      A
 Frequencies --    764.8679               768.7062               810.5625
 Red. masses --      1.7656                 1.7136                 5.6589
 Frc consts  --      0.6086                 0.5966                 2.1906
 IR Inten    --      0.3294                91.4893                 8.1433

                     28                     29                     30
                      A                      A                      A
 Frequencies --    832.4851               834.3587               866.6401
 Red. masses --      3.7271                 1.6672                 1.3885
 Frc consts  --      1.5219                 0.6838                 0.6144
 IR Inten    --    101.4414                 0.0000                 0.8852

                     31                     32                     33
                      A                      A                      A
 Frequencies --    907.6676               941.2647               954.6459
 Red. masses --      1.4030                 5.6836                 1.3717
 Frc consts  --      0.6810                 2.9668                 0.7366
 IR Inten    --      6.2698                21.9131                 0.6716

                     34                     35                     36
                      A                      A                      A
 Frequencies --    957.4337              1003.6434              1043.4372
 Red. masses --      1.3470                 1.2945                 2.1784
 Frc consts  --      0.7275                 0.7683                 1.3974
 IR Inten    --      1.6572                 0.0078                 3.3764

                     37                     38                     39
                      A                      A                      A
 Frequencies --   1050.7446              1069.1973              1118.6206
 Red. masses --      2.1938                 3.9113                 1.5640
 Frc consts  --      1.4270                 2.6344                 1.1530
 IR Inten    --     10.5599                47.9674               136.7456

                     40                     41                     42
                      A                      A                      A
 Frequencies --   1126.4866              1144.9452              1159.1575
 Red. masses --      1.0595                 1.6353                 1.4159
 Frc consts  --      0.7922                 1.2630                 1.1209
 IR Inten    --     67.6558               150.8598                16.4034

                     43                     44                     45
                      A                      A                      A
 Frequencies --   1166.8249              1181.4239              1257.6025
 Red. masses --      1.2377                 1.1970                 1.8089
 Frc consts  --      0.9928                 0.9844                 1.6856
 IR Inten    --    262.9651                 4.8088                87.1587

                     46                     47                     48
                      A                      A                      A
 Frequencies --   1265.6259              1307.9562              1340.2837
 Red. masses --      2.5114                 2.0937                 4.9020
 Frc consts  --      2.3702                 2.1103                 5.1882
 IR Inten    --     43.4466                40.2837                47.7858

                     49                     50                     51
                      A                      A                      A
 Frequencies --   1361.9765              1390.9792              1405.9650
 Red. masses --      6.3644                 2.7624                 2.1380
 Frc consts  --      6.9558                 3.1490                 2.4900
 IR Inten    --    164.6962                 0.6367                 4.5728

                     52                     53                     54
                      A                      A                      A
 Frequencies --   1438.6786              1482.6306              1497.3869
 Red. masses --      3.5065                 3.0377                 3.2271
 Frc consts  --      4.2761                 3.9342                 4.2631
 IR Inten    --    646.0231                 1.2462                41.6758

                     55                     56                     57
                      A                      A                      A
 Frequencies --   1537.8362              1543.2612              1575.5064
 Red. masses --      5.0533                 4.7608                 4.5183
 Frc consts  --      7.0411                 6.6805                 6.6080
 IR Inten    --     73.8130               142.5727                54.6021

                     58                     59                     60
                      A                      A                      A
 Frequencies --   1625.0630              1636.5822              1663.6602
 Red. masses --      5.6819                 5.7435                 6.7341
 Frc consts  --      8.8407                 9.0637                10.9814
 IR Inten    --    215.5196               339.5863               150.0218

                     61                     62                     63
                      A                      A                      A
 Frequencies --   2256.8763              3195.4731              3211.0092
 Red. masses --      1.1195                 1.0888                 1.0864
 Frc consts  --      3.3595                 6.5506                 6.5995
 IR Inten    --   1179.5283                21.0297                 5.6582

                     64                     65                     66
                      A                      A                      A
 Frequencies --   3213.6260              3221.7476              3224.7342
 Red. masses --      1.0868                 1.0903                 1.0925
 Frc consts  --      6.6131                 6.6679                 6.6939
 IR Inten    --      1.5775                 3.3730                17.2717

                     67                     68                     69
                      A                      A                      A
 Frequencies --   3232.7258              3236.1727              3239.0307
 Red. masses --      1.0955                 1.0989                 1.0994
 Frc consts  --      6.7450                 6.7807                 6.7957
 IR Inten    --      9.2768                22.0718                13.1608

 - Thermochemistry -
 -------------------
 Temperature   298.150 Kelvin.  Pressure   1.00000 Atm.
 Atom     1 has atomic number  6 and mass  12.00000

 Molecular mass:   227.04049 amu.
 Principal axes and moments of inertia in atomic units:
                           1         2         3
     Eigenvalues --  1323.913896358.460057682.37394
           X           -0.70118   0.71299   0.00000
           Y            0.71299   0.70118  -0.00001
           Z            0.00001   0.00000   1.00000
 This molecule is an asymmetric top.
 Rotational symmetry number  1.
 Warning -- assumption of classical behavior for rotation
           may cause significant error
 Rotational temperatures (Kelvin)      0.06542     0.01362     0.01127
 Rotational constants (GHZ):           1.36319     0.28383     0.23492
 Zero-point vibrational energy     483906.4 (Joules/Mol)
                                  115.65641 (Kcal/Mol)
 Warning -- explicit consideration of  20 degrees of freedom as
           vibrations may cause significant error
 Vibrational temperatures:     51.49    63.53   159.21   161.64   257.70
          (Kelvin)            315.74   360.27   386.83   430.35   522.13
                              572.70   628.48   669.18   722.32   725.75
                              762.80   792.34   801.39   832.76   871.93
                              978.15   998.17  1021.59  1067.28  1100.47
                             1106.00  1166.22  1197.76  1200.46  1246.90
                             1305.93  1354.27  1373.52  1377.53  1444.02
                             1501.27  1511.79  1538.34  1609.45  1620.76
                             1647.32  1667.77  1678.80  1699.81  1809.41
                             1820.95  1881.86  1928.37  1959.58  2001.31
                             2022.87  2069.94  2133.17  2154.41  2212.60
                             2220.41  2266.80  2338.10  2354.68  2393.64
                             3247.14  4597.57  4619.93  4623.69  4635.38
                             4639.67  4651.17  4656.13  4660.24

 Zero-point correction=                           0.184310 (Hartree/Particle)
 Thermal correction to Energy=                    0.196744
 Thermal correction to Enthalpy=                  0.197688
 Thermal correction to Gibbs Free Energy=         0.144431
 Sum of electronic and zero-point Energies=          -1028.511949
 Sum of electronic and thermal Energies=             -1028.499515
 Sum of electronic and thermal Enthalpies=           -1028.498571
 Sum of electronic and thermal Free Energies=        -1028.551828

                     E (Thermal)             CV                S
                      KCal/Mol        Cal/Mol-Kelvin    Cal/Mol-Kelvin
 Total                  123.459             49.571            112.088
 Electronic               0.000              0.000              0.000
 Translational            0.889              2.981             42.162
 Rotational               0.889              2.981             32.536
 Vibrational            121.681             43.610             37.390
 Vibration     1          0.594              1.982              5.480
 Vibration     2          0.595              1.980              5.063
 Vibration     3          0.606              1.941              3.257
 Vibration     4          0.607              1.939              3.228
 Vibration     5          0.629              1.868              2.338
 Vibration     6          0.647              1.811              1.964
 Vibration     7          0.663              1.762              1.728
 Vibration     8          0.673              1.730              1.604
 Vibration     9          0.692              1.675              1.422
 Vibration    10          0.737              1.549              1.110
 Vibration    11          0.764              1.474              0.970
 Vibration    12          0.797              1.390              0.837
 Vibration    13          0.823              1.327              0.751
 Vibration    14          0.857              1.245              0.653
 Vibration    15          0.860              1.240              0.647
 Vibration    16          0.885              1.183              0.587
 Vibration    17          0.906              1.138              0.543
 Vibration    18          0.913              1.124              0.530
 Vibration    19          0.935              1.077              0.488
 Vibration    20          0.965              1.019              0.439

 Optimization completed.
    -- Stationary point found.
 Normal termination of Gaussian 16 at Mon Jul 13 16:03:23 2020.
