 Gaussian 16, Revision C.01,
 Gaussian 16:  ES64L-G16RevC.01  3-Jul-2019

 ----------------------------------------------------------------------
 #p opt=addgic freq td wb97xd/cc-pvdz nosymm int=ultrafine scrf=(solven
 t=CarbonTetraChloride)
 ----------------------------------------------------------------------

 ------------------------------------------------
 NM 2D-scan of HBT TD-WB97XD pVDZ in CTC Relaxed.
 ------------------------------------------------
 Symbolic Z-matrix:
 Charge =  0 Multiplicity = 1

 SCF Done:  E(RwB97XD) =  -1028.81884496     A.U. after   15 cycles
 Total Energy, E(TD-HF/TD-DFT) =  -1028.69204785
 SCF Done:  E(RwB97XD) =  -1028.81872880     A.U. after   11 cycles
 Total Energy, E(TD-HF/TD-DFT) =  -1028.69232667
 SCF Done:  E(RwB97XD) =  -1028.81782739     A.U. after   12 cycles
 Total Energy, E(TD-HF/TD-DFT) =  -1028.69238048
 SCF Done:  E(RwB97XD) =  -1028.81807130     A.U. after   10 cycles
 Total Energy, E(TD-HF/TD-DFT) =  -1028.69244197
 SCF Done:  E(RwB97XD) =  -1028.81817011     A.U. after   10 cycles
 Total Energy, E(TD-HF/TD-DFT) =  -1028.69244935
 SCF Done:  E(RwB97XD) =  -1028.81818410     A.U. after    7 cycles
 Total Energy, E(TD-HF/TD-DFT) =  -1028.69244946
 SCF Done:  E(RwB97XD) =  -1028.81819140     A.U. after    6 cycles
 Total Energy, E(TD-HF/TD-DFT) =  -1028.69244954
 Optimization completed.
    -- Stationary point found.
 Normal termination of Gaussian 16 at Mon Jul 13 14:09:16 2020.

 ----------------------------------------------------------------------
 #P Geom=AllCheck Guess=TCheck SCRF=Check GenChk RwB97XD TD(FC,Read)/CC
 -pVDZ Freq
 ----------------------------------------------------------------------

 Structure from the checkpoint file:  "config_5_8.chk"
 ------------------------------------------------
 NM 2D-scan of HBT TD-WB97XD pVDZ in CTC Relaxed.
 ------------------------------------------------
 Charge =  0 Multiplicity = 1

                          Input orientation:
 ---------------------------------------------------------------------
 Center     Atomic      Atomic             Coordinates (Angstroms)
 Number     Number       Type             X           Y           Z
 ---------------------------------------------------------------------
      1          6           0        1.662228   -3.269899   -0.000032
      2          6           0        0.995145   -2.048199   -0.000014
      3          6           0        1.707830   -0.811457   -0.000007
      4          6           0        3.122433   -0.831431   -0.000016
      5          6           0        3.772593   -2.052271   -0.000034
      6          6           0        3.056802   -3.265099   -0.000043
      7          1           0        1.108141   -4.209351   -0.000038
      8          1           0        3.671640    0.110652   -0.000011
      9          1           0        4.863825   -2.077585   -0.000043
     10          1           0        3.597382   -4.212552   -0.000057
     11          7           0        0.928974    0.285343    0.000008
     12         16           0       -0.734285   -1.746335    0.000001
     13          6           0       -1.370358    1.027501    0.000024
     14          6           0       -2.767183    0.826520    0.000017
     15          6           0       -0.889098    2.426463    0.000035
     16          6           0       -3.646021    1.909560    0.000020
     17          1           0       -3.161880   -0.190952    0.000006
     18          6           0       -1.810325    3.491983    0.000036
     19          6           0       -3.178678    3.241843    0.000029
     20          1           0       -4.720584    1.719544    0.000014
     21          1           0       -1.406507    4.504919    0.000044
     22          1           0       -3.888574    4.069224    0.000031
     23          6           0       -0.400234   -0.002179    0.000015
     24          8           0        0.388487    2.673703    0.000048
     25          1           0        0.893695    1.717156    0.000063
 ---------------------------------------------------------------------

 SCF Done:  E(RwB97XD) =  -1028.81819140     A.U. after    1 cycles

 Excitation energies and oscillator strengths:

 Excited state symmetry could not be determined.
 Excited State   1:      Singlet-?Sym    3.4216 eV  362.36 nm  f=0.5962  <S**2>=0.000
      59 -> 60         0.69095
 This state for optimization and/or second-order correction.
 Total Energy, E(TD-HF/TD-DFT) =  -1028.69244949
 Copying the excited state density for this state as the 1-particle RhoCI density.

 Excited state symmetry could not be determined.
 Excited State   2:      Singlet-?Sym    4.3919 eV  282.30 nm  f=0.3019  <S**2>=0.000
      57 -> 60         0.17732
      58 -> 60         0.64565
      59 -> 62         0.10827
      59 -> 64         0.11116

 Excited state symmetry could not be determined.
 Excited State   3:      Singlet-?Sym    4.6674 eV  265.64 nm  f=0.0524  <S**2>=0.000
      56 -> 61        -0.10286
      57 -> 60         0.58256
      57 -> 62        -0.14723
      58 -> 60        -0.17470
      58 -> 61        -0.16164
      59 -> 61         0.23133

 Alpha  occ. eigenvalues --  -89.09335 -19.26896 -14.47658 -10.40161 -10.37772
 Alpha  occ. eigenvalues --  -10.35424 -10.35026 -10.32395 -10.32245 -10.32164
 Alpha  occ. eigenvalues --  -10.31791 -10.31714 -10.31589 -10.31527 -10.30222
 Alpha  occ. eigenvalues --  -10.30013  -8.11291  -6.06144  -6.05798  -6.05344
 Alpha  occ. eigenvalues --   -1.15974  -1.08818  -0.96857  -0.95615  -0.92045
 Alpha  occ. eigenvalues --   -0.88858  -0.85139  -0.84168  -0.82421  -0.75926
 Alpha  occ. eigenvalues --   -0.71113  -0.70372  -0.69003  -0.68225  -0.63468
 Alpha  occ. eigenvalues --   -0.60617  -0.58969  -0.58456  -0.55704  -0.54370
 Alpha  occ. eigenvalues --   -0.54131  -0.53147  -0.52906  -0.51015  -0.50108
 Alpha  occ. eigenvalues --   -0.49646  -0.47390  -0.46071  -0.45582  -0.44822
 Alpha  occ. eigenvalues --   -0.43977  -0.42643  -0.42627  -0.40256  -0.36517
 Alpha  occ. eigenvalues --   -0.36504  -0.32378  -0.31267  -0.27896
 Alpha virt. eigenvalues --   -0.01743   0.04883   0.06892   0.07290   0.07488
 Alpha virt. eigenvalues --    0.10910   0.13829   0.15089   0.16224   0.17953
 Alpha virt. eigenvalues --    0.18681   0.20985   0.21689   0.22437   0.22502

 Mulliken charges:
               1
     1  C    0.014853
     2  C   -0.229405
     3  C    0.252242
     4  C   -0.016666
     5  C    0.008548
     6  C   -0.004614
     7  H    0.019298
     8  H    0.020222
     9  H    0.020445
    10  H    0.021548
    11  N   -0.349008
    12  S    0.167113
    13  C   -0.099038
    14  C   -0.020221
    15  C    0.103679
    16  C   -0.019560
    17  H    0.011721
    18  C   -0.000627
    19  C    0.025270
    20  H    0.009506
    21  H    0.015766
    22  H    0.021498
    23  C    0.081649
    24  O   -0.253708
    25  H    0.199490
 Sum of Mulliken charges =  -0.00000

 Dipole moment (field-independent basis, Debye):
    X=             -0.0700    Y=             -2.6619    Z=             -0.0000  Tot=              2.6628
 Quadrupole moment (field-independent basis, Debye-Ang):
   XX=            -83.2727   YY=            -90.0158   ZZ=           -104.3313
   XY=             -6.9910   XZ=             -0.0001   YZ=              0.0001

  Exact polarizability:     385.603    -170.898     355.828      -0.002       0.003      63.362
 Approx polarizability:     276.671     -35.499     260.385      -0.001       0.002      82.372

                      1                      2                      3
                      A                      A                      A
 Frequencies --     39.3349                51.7342                65.7519
 Red. masses --      5.8797                 6.9146                 4.8381
 Frc consts  --      0.0054                 0.0109                 0.0123
 IR Inten    --      0.8722                 0.6999                 2.4517

                      4                      5                      6
                      A                      A                      A
 Frequencies --    109.1658               177.2496               222.6111
 Red. masses --      4.7634                 6.1154                 5.3579
 Frc consts  --      0.0334                 0.1132                 0.1564
 IR Inten    --      0.0871                 0.9011                 0.0233

                      7                      8                      9
                      A                      A                      A
 Frequencies --    260.0533               270.9898               271.2046
 Red. masses --      4.8307                 7.4140                 4.7961
 Frc consts  --      0.1925                 0.3208                 0.2078
 IR Inten    --     27.7243                19.4079                 0.1236

                     10                     11                     12
                      A                      A                      A
 Frequencies --    382.1534               402.2478               438.0741
 Red. masses --      4.7541                 8.6494                 3.2419
 Frc consts  --      0.4091                 0.8246                 0.3666
 IR Inten    --      0.2082                 8.3273                 4.5092

                     13                     14                     15
                      A                      A                      A
 Frequencies --    473.9971               484.6744               498.9218
 Red. masses --      4.1776                 4.7136                 3.1668
 Frc consts  --      0.5530                 0.6524                 0.4645
 IR Inten    --      9.5211                 0.0209                 0.1275

                     16                     17                     18
                      A                      A                      A
 Frequencies --    504.2309               532.3103               555.6746
 Red. masses --      8.7461                 8.1927                 3.9357
 Frc consts  --      1.3102                 1.3677                 0.7160
 IR Inten    --      0.1260                27.7237                 0.1550

                     19                     20                     21
                      A                      A                      A
 Frequencies --    578.7478               636.6148               705.0259
 Red. masses --      7.5686                 6.7697                 1.6714
 Frc consts  --      1.4936                 1.6165                 0.4895
 IR Inten    --      5.3404                41.7959                43.9932

                     22                     23                     24
                      A                      A                      A
 Frequencies --    705.9416               732.6671               739.7293
 Red. masses --      6.8828                 9.7031                 2.0090
 Frc consts  --      2.0209                 3.0689                 0.6477
 IR Inten    --      0.8419                20.9341                24.6855

                     25                     26                     27
                      A                      A                      A
 Frequencies --    757.2733               769.6952               818.2991
 Red. masses --      1.9232                 1.9387                 6.2342
 Frc consts  --      0.6498                 0.6767                 2.4596
 IR Inten    --     27.8697                56.4572                 8.3778

                     28                     29                     30
                      A                      A                      A
 Frequencies --    818.6077               861.9069               899.2528
 Red. masses --      1.6480                 1.4101                 6.3290
 Frc consts  --      0.6507                 0.6172                 3.0154
 IR Inten    --      0.0425                 0.9283                64.6979

                     31                     32                     33
                      A                      A                      A
 Frequencies --    911.7282               954.1672               961.1078
 Red. masses --      1.3596                 1.3435                 1.3742
 Frc consts  --      0.6659                 0.7207                 0.7479
 IR Inten    --      5.2916                 1.8088                 0.3185

                     34                     35                     36
                      A                      A                      A
 Frequencies --    968.8928              1000.2439              1038.4820
 Red. masses --      6.6708                 1.2964                 2.1754
 Frc consts  --      3.6896                 0.7642                 1.3822
 IR Inten    --     11.0816                 0.0061                 0.7804

                     37                     38                     39
                      A                      A                      A
 Frequencies --   1044.7569              1074.8500              1119.5761
 Red. masses --      2.2409                 3.4103                 1.8215
 Frc consts  --      1.4411                 2.3213                 1.3452
 IR Inten    --      0.4528                57.2109                32.5250

                     40                     41                     42
                      A                      A                      A
 Frequencies --   1144.8457              1156.7833              1168.9174
 Red. masses --      1.3469                 1.0558                 1.2291
 Frc consts  --      1.0401                 0.8324                 0.9895
 IR Inten    --     13.3369                65.0827                14.7612

                     43                     44                     45
                      A                      A                      A
 Frequencies --   1177.9047              1209.7955              1248.0486
 Red. masses --      1.1833                 1.8516                 1.9212
 Frc consts  --      0.9673                 1.5967                 1.7631
 IR Inten    --      9.9965                88.1738               100.2582

                     46                     47                     48
                      A                      A                      A
 Frequencies --   1261.0099              1287.9595              1366.9045
 Red. masses --      3.4001                 1.8667                 2.7211
 Frc consts  --      3.1855                 1.8244                 2.9955
 IR Inten    --     76.2062                14.1867                31.4192

                     49                     50                     51
                      A                      A                      A
 Frequencies --   1374.7763              1403.8264              1439.2651
 Red. masses --      4.9173                 2.1885                 2.2476
 Frc consts  --      5.4758                 2.5412                 2.7431
 IR Inten    --    187.7246                 0.7712                53.8757

                     52                     53                     54
                      A                      A                      A
 Frequencies --   1461.7340              1483.4708              1526.3927
 Red. masses --      4.9760                 2.8443                 4.9931
 Frc consts  --      6.2642                 3.6879                 6.8541
 IR Inten    --    141.1638               214.6231               333.4825

                     55                     56                     57
                      A                      A                      A
 Frequencies --   1539.4864              1555.7387              1563.9968
 Red. masses --      4.4940                 3.8073                 5.0078
 Frc consts  --      6.2753                 5.4293                 7.2172
 IR Inten    --     87.4737                56.4192               541.5644

                     58                     59                     60
                      A                      A                      A
 Frequencies --   1615.3003              1648.7689              1664.9089
 Red. masses --      5.9537                 5.6124                 2.8200
 Frc consts  --      9.1526                 8.9892                 4.6055
 IR Inten    --    306.3390               666.7916               403.9385

                     61                     62                     63
                      A                      A                      A
 Frequencies --   1888.2539              3207.3096              3207.8564
 Red. masses --      1.1529                 1.0871                 1.0864
 Frc consts  --      2.4219                 6.5884                 6.5866
 IR Inten    --    319.7556                10.4172                 7.9562

                     64                     65                     66
                      A                      A                      A
 Frequencies --   3218.8535              3219.3690              3227.1772
 Red. masses --      1.0885                 1.0900                 1.0937
 Frc consts  --      6.6446                 6.6560                 6.7111
 IR Inten    --      2.5827                 3.1764                15.8011

                     67                     68                     69
                      A                      A                      A
 Frequencies --   3231.2139              3237.2111              3239.1297
 Red. masses --      1.0952                 1.0990                 1.0986
 Frc consts  --      6.7373                 6.7858                 6.7911
 IR Inten    --     10.8543                37.3366                18.0563

 - Thermochemistry -
 -------------------
 Temperature   298.150 Kelvin.  Pressure   1.00000 Atm.
 Atom     1 has atomic number  6 and mass  12.00000

 Molecular mass:   227.04049 amu.
 Principal axes and moments of inertia in atomic units:
                           1         2         3
     Eigenvalues --  1315.267166316.650707631.91786
           X           -0.70271   0.71148   0.00000
           Y            0.71148   0.70271  -0.00001
           Z            0.00001   0.00000   1.00000
 This molecule is an asymmetric top.
 Rotational symmetry number  1.
 Warning -- assumption of classical behavior for rotation
           may cause significant error
 Rotational temperatures (Kelvin)      0.06585     0.01371     0.01135
 Rotational constants (GHZ):           1.37215     0.28571     0.23647
 Zero-point vibrational energy     483376.0 (Joules/Mol)
                                  115.52963 (Kcal/Mol)
 Warning -- explicit consideration of  19 degrees of freedom as
           vibrations may cause significant error
 Vibrational temperatures:     56.59    74.43    94.60   157.07   255.02
          (Kelvin)            320.29   374.16   389.89   390.20   549.83
                              578.74   630.29   681.98   697.34   717.84
                              725.48   765.88   799.49   832.69   915.95
                             1014.38  1015.69  1054.14  1064.31  1089.55
                             1107.42  1177.35  1177.79  1240.09  1293.82
                             1311.77  1372.83  1382.82  1394.02  1439.13
                             1494.14  1503.17  1546.47  1610.82  1647.18
                             1664.35  1681.81  1694.74  1740.63  1795.66
                             1814.31  1853.09  1966.67  1978.00  2019.79
                             2070.78  2103.11  2134.38  2196.14  2214.98
                             2238.36  2250.24  2324.06  2372.21  2395.43
                             2716.78  4614.60  4615.39  4631.21  4631.95
                             4643.19  4649.00  4657.62  4660.39

 Zero-point correction=                           0.184108 (Hartree/Particle)
 Thermal correction to Energy=                    0.196585
 Thermal correction to Enthalpy=                  0.197529
 Thermal correction to Gibbs Free Energy=         0.144036
 Sum of electronic and zero-point Energies=          -1028.508341
 Sum of electronic and thermal Energies=             -1028.495865
 Sum of electronic and thermal Enthalpies=           -1028.494920
 Sum of electronic and thermal Free Energies=        -1028.548413

                     E (Thermal)             CV                S
                      KCal/Mol        Cal/Mol-Kelvin    Cal/Mol-Kelvin
 Total                  123.359             49.360            112.585
 Electronic               0.000              0.000              0.000
 Translational            0.889              2.981             42.162
 Rotational               0.889              2.981             32.517
 Vibrational            121.581             43.398             37.906
 Vibration     1          0.594              1.981              5.292
 Vibration     2          0.596              1.977              4.750
 Vibration     3          0.597              1.971              4.277
 Vibration     4          0.606              1.942              3.284
 Vibration     5          0.628              1.870              2.357
 Vibration     6          0.648              1.807              1.938
 Vibration     7          0.668              1.746              1.661
 Vibration     8          0.675              1.727              1.590
 Vibration     9          0.675              1.726              1.589
 Vibration    10          0.752              1.508              1.031
 Vibration    11          0.768              1.465              0.954
 Vibration    12          0.798              1.387              0.833
 Vibration    13          0.831              1.308              0.726
 Vibration    14          0.841              1.284              0.698
 Vibration    15          0.854              1.252              0.661
 Vibration    16          0.860              1.241              0.648
 Vibration    17          0.887              1.179              0.582
 Vibration    18          0.911              1.127              0.533
 Vibration    19          0.935              1.077              0.488

 Optimization completed.
    -- Stationary point found.
 Normal termination of Gaussian 16 at Mon Jul 13 14:27:36 2020.
