 Gaussian 16, Revision C.01,
 Gaussian 16:  ES64L-G16RevC.01  3-Jul-2019

 ----------------------------------------------------------------------
 #p opt=addgic freq td wb97xd/cc-pvdz nosymm int=ultrafine scrf=(solven
 t=CarbonTetraChloride)
 ----------------------------------------------------------------------

 ------------------------------------------------
 NM 2D-scan of HBT TD-WB97XD pVDZ in CTC Relaxed.
 ------------------------------------------------
 Symbolic Z-matrix:
 Charge =  0 Multiplicity = 1

 SCF Done:  E(RwB97XD) =  -1028.66443749     A.U. after   15 cycles
 Total Energy, E(TD-HF/TD-DFT) =  -1028.53266242
 SCF Done:  E(RwB97XD) =  -1028.79385975     A.U. after   13 cycles
 Total Energy, E(TD-HF/TD-DFT) =  -1028.66420006
 SCF Done:  E(RwB97XD) =  -1028.79281780     A.U. after   15 cycles
 Total Energy, E(TD-HF/TD-DFT) =  -1028.66822885
 SCF Done:  E(RwB97XD) =  -1028.81351584     A.U. after   13 cycles
 Total Energy, E(TD-HF/TD-DFT) =  -1028.68692721
 SCF Done:  E(RwB97XD) =  -1028.81471591     A.U. after   12 cycles
 Total Energy, E(TD-HF/TD-DFT) =  -1028.68727477
 SCF Done:  E(RwB97XD) =  -1028.81467727     A.U. after   11 cycles
 Total Energy, E(TD-HF/TD-DFT) =  -1028.68736766
 SCF Done:  E(RwB97XD) =  -1028.81477752     A.U. after    9 cycles
 Total Energy, E(TD-HF/TD-DFT) =  -1028.68737758
 Optimization completed.
    -- Stationary point found.
 Normal termination of Gaussian 16 at Mon Jul 13 18:14:12 2020.

 ----------------------------------------------------------------------
 #P Geom=AllCheck Guess=TCheck SCRF=Check GenChk RwB97XD TD(FC,Read)/CC
 -pVDZ Freq
 ----------------------------------------------------------------------

 Structure from the checkpoint file:  "config_2_6.chk"
 ------------------------------------------------
 NM 2D-scan of HBT TD-WB97XD pVDZ in CTC Relaxed.
 ------------------------------------------------
 Charge =  0 Multiplicity = 1

                          Input orientation:
 ---------------------------------------------------------------------
 Center     Atomic      Atomic             Coordinates (Angstroms)
 Number     Number       Type             X           Y           Z
 ---------------------------------------------------------------------
      1          6           0        1.695411   -3.308443   -0.000027
      2          6           0        0.967833   -2.116845   -0.000013
      3          6           0        1.661141   -0.856227   -0.000005
      4          6           0        3.081219   -0.820779   -0.000008
      5          6           0        3.777959   -2.004623   -0.000022
      6          6           0        3.092986   -3.241953   -0.000032
      7          1           0        1.193187   -4.276814   -0.000033
      8          1           0        3.577149    0.150377   -0.000001
      9          1           0        4.869336   -1.995914   -0.000026
     10          1           0        3.666870   -4.170060   -0.000043
     11          7           0        0.916729    0.243324    0.000004
     12         16           0       -0.767742   -1.819756   -0.000004
     13          6           0       -1.358918    1.030235    0.000002
     14          6           0       -2.780281    0.862385   -0.000009
     15          6           0       -0.899540    2.444325    0.000022
     16          6           0       -3.641720    1.945159    0.000021
     17          1           0       -3.187943   -0.150204   -0.000036
     18          6           0       -1.803395    3.509438    0.000059
     19          6           0       -3.166662    3.279837    0.000062
     20          1           0       -4.718023    1.765282    0.000016
     21          1           0       -1.379170    4.513803    0.000080
     22          1           0       -3.867621    4.114836    0.000091
     23          6           0       -0.415938   -0.023095    0.000002
     24          8           0        0.372885    2.814489    0.000007
     25          1           0        0.930242    2.000675   -0.000004
 ---------------------------------------------------------------------

 SCF Done:  E(RwB97XD) =  -1028.81477752     A.U. after    1 cycles

 Excitation energies and oscillator strengths:

 Excited state symmetry could not be determined.
 Excited State   1:      Singlet-?Sym    3.4667 eV  357.64 nm  f=0.7301  <S**2>=0.000
      59 -> 60         0.68987
 This state for optimization and/or second-order correction.
 Total Energy, E(TD-HF/TD-DFT) =  -1028.68737759
 Copying the excited state density for this state as the 1-particle RhoCI density.

 Excited state symmetry could not be determined.
 Excited State   2:      Singlet-?Sym    4.3824 eV  282.91 nm  f=0.1887  <S**2>=0.000
      57 -> 60        -0.29680
      58 -> 60        -0.58841
      59 -> 62         0.16918

 Excited state symmetry could not be determined.
 Excited State   3:      Singlet-?Sym    4.5419 eV  272.98 nm  f=0.0590  <S**2>=0.000
      57 -> 60         0.54780
      57 -> 64        -0.13066
      58 -> 60        -0.28331
      58 -> 61        -0.11238
      59 -> 61         0.24076

 Alpha  occ. eigenvalues --  -89.09100 -19.28959 -14.46805 -10.39898 -10.38373
 Alpha  occ. eigenvalues --  -10.34903 -10.34682 -10.33183 -10.32380 -10.32238
 Alpha  occ. eigenvalues --  -10.31929 -10.31404 -10.31216 -10.31155 -10.30534
 Alpha  occ. eigenvalues --  -10.30281  -8.10927  -6.05790  -6.05455  -6.04978
 Alpha  occ. eigenvalues --   -1.17469  -1.08099  -0.96624  -0.95526  -0.91324
 Alpha  occ. eigenvalues --   -0.88767  -0.85014  -0.84311  -0.82228  -0.76009
 Alpha  occ. eigenvalues --   -0.71074  -0.70124  -0.69105  -0.68224  -0.63314
 Alpha  occ. eigenvalues --   -0.60103  -0.58904  -0.58428  -0.55909  -0.54406
 Alpha  occ. eigenvalues --   -0.53470  -0.53090  -0.52659  -0.50869  -0.50467
 Alpha  occ. eigenvalues --   -0.49107  -0.48045  -0.45806  -0.45483  -0.44696
 Alpha  occ. eigenvalues --   -0.43714  -0.42909  -0.42151  -0.39858  -0.37500
 Alpha  occ. eigenvalues --   -0.36409  -0.32086  -0.31535  -0.27895
 Alpha virt. eigenvalues --   -0.01892   0.05226   0.06931   0.07064   0.07096
 Alpha virt. eigenvalues --    0.11266   0.12934   0.15111   0.15882   0.17826
 Alpha virt. eigenvalues --    0.18551   0.20628   0.21673   0.22281   0.22777

 Mulliken charges:
               1
     1  C    0.006685
     2  C   -0.216738
     3  C    0.224406
     4  C   -0.015270
     5  C    0.009502
     6  C   -0.009884
     7  H    0.018965
     8  H    0.014632
     9  H    0.017777
    10  H    0.020231
    11  N   -0.343197
    12  S    0.145619
    13  C   -0.087906
    14  C   -0.015629
    15  C    0.080452
    16  C   -0.011645
    17  H    0.012815
    18  C    0.018139
    19  C    0.020476
    20  H    0.012241
    21  H    0.019741
    22  H    0.022610
    23  C    0.075692
    24  O   -0.182928
    25  H    0.163217
 Sum of Mulliken charges =  -0.00000

 Dipole moment (field-independent basis, Debye):
    X=             -0.3805    Y=             -1.5912    Z=             -0.0000  Tot=              1.6361
 Quadrupole moment (field-independent basis, Debye-Ang):
   XX=            -83.1435   YY=            -88.9153   ZZ=           -104.5396
   XY=             -6.7670   XZ=             -0.0001   YZ=              0.0003

  Exact polarizability:     408.556    -198.823     397.473      -0.002       0.004      63.568
 Approx polarizability:     281.775     -37.343     264.478      -0.001       0.002      82.502

                      1                      2                      3
                      A                      A                      A
 Frequencies --     31.9504                68.1471               108.0964
 Red. masses --      5.9508                 5.7574                 4.6858
 Frc consts  --      0.0036                 0.0158                 0.0323
 IR Inten    --      1.1923                 0.0237                 0.3958

                      4                      5                      6
                      A                      A                      A
 Frequencies --    108.9168               183.0202               224.3697
 Red. masses --      5.6496                 6.7635                 5.4451
 Frc consts  --      0.0395                 0.1335                 0.1615
 IR Inten    --      2.0305                 0.8929                 0.0010

                      7                      8                      9
                      A                      A                      A
 Frequencies --    259.8089               267.1643               287.2694
 Red. masses --      8.1734                 4.8018                 6.5935
 Frc consts  --      0.3251                 0.2019                 0.3206
 IR Inten    --     18.1890                 0.1803                 9.5199

                     10                     11                     12
                      A                      A                      A
 Frequencies --    390.4641               395.9822               438.3199
 Red. masses --      8.6504                 4.6460                 3.2917
 Frc consts  --      0.7770                 0.4292                 0.3726
 IR Inten    --     13.5581                 0.1509                 4.4305

                     13                     14                     15
                      A                      A                      A
 Frequencies --    489.7181               494.2514               499.9659
 Red. masses --      5.1683                 4.4315                 7.8402
 Frc consts  --      0.7303                 0.6378                 1.1547
 IR Inten    --     25.7577                 0.1476                 2.6141

                     16                     17                     18
                      A                      A                      A
 Frequencies --    506.3516               525.2289               547.2661
 Red. masses --      3.1289                 8.0214                 3.9585
 Frc consts  --      0.4727                 1.3038                 0.6985
 IR Inten    --      0.3069                20.9577                 0.2852

                     19                     20                     21
                      A                      A                      A
 Frequencies --    578.9465               639.1988               658.3144
 Red. masses --      7.7380                 6.9524                 8.5028
 Frc consts  --      1.5281                 1.6736                 2.1711
 IR Inten    --     69.0230                47.2625                19.3740

                     22                     23                     24
                      A                      A                      A
 Frequencies --    703.9704               716.6048               733.1979
 Red. masses --      6.8288                 1.7992                 1.8942
 Frc consts  --      1.9939                 0.5444                 0.6000
 IR Inten    --      9.9143                54.1890                32.3076

                     25                     26                     27
                      A                      A                      A
 Frequencies --    747.2705               772.1070               799.3490
 Red. masses --      1.7970                 2.0361                 6.6476
 Frc consts  --      0.5912                 0.7152                 2.5026
 IR Inten    --     29.6060                50.0950                19.6436

                     28                     29                     30
                      A                      A                      A
 Frequencies --    814.5472               833.5924               859.1222
 Red. masses --      1.3799                 1.2638                 1.4313
 Frc consts  --      0.5394                 0.5174                 0.6224
 IR Inten    --     46.9182                17.5517                 3.0847

                     31                     32                     33
                      A                      A                      A
 Frequencies --    886.3348               926.9329               945.3207
 Red. masses --      6.3511                 1.3431                 7.1464
 Frc consts  --      2.9397                 0.6799                 3.7627
 IR Inten    --     52.1162                 2.2137                 7.2832

                     34                     35                     36
                      A                      A                      A
 Frequencies --    953.6315               969.1977               999.9771
 Red. masses --      1.3428                 1.3443                 1.3004
 Frc consts  --      0.7195                 0.7440                 0.7661
 IR Inten    --      1.9884                 0.0041                 0.0092

                     37                     38                     39
                      A                      A                      A
 Frequencies --   1037.0595              1039.4784              1068.6363
 Red. masses --      2.1490                 2.2397                 5.1017
 Frc consts  --      1.3617                 1.4258                 3.4326
 IR Inten    --      1.8601                 3.4245                29.6828

                     40                     41                     42
                      A                      A                      A
 Frequencies --   1135.3224              1147.3271              1175.4041
 Red. masses --      1.5094                 1.3012                 1.1568
 Frc consts  --      1.1463                 1.0091                 0.9416
 IR Inten    --     41.1464                15.3187                21.4078

                     43                     44                     45
                      A                      A                      A
 Frequencies --   1178.6933              1217.6205              1230.0102
 Red. masses --      1.1648                 6.2707                 1.5655
 Frc consts  --      0.9535                 5.4776                 1.3955
 IR Inten    --     12.2013                98.4418               160.0109

                     46                     47                     48
                      A                      A                      A
 Frequencies --   1275.7981              1283.0455              1359.5501
 Red. masses --      1.6712                 2.4839                 2.8853
 Frc consts  --      1.6026                 2.4092                 3.1421
 IR Inten    --     23.9244               216.0866                92.8663

                     49                     50                     51
                      A                      A                      A
 Frequencies --   1369.3693              1401.6041              1430.1615
 Red. masses --      5.4230                 1.9828                 2.4189
 Frc consts  --      5.9914                 2.2950                 2.9150
 IR Inten    --     19.3054                56.7363               250.2928

                     52                     53                     54
                      A                      A                      A
 Frequencies --   1471.5963              1474.1596              1520.8391
 Red. masses --      2.0438                 2.9401                 6.2253
 Frc consts  --      2.6077                 3.7645                 8.4835
 IR Inten    --    141.3851                51.4906                96.4278

                     55                     56                     57
                      A                      A                      A
 Frequencies --   1537.2171              1548.7843              1574.3185
 Red. masses --      4.9444                 5.8939                 3.2692
 Frc consts  --      6.8838                 8.3298                 4.7739
 IR Inten    --     84.3933               513.5313               126.6950

                     58                     59                     60
                      A                      A                      A
 Frequencies --   1597.4176              1635.6216              1653.0636
 Red. masses --      5.1224                 5.4795                 5.9539
 Frc consts  --      7.7012                 8.6368                 9.5859
 IR Inten    --     90.1519               392.1238               199.7437

                     61                     62                     63
                      A                      A                      A
 Frequencies --   3203.0546              3207.5356              3217.3796
 Red. masses --      1.0872                 1.0861                 1.0897
 Frc consts  --      6.5720                 6.5833                 6.6463
 IR Inten    --      2.5708                 8.5689                 3.1318

                     64                     65                     66
                      A                      A                      A
 Frequencies --   3217.7931              3226.4695              3228.9813
 Red. masses --      1.0889                 1.0936                 1.0953
 Frc consts  --      6.6428                 6.7076                 6.7285
 IR Inten    --      1.6291                18.9978                12.4966

                     67                     68                     69
                      A                      A                      A
 Frequencies --   3235.6013              3238.9265              3338.8888
 Red. masses --      1.0993                 1.0991                 1.0688
 Frc consts  --      6.7810                 6.7934                 7.0200
 IR Inten    --     42.3162                25.0817                15.7656

 - Thermochemistry -
 -------------------
 Temperature   298.150 Kelvin.  Pressure   1.00000 Atm.
 Atom     1 has atomic number  6 and mass  12.00000

 Molecular mass:   227.04049 amu.
 Principal axes and moments of inertia in atomic units:
                           1         2         3
     Eigenvalues --  1366.697886380.337227747.03510
           X           -0.69414   0.71984   0.00000
           Y            0.71984   0.69414  -0.00001
           Z            0.00001   0.00000   1.00000
 This molecule is an asymmetric top.
 Rotational symmetry number  1.
 Warning -- assumption of classical behavior for rotation
           may cause significant error
 Rotational temperatures (Kelvin)      0.06337     0.01358     0.01118
 Rotational constants (GHZ):           1.32051     0.28286     0.23296
 Zero-point vibrational energy     489515.7 (Joules/Mol)
                                  116.99706 (Kcal/Mol)
 Warning -- explicit consideration of  19 degrees of freedom as
           vibrations may cause significant error
 Vibrational temperatures:     45.97    98.05   155.53   156.71   263.33
          (Kelvin)            322.82   373.81   384.39   413.32   561.79
                              569.73   630.64   704.60   711.12   719.34
                              728.53   755.69   787.39   832.97   919.66
                              947.17  1012.86  1031.03  1054.91  1075.16
                             1110.89  1150.08  1171.95  1199.35  1236.09
                             1275.24  1333.65  1360.11  1372.06  1394.46
                             1438.74  1492.10  1495.58  1537.53  1633.48
                             1650.75  1691.14  1695.88  1751.88  1769.71
                             1835.59  1846.02  1956.09  1970.22  2016.60
                             2057.68  2117.30  2120.99  2188.15  2211.71
                             2228.36  2265.09  2298.33  2353.29  2378.39
                             4608.48  4614.93  4629.09  4629.69  4642.17
                             4645.78  4655.31  4660.09  4803.92

 Zero-point correction=                           0.186447 (Hartree/Particle)
 Thermal correction to Energy=                    0.198870
 Thermal correction to Enthalpy=                  0.199814
 Thermal correction to Gibbs Free Energy=         0.146791
 Sum of electronic and zero-point Energies=          -1028.500931
 Sum of electronic and thermal Energies=             -1028.488508
 Sum of electronic and thermal Enthalpies=           -1028.487563
 Sum of electronic and thermal Free Energies=        -1028.540586

                     E (Thermal)             CV                S
                      KCal/Mol        Cal/Mol-Kelvin    Cal/Mol-Kelvin
 Total                  124.793             49.819            111.596
 Electronic               0.000              0.000              0.000
 Translational            0.889              2.981             42.162
 Rotational               0.889              2.981             32.580
 Vibrational            123.015             43.857             36.855
 Vibration     1          0.594              1.983              5.704
 Vibration     2          0.598              1.969              4.206
 Vibration     3          0.606              1.943              3.303
 Vibration     4          0.606              1.942              3.288
 Vibration     5          0.631              1.863              2.297
 Vibration     6          0.649              1.804              1.924
 Vibration     7          0.668              1.746              1.663
 Vibration     8          0.672              1.733              1.614
 Vibration     9          0.684              1.697              1.490
 Vibration    10          0.758              1.491              0.998
 Vibration    11          0.763              1.479              0.978
 Vibration    12          0.798              1.387              0.832
 Vibration    13          0.846              1.273              0.684
 Vibration    14          0.850              1.263              0.673
 Vibration    15          0.855              1.250              0.658
 Vibration    16          0.862              1.236              0.642
 Vibration    17          0.880              1.194              0.598
 Vibration    18          0.902              1.146              0.550
 Vibration    19          0.936              1.077              0.487

 Optimization completed.
    -- Stationary point found.
 Normal termination of Gaussian 16 at Mon Jul 13 18:31:44 2020.
