 Gaussian 16, Revision C.01,
 Gaussian 16:  ES64L-G16RevC.01  3-Jul-2019

 ----------------------------------------------------------------------
 #p opt=addgic freq td wb97xd/cc-pvdz nosymm int=ultrafine scrf=(solven
 t=CarbonTetraChloride)
 ----------------------------------------------------------------------

 ------------------------------------------------
 NM 2D-scan of HBT TD-WB97XD pVDZ in CTC Relaxed.
 ------------------------------------------------
 Symbolic Z-matrix:
 Charge =  0 Multiplicity = 1

 SCF Done:  E(RwB97XD) =  -1028.56962078     A.U. after   16 cycles
 Total Energy, E(TD-HF/TD-DFT) =  -1028.46498249
 SCF Done:  E(RwB97XD) =  -1028.73500984     A.U. after   14 cycles
 Total Energy, E(TD-HF/TD-DFT) =  -1028.63303276
 SCF Done:  E(RwB97XD) =  -1028.76839369     A.U. after   15 cycles
 Total Energy, E(TD-HF/TD-DFT) =  -1028.67146180
 SCF Done:  E(RwB97XD) =  -1028.78420248     A.U. after   14 cycles
 Total Energy, E(TD-HF/TD-DFT) =  -1028.68489133
 SCF Done:  E(RwB97XD) =  -1028.78409736     A.U. after   13 cycles
 Total Energy, E(TD-HF/TD-DFT) =  -1028.68520505
 SCF Done:  E(RwB97XD) =  -1028.78528897     A.U. after   11 cycles
 Total Energy, E(TD-HF/TD-DFT) =  -1028.68553363
 SCF Done:  E(RwB97XD) =  -1028.78538237     A.U. after   11 cycles
 Total Energy, E(TD-HF/TD-DFT) =  -1028.68554617
 Optimization completed.
    -- Stationary point found.
 Normal termination of Gaussian 16 at Tue Jul 14 11:44:07 2020.

 ----------------------------------------------------------------------
 #P Geom=AllCheck Guess=TCheck SCRF=Check GenChk RwB97XD TD(FC,Read)/CC
 -pVDZ Freq
 ----------------------------------------------------------------------

 Structure from the checkpoint file:  "config_12_8_fixed.chk"
 ------------------------------------------------
 NM 2D-scan of HBT TD-WB97XD pVDZ in CTC Relaxed.
 ------------------------------------------------
 Charge =  0 Multiplicity = 1

                          Input orientation:
 ---------------------------------------------------------------------
 Center     Atomic      Atomic             Coordinates (Angstroms)
 Number     Number       Type             X           Y           Z
 ---------------------------------------------------------------------
      1          6           0        1.693933   -3.297811    0.000028
      2          6           0        1.026998   -2.079339   -0.000003
      3          6           0        1.747756   -0.892120   -0.000047
      4          6           0        3.147459   -0.865890   -0.000051
      5          6           0        3.806304   -2.090370   -0.000017
      6          6           0        3.091427   -3.292447    0.000019
      7          1           0        1.142839   -4.238079    0.000055
      8          1           0        3.691887    0.079495   -0.000081
      9          1           0        4.897166   -2.108802   -0.000020
     10          1           0        3.628994   -4.240994    0.000041
     11          7           0        0.909740    0.179133   -0.000092
     12         16           0       -0.716166   -1.719014   -0.000004
     13          6           0       -1.418727    1.085573   -0.000013
     14          6           0       -2.780781    0.878438   -0.000046
     15          6           0       -0.891389    2.472213    0.000043
     16          6           0       -3.717523    1.968931    0.000012
     17          1           0       -3.177586   -0.140438   -0.000122
     18          6           0       -1.880092    3.522524    0.000108
     19          6           0       -3.266309    3.276174    0.000096
     20          1           0       -4.784461    1.741011   -0.000009
     21          1           0       -1.495883    4.544686    0.000184
     22          1           0       -3.974952    4.106062    0.000148
     23          6           0       -0.444637    0.005180   -0.000073
     24          8           0        0.339322    2.657705    0.000067
     25          1           0        1.421409    1.022927   -0.000146
 ---------------------------------------------------------------------

 SCF Done:  E(RwB97XD) =  -1028.78538237     A.U. after    1 cycles

 Excitation energies and oscillator strengths:

 Excited state symmetry could not be determined.
 Excited State   1:      Singlet-?Sym    2.7167 eV  456.38 nm  f=0.4287  <S**2>=0.000
      59 -> 60         0.69712
 This state for optimization and/or second-order correction.
 Total Energy, E(TD-HF/TD-DFT) =  -1028.68554617
 Copying the excited state density for this state as the 1-particle RhoCI density.

 Excited state symmetry could not be determined.
 Excited State   2:      Singlet-?Sym    3.3327 eV  372.03 nm  f=0.0000  <S**2>=0.000
      58 -> 60         0.68415
      58 -> 62         0.11475
      58 -> 64         0.10389

 Excited state symmetry could not be determined.
 Excited State   3:      Singlet-?Sym    4.3140 eV  287.40 nm  f=0.4843  <S**2>=0.000
      57 -> 60         0.68241

 Alpha  occ. eigenvalues --  -89.10746 -19.20153 -14.52686 -10.42831 -10.37215
 Alpha  occ. eigenvalues --  -10.36286 -10.35384 -10.33681 -10.33390 -10.32935
 Alpha  occ. eigenvalues --  -10.32628 -10.31350 -10.31043 -10.30466 -10.28971
 Alpha  occ. eigenvalues --  -10.28031  -8.12720  -6.07608  -6.07211  -6.06738
 Alpha  occ. eigenvalues --   -1.13540  -1.09343  -0.98694  -0.95474  -0.93246
 Alpha  occ. eigenvalues --   -0.89124  -0.86745  -0.84214  -0.80538  -0.76057
 Alpha  occ. eigenvalues --   -0.74628  -0.71819  -0.69388  -0.67384  -0.64746
 Alpha  occ. eigenvalues --   -0.61043  -0.59851  -0.56505  -0.56300  -0.56023
 Alpha  occ. eigenvalues --   -0.55093  -0.53546  -0.53008  -0.50589  -0.48714
 Alpha  occ. eigenvalues --   -0.48711  -0.48177  -0.47047  -0.45591  -0.44826
 Alpha  occ. eigenvalues --   -0.44104  -0.42762  -0.42141  -0.39916  -0.36968
 Alpha  occ. eigenvalues --   -0.33874  -0.31606  -0.30653  -0.25275
 Alpha virt. eigenvalues --   -0.02280   0.03483   0.05792   0.06466   0.09785
 Alpha virt. eigenvalues --    0.10858   0.12345   0.14417   0.15986   0.16664
 Alpha virt. eigenvalues --    0.18130   0.19821   0.20874   0.21270   0.22800

 Mulliken charges:
               1
     1  C    0.012933
     2  C   -0.249370
     3  C    0.216897
     4  C   -0.012306
     5  C    0.014407
     6  C    0.002849
     7  H    0.026776
     8  H    0.034744
     9  H    0.029695
    10  H    0.028207
    11  N   -0.070789
    12  S    0.199311
    13  C   -0.087914
    14  C   -0.031621
    15  C    0.111716
    16  C   -0.041119
    17  H    0.002215
    18  C   -0.056174
    19  C    0.035300
    20  H    0.001018
    21  H   -0.002221
    22  H    0.013172
    23  C    0.087110
    24  O   -0.381904
    25  H    0.117066
 Sum of Mulliken charges =  -0.00000

 Dipole moment (field-independent basis, Debye):
    X=              2.6616    Y=             -6.1092    Z=             -0.0003  Tot=              6.6638
 Quadrupole moment (field-independent basis, Debye-Ang):
   XX=            -81.5179   YY=            -96.2747   ZZ=           -104.1950
   XY=             -6.1085   XZ=             -0.0004   YZ=             -0.0004

  Exact polarizability:     347.307    -118.233     290.344      -0.002       0.002      63.323
 Approx polarizability:     277.182     -41.036     265.529      -0.001       0.002      82.053

 ******    1 imaginary frequencies (negative Signs) ******

                      1                      2                      3
                      A                      A                      A
 Frequencies --   -113.4243                14.5242                79.8502
 Red. masses --      4.1021                 5.5510                 5.2353
 Frc consts  --      0.0311                 0.0007                 0.0197
 IR Inten    --      8.3679                 0.0010                 1.9995

                      4                      5                      6
                      A                      A                      A
 Frequencies --    112.2310               160.5640               205.0884
 Red. masses --      5.7252                 3.7326                 4.5875
 Frc consts  --      0.0425                 0.0567                 0.1137
 IR Inten    --      5.1612                 4.9471                14.2872

                      7                      8                      9
                      A                      A                      A
 Frequencies --    253.1826               261.2742               305.2865
 Red. masses --      3.5784                 7.4405                 9.0924
 Frc consts  --      0.1351                 0.2993                 0.4993
 IR Inten    --      7.5241                 1.2701                 2.2130

                     10                     11                     12
                      A                      A                      A
 Frequencies --    335.7623               357.9196               372.8889
 Red. masses --      3.6669                 2.1198                 7.1336
 Frc consts  --      0.2436                 0.1600                 0.5844
 IR Inten    --      4.0322                32.6633                 6.5509

                     13                     14                     15
                      A                      A                      A
 Frequencies --    435.0932               448.1572               498.4426
 Red. masses --      4.1180                 2.6026                 8.0443
 Frc consts  --      0.4593                 0.3080                 1.1775
 IR Inten    --      6.8823                 1.6476                 8.8309

                     16                     17                     18
                      A                      A                      A
 Frequencies --    515.6132               539.5597               549.9887
 Red. masses --      3.2380                 8.4468                 7.1237
 Frc consts  --      0.5072                 1.4488                 1.2696
 IR Inten    --      0.7424                12.8543                45.1752

                     19                     20                     21
                      A                      A                      A
 Frequencies --    558.8725               566.1110               646.4540
 Red. masses --      3.7412                 7.3953                 6.5431
 Frc consts  --      0.6885                 1.3964                 1.6111
 IR Inten    --      0.0113                 4.1186                16.3043

                     22                     23                     24
                      A                      A                      A
 Frequencies --    686.5151               699.3877               734.3497
 Red. masses --      1.5314                 6.1026                 7.6185
 Frc consts  --      0.4253                 1.7587                 2.4206
 IR Inten    --     30.4072                 2.4442                 5.5923

                     25                     26                     27
                      A                      A                      A
 Frequencies --    743.5587               758.7341               767.8518
 Red. masses --      2.5641                 1.7014                 1.6468
 Frc consts  --      0.8353                 0.5771                 0.5721
 IR Inten    --     15.0763                12.3619                90.4696

                     28                     29                     30
                      A                      A                      A
 Frequencies --    814.0080               841.2738               863.5546
 Red. masses --      6.3151                 1.9312                 1.3778
 Frc consts  --      2.4654                 0.8053                 0.6054
 IR Inten    --     17.1397                 1.3542                 1.3423

                     31                     32                     33
                      A                      A                      A
 Frequencies --    901.4900               904.4927               953.5709
 Red. masses --      6.1032                 1.4355                 1.3567
 Frc consts  --      2.9223                 0.6919                 0.7268
 IR Inten    --      2.2993                 9.5431                 0.4775

                     34                     35                     36
                      A                      A                      A
 Frequencies --    957.7631               971.9807              1004.4983
 Red. masses --      1.3491                 5.8239                 1.2934
 Frc consts  --      0.7291                 3.2418                 0.7689
 IR Inten    --      1.6454                 5.2792                 0.0003

                     37                     38                     39
                      A                      A                      A
 Frequencies --   1030.9522              1057.6018              1083.0025
 Red. masses --      2.3257                 2.3125                 3.1266
 Frc consts  --      1.4564                 1.5239                 2.1606
 IR Inten    --      1.2525                13.8687                 5.9600

                     40                     41                     42
                      A                      A                      A
 Frequencies --   1096.4253              1153.9849              1158.6432
 Red. masses --      1.7849                 1.3250                 1.1979
 Frc consts  --      1.2642                 1.0396                 0.9475
 IR Inten    --     18.7404                 5.6835                45.0879

                     43                     44                     45
                      A                      A                      A
 Frequencies --   1181.7916              1201.0316              1227.0463
 Red. masses --      1.1343                 1.6355                 2.8024
 Frc consts  --      0.9334                 1.3900                 2.4860
 IR Inten    --     26.9080                47.5590                16.7967

                     46                     47                     48
                      A                      A                      A
 Frequencies --   1246.3667              1305.7379              1337.5824
 Red. masses --      2.2502                 1.6355                 2.6947
 Frc consts  --      2.0595                 1.6429                 2.8405
 IR Inten    --     56.6324                11.1047                40.0371

                     49                     50                     51
                      A                      A                      A
 Frequencies --   1364.3066              1391.7625              1406.0532
 Red. masses --      2.4878                 2.2818                 6.0322
 Frc consts  --      2.7283                 2.6042                 7.0263
 IR Inten    --     18.5492                58.1048                62.2728

                     52                     53                     54
                      A                      A                      A
 Frequencies --   1449.2064              1466.2420              1512.8865
 Red. masses --      2.8666                 2.9268                 3.6639
 Frc consts  --      3.5471                 3.7073                 4.9408
 IR Inten    --     81.9527                 8.2820               104.6024

                     55                     56                     57
                      A                      A                      A
 Frequencies --   1533.1574              1553.9962              1620.1214
 Red. masses --      2.6806                 5.6112                 5.3630
 Frc consts  --      3.7124                 7.9838                 8.2937
 IR Inten    --      0.6784               191.2807                97.8778

                     58                     59                     60
                      A                      A                      A
 Frequencies --   1654.5564              1665.1495              1691.1898
 Red. masses --      9.5366                 6.9112                 7.0726
 Frc consts  --     15.3817                11.2905                11.9182
 IR Inten    --    149.9258               104.7735                37.5335

                     61                     62                     63
                      A                      A                      A
 Frequencies --   3185.8291              3205.6398              3213.6930
 Red. masses --      1.0895                 1.0861                 1.0866
 Frc consts  --      6.5149                 6.5758                 6.6117
 IR Inten    --     24.1427                 2.5093                 6.2899

                     64                     65                     66
                      A                      A                      A
 Frequencies --   3218.2287              3225.9340              3231.9857
 Red. masses --      1.0913                 1.0903                 1.0989
 Frc consts  --      6.6592                 6.6850                 6.7630
 IR Inten    --     12.6262                 1.9361                26.9657

                     67                     68                     69
                      A                      A                      A
 Frequencies --   3232.7799              3242.8308              3953.7264
 Red. masses --      1.0962                 1.0990                 1.0774
 Frc consts  --      6.7499                 6.8090                 9.9230
 IR Inten    --      5.6422                12.7950               245.1934

 - Thermochemistry -
 -------------------
 Temperature   298.150 Kelvin.  Pressure   1.00000 Atm.
 Atom     1 has atomic number  6 and mass  12.00000

 Molecular mass:   227.04049 amu.
 Principal axes and moments of inertia in atomic units:
                           1         2         3
     Eigenvalues --  1277.060316533.002847810.06314
           X           -0.70641   0.70780   0.00000
           Y            0.70780   0.70641  -0.00001
           Z            0.00001   0.00001   1.00000
 This molecule is an asymmetric top.
 Rotational symmetry number  1.
 Warning -- assumption of classical behavior for rotation
           may cause significant error
 Rotational temperatures (Kelvin)      0.06782     0.01326     0.01109
 Rotational constants (GHZ):           1.41320     0.27625     0.23108
    1 imaginary frequencies ignored.
 Zero-point vibrational energy     489986.4 (Joules/Mol)
                                  117.10957 (Kcal/Mol)
 Warning -- explicit consideration of  19 degrees of freedom as
           vibrations may cause significant error
 Vibrational temperatures:     20.90   114.89   161.48   231.02   295.08
          (Kelvin)            364.27   375.92   439.24   483.09   514.97
                              536.50   626.00   644.80   717.15   741.85
                              776.31   791.31   804.09   814.51   930.10
                              987.74  1006.26  1056.57  1069.82  1091.65
                             1104.77  1171.18  1210.41  1242.46  1297.04
                             1301.36  1371.98  1378.01  1398.46  1445.25
                             1483.31  1521.65  1558.20  1577.51  1660.33
                             1667.03  1700.33  1728.02  1765.45  1793.24
                             1878.67  1924.48  1962.93  2002.44  2023.00
                             2085.08  2109.60  2176.71  2205.87  2235.85
                             2330.99  2380.54  2395.78  2433.24  4583.70
                             4612.20  4623.79  4630.31  4641.40  4650.11
                             4651.25  4665.71  5688.53

 Zero-point correction=                           0.186626 (Hartree/Particle)
 Thermal correction to Energy=                    0.198711
 Thermal correction to Enthalpy=                  0.199655
 Thermal correction to Gibbs Free Energy=         0.146935
 Sum of electronic and zero-point Energies=          -1028.498920
 Sum of electronic and thermal Energies=             -1028.486836
 Sum of electronic and thermal Enthalpies=           -1028.485891
 Sum of electronic and thermal Free Energies=        -1028.538611

                     E (Thermal)             CV                S
                      KCal/Mol        Cal/Mol-Kelvin    Cal/Mol-Kelvin
 Total                  124.693             48.789            110.958
 Electronic               0.000              0.000              0.000
 Translational            0.889              2.981             42.162
 Rotational               0.889              2.981             32.544
 Vibrational            122.915             42.827             36.252
 Vibration     1          0.593              1.986              7.270
 Vibration     2          0.600              1.963              3.895
 Vibration     3          0.607              1.939              3.230
 Vibration     4          0.622              1.891              2.543
 Vibration     5          0.640              1.833              2.087
 Vibration     6          0.664              1.757              1.708
 Vibration     7          0.669              1.744              1.653
 Vibration     8          0.696              1.664              1.388
 Vibration     9          0.717              1.604              1.232
 Vibration    10          0.733              1.559              1.131
 Vibration    11          0.744              1.528              1.068
 Vibration    12          0.796              1.394              0.842
 Vibration    13          0.807              1.365              0.801
 Vibration    14          0.854              1.253              0.662
 Vibration    15          0.871              1.215              0.620
 Vibration    16          0.895              1.163              0.566
 Vibration    17          0.905              1.140              0.544
 Vibration    18          0.914              1.120              0.526
 Vibration    19          0.922              1.105              0.512

                           ! Non-Optimized Parameters !
 Normal termination of Gaussian 16 at Tue Jul 14 12:01:49 2020.
