 Gaussian 16, Revision C.01,
 Gaussian 16:  ES64L-G16RevC.01  3-Jul-2019

 ----------------------------------------------------------------------
 #p opt=addgic freq td wb97xd/cc-pvdz nosymm int=ultrafine scrf=(solven
 t=CarbonTetraChloride)
 ----------------------------------------------------------------------

 ------------------------------------------------
 NM 2D-scan of HBT TD-WB97XD pVDZ in CTC Relaxed.
 ------------------------------------------------
 Symbolic Z-matrix:
 Charge =  0 Multiplicity = 1

 SCF Done:  E(RwB97XD) =  -1028.81727809     A.U. after   15 cycles
 Total Energy, E(TD-HF/TD-DFT) =  -1028.69011066
 SCF Done:  E(RwB97XD) =  -1028.81759459     A.U. after   11 cycles
 Total Energy, E(TD-HF/TD-DFT) =  -1028.69082894
 SCF Done:  E(RwB97XD) =  -1028.81666774     A.U. after   12 cycles
 Total Energy, E(TD-HF/TD-DFT) =  -1028.69116479
 SCF Done:  E(RwB97XD) =  -1028.81684815     A.U. after   11 cycles
 Total Energy, E(TD-HF/TD-DFT) =  -1028.69124383
 SCF Done:  E(RwB97XD) =  -1028.81694228     A.U. after   10 cycles
 Total Energy, E(TD-HF/TD-DFT) =  -1028.69125068
 SCF Done:  E(RwB97XD) =  -1028.81695876     A.U. after    8 cycles
 Total Energy, E(TD-HF/TD-DFT) =  -1028.69125063
 SCF Done:  E(RwB97XD) =  -1028.81697643     A.U. after    7 cycles
 Total Energy, E(TD-HF/TD-DFT) =  -1028.69125097
 Optimization completed.
    -- Stationary point found.
 Normal termination of Gaussian 16 at Mon Jul 13 14:08:45 2020.

 ----------------------------------------------------------------------
 #P Geom=AllCheck Guess=TCheck SCRF=Check GenChk RwB97XD TD(FC,Read)/CC
 -pVDZ Freq
 ----------------------------------------------------------------------

 Structure from the checkpoint file:  "config_5_5.chk"
 ------------------------------------------------
 NM 2D-scan of HBT TD-WB97XD pVDZ in CTC Relaxed.
 ------------------------------------------------
 Charge =  0 Multiplicity = 1

                          Input orientation:
 ---------------------------------------------------------------------
 Center     Atomic      Atomic             Coordinates (Angstroms)
 Number     Number       Type             X           Y           Z
 ---------------------------------------------------------------------
      1          6           0        1.705422   -3.275207   -0.000016
      2          6           0        0.994240   -2.076991    0.000038
      3          6           0        1.679083   -0.824789   -0.000006
      4          6           0        3.093296   -0.794220   -0.000102
      5          6           0        3.783556   -1.989879   -0.000154
      6          6           0        3.101216   -3.222696   -0.000113
      7          1           0        1.187981   -4.235374    0.000014
      8          1           0        3.604747    0.168879   -0.000135
      9          1           0        4.874997   -1.982508   -0.000230
     10          1           0        3.670259   -4.153443   -0.000157
     11          7           0        0.887787    0.255570    0.000051
     12         16           0       -0.745979   -1.801310    0.000150
     13          6           0       -1.390815    1.013331    0.000120
     14          6           0       -2.796176    0.861253    0.000042
     15          6           0       -0.880250    2.408255    0.000114
     16          6           0       -3.642775    1.970089   -0.000067
     17          1           0       -3.223860   -0.142827    0.000038
     18          6           0       -1.769734    3.498561   -0.000016
     19          6           0       -3.142349    3.291027   -0.000109
     20          1           0       -4.722107    1.808976   -0.000138
     21          1           0       -1.331250    4.496937   -0.000017
     22          1           0       -3.829054    4.137624   -0.000200
     23          6           0       -0.438520   -0.038009    0.000144
     24          8           0        0.399639    2.653677    0.000283
     25          1           0        0.886302    1.705756    0.000560
 ---------------------------------------------------------------------

 SCF Done:  E(RwB97XD) =  -1028.81697643     A.U. after    1 cycles

 Excitation energies and oscillator strengths:

 Excited state symmetry could not be determined.
 Excited State   1:      Singlet-?Sym    3.4212 eV  362.40 nm  f=0.6042  <S**2>=0.000
      59 -> 60         0.69092
 This state for optimization and/or second-order correction.
 Total Energy, E(TD-HF/TD-DFT) =  -1028.69125095
 Copying the excited state density for this state as the 1-particle RhoCI density.

 Excited state symmetry could not be determined.
 Excited State   2:      Singlet-?Sym    4.3902 eV  282.41 nm  f=0.3128  <S**2>=0.000
      57 -> 60         0.17094
      58 -> 60         0.64668
      59 -> 62         0.11021
      59 -> 64         0.11484

 Excited state symmetry could not be determined.
 Excited State   3:      Singlet-?Sym    4.6522 eV  266.50 nm  f=0.0434  <S**2>=0.000
      56 -> 61        -0.10427
      57 -> 60         0.58255
      57 -> 62        -0.14614
      58 -> 60        -0.16595
      58 -> 61        -0.16177
      59 -> 61         0.23867

 Alpha  occ. eigenvalues --  -89.09427 -19.27059 -14.47435 -10.40246 -10.37839
 Alpha  occ. eigenvalues --  -10.35259 -10.35091 -10.32489 -10.32448 -10.32187
 Alpha  occ. eigenvalues --  -10.31756 -10.31634 -10.31597 -10.31502 -10.30222
 Alpha  occ. eigenvalues --  -10.29965  -8.11329  -6.06189  -6.05842  -6.05378
 Alpha  occ. eigenvalues --   -1.16209  -1.08796  -0.96806  -0.95529  -0.91851
 Alpha  occ. eigenvalues --   -0.88854  -0.85028  -0.84196  -0.82410  -0.75943
 Alpha  occ. eigenvalues --   -0.71053  -0.70279  -0.68987  -0.68327  -0.63390
 Alpha  occ. eigenvalues --   -0.60572  -0.58903  -0.58476  -0.55686  -0.54361
 Alpha  occ. eigenvalues --   -0.54052  -0.53109  -0.52790  -0.51112  -0.50132
 Alpha  occ. eigenvalues --   -0.49620  -0.47556  -0.46028  -0.45551  -0.44791
 Alpha  occ. eigenvalues --   -0.43858  -0.42651  -0.42599  -0.40200  -0.36564
 Alpha  occ. eigenvalues --   -0.36496  -0.32403  -0.31245  -0.27865
 Alpha virt. eigenvalues --   -0.01762   0.04894   0.06952   0.07175   0.07444
 Alpha virt. eigenvalues --    0.10921   0.13325   0.15082   0.16022   0.17929
 Alpha virt. eigenvalues --    0.18692   0.20929   0.21705   0.22414   0.22531

 Mulliken charges:
               1
     1  C    0.011463
     2  C   -0.230434
     3  C    0.255609
     4  C   -0.015815
     5  C    0.009630
     6  C   -0.005862
     7  H    0.019844
     8  H    0.019933
     9  H    0.020250
    10  H    0.021587
    11  N   -0.347584
    12  S    0.164296
    13  C   -0.104560
    14  C   -0.017658
    15  C    0.101446
    16  C   -0.020301
    17  H    0.009581
    18  C    0.002709
    19  C    0.025040
    20  H    0.009837
    21  H    0.015887
    22  H    0.021309
    23  C    0.081740
    24  O   -0.241704
    25  H    0.193756
 Sum of Mulliken charges =  -0.00000

 Dipole moment (field-independent basis, Debye):
    X=             -0.0191    Y=             -2.5108    Z=              0.0001  Tot=              2.5109
 Quadrupole moment (field-independent basis, Debye-Ang):
   XX=            -83.3043   YY=            -89.7691   ZZ=           -104.3864
   XY=             -6.9567   XZ=              0.0003   YZ=             -0.0002

  Exact polarizability:     389.180    -173.997     360.315      -0.003       0.001      63.425
 Approx polarizability:     277.664     -35.719     261.350      -0.002      -0.001      82.422

                      1                      2                      3
                      A                      A                      A
 Frequencies --     30.1921                47.3069                96.3602
 Red. masses --      6.2541                 6.7205                 5.3027
 Frc consts  --      0.0034                 0.0089                 0.0290
 IR Inten    --      0.5799                 1.0012                 0.5921

                      4                      5                      6
                      A                      A                      A
 Frequencies --    106.0858               177.1894               222.9180
 Red. masses --      4.5948                 6.0798                 5.3462
 Frc consts  --      0.0305                 0.1125                 0.1565
 IR Inten    --      0.1354                 0.8186                 0.0237

                      7                      8                      9
                      A                      A                      A
 Frequencies --    267.8451               269.6962               286.1984
 Red. masses --      7.5465                 4.7962                 5.4931
 Frc consts  --      0.3190                 0.2055                 0.2651
 IR Inten    --     22.3774                 0.1640                16.2613

                     10                     11                     12
                      A                      A                      A
 Frequencies --    384.0012               398.2530               438.0073
 Red. masses --      4.7609                 8.9151                 3.2359
 Frc consts  --      0.4136                 0.8331                 0.3658
 IR Inten    --      0.2805                 9.1310                 4.6888

                     13                     14                     15
                      A                      A                      A
 Frequencies --    486.0478               487.4388               497.9391
 Red. masses --      4.6613                 4.2167                 3.1660
 Frc consts  --      0.6488                 0.5903                 0.4625
 IR Inten    --      0.0640                11.4269                 0.0889

                     16                     17                     18
                      A                      A                      A
 Frequencies --    504.1620               529.6041               554.0304
 Red. masses --      8.4254                 8.3344                 3.9469
 Frc consts  --      1.2618                 1.3773                 0.7138
 IR Inten    --      0.5282                27.7126                 0.1436

                     19                     20                     21
                      A                      A                      A
 Frequencies --    579.9124               636.7515               698.6323
 Red. masses --      7.5578                 6.8140                 7.1716
 Frc consts  --      1.4975                 1.6278                 2.0623
 IR Inten    --      8.5285                51.6368                 2.7329

                     22                     23                     24
                      A                      A                      A
 Frequencies --    705.3172               725.7278               738.0941
 Red. masses --      1.7101                 9.1542                 1.9846
 Frc consts  --      0.5012                 2.8406                 0.6370
 IR Inten    --     42.1304                18.4470                24.4734

                     25                     26                     27
                      A                      A                      A
 Frequencies --    756.8791               769.4910               812.0870
 Red. masses --      1.9122                 1.9500                 6.2974
 Frc consts  --      0.6454                 0.6803                 2.4469
 IR Inten    --     29.4980                55.6384                 9.0870

                     28                     29                     30
                      A                      A                      A
 Frequencies --    821.0885               860.4116               900.0927
 Red. masses --      1.6294                 1.4154                 6.4330
 Frc consts  --      0.6472                 0.6174                 3.0707
 IR Inten    --      0.0607                 0.9482                51.5305

                     31                     32                     33
                      A                      A                      A
 Frequencies --    913.7971               953.6505               960.8785
 Red. masses --      1.3584                 1.3432                 1.3727
 Frc consts  --      0.6683                 0.7197                 0.7467
 IR Inten    --      5.4885                 1.7698                 0.3739

                     34                     35                     36
                      A                      A                      A
 Frequencies --    965.8285               999.8592              1037.2355
 Red. masses --      6.8907                 1.2961                 2.1954
 Frc consts  --      3.7872                 0.7634                 1.3916
 IR Inten    --     12.0050                 0.0197                 1.2651

                     37                     38                     39
                      A                      A                      A
 Frequencies --   1044.1899              1074.1344              1125.8097
 Red. masses --      2.2102                 3.9914                 1.5786
 Frc consts  --      1.4198                 2.7132                 1.1788
 IR Inten    --      0.6906                53.7775                55.5221

                     40                     41                     42
                      A                      A                      A
 Frequencies --   1132.6163              1146.0187              1170.5893
 Red. masses --      1.0584                 1.3231                 1.1581
 Frc consts  --      0.8000                 1.0238                 0.9350
 IR Inten    --     64.9997                12.5160                32.5735

                     43                     44                     45
                      A                      A                      A
 Frequencies --   1177.2580              1235.7269              1246.9697
 Red. masses --      1.1738                 2.5580                 2.0450
 Frc consts  --      0.9585                 2.3015                 1.8735
 IR Inten    --     20.0642                95.6044                83.6994

                     46                     47                     48
                      A                      A                      A
 Frequencies --   1270.9603              1286.0304              1364.0371
 Red. masses --      3.5245                 1.7749                 2.5828
 Frc consts  --      3.3544                 1.7296                 2.8314
 IR Inten    --    131.2796                14.9144                 7.7104

                     49                     50                     51
                      A                      A                      A
 Frequencies --   1375.8520              1402.7548              1442.0101
 Red. masses --      5.2599                 2.1120                 2.4113
 Frc consts  --      5.8664                 2.4486                 2.9542
 IR Inten    --    135.5648                 1.2771               120.8264

                     52                     53                     54
                      A                      A                      A
 Frequencies --   1472.9244              1488.5622              1521.8631
 Red. masses --      4.5601                 3.0091                 5.1762
 Frc consts  --      5.8288                 3.9285                 7.0634
 IR Inten    --     27.7813               149.5495               394.8702

                     55                     56                     57
                      A                      A                      A
 Frequencies --   1535.6804              1557.3021              1576.0325
 Red. masses --      4.2354                 4.9161                 3.5331
 Frc consts  --      5.8849                 7.0245                 5.1705
 IR Inten    --    121.0334               568.2298                34.1582

                     58                     59                     60
                      A                      A                      A
 Frequencies --   1615.4888              1648.3607              1665.0626
 Red. masses --      5.9487                 4.7858                 2.5372
 Frc consts  --      9.1470                 7.6614                 4.1445
 IR Inten    --    303.1057               687.0659               213.9640

                     61                     62                     63
                      A                      A                      A
 Frequencies --   2027.7676              3205.1458              3207.6403
 Red. masses --      1.1327                 1.0873                 1.0863
 Frc consts  --      2.7440                 6.5807                 6.5851
 IR Inten    --    417.7692                 8.4201                 8.9502

                     64                     65                     66
                      A                      A                      A
 Frequencies --   3217.8399              3218.8190              3226.2993
 Red. masses --      1.0889                 1.0899                 1.0933
 Frc consts  --      6.6429                 6.6529                 6.7050
 IR Inten    --      2.0436                 2.9468                18.2667

                     67                     68                     69
                      A                      A                      A
 Frequencies --   3230.1204              3236.5170              3238.7085
 Red. masses --      1.0953                 1.0991                 1.0987
 Frc consts  --      6.7333                 6.7836                 6.7903
 IR Inten    --     10.7386                37.7229                17.9341

 - Thermochemistry -
 -------------------
 Temperature   298.150 Kelvin.  Pressure   1.00000 Atm.
 Atom     1 has atomic number  6 and mass  12.00000

 Molecular mass:   227.04049 amu.
 Principal axes and moments of inertia in atomic units:
                           1         2         3
     Eigenvalues --  1331.484216323.296687654.78087
           X           -0.70127   0.71289   0.00001
           Y            0.71289   0.70127  -0.00000
           Z            0.00001  -0.00001   1.00000
 This molecule is an asymmetric top.
 Rotational symmetry number  1.
 Warning -- assumption of classical behavior for rotation
           may cause significant error
 Rotational temperatures (Kelvin)      0.06505     0.01370     0.01132
 Rotational constants (GHZ):           1.35544     0.28541     0.23577
 Zero-point vibrational energy     484512.1 (Joules/Mol)
                                  115.80118 (Kcal/Mol)
 Warning -- explicit consideration of  19 degrees of freedom as
           vibrations may cause significant error
 Vibrational temperatures:     43.44    68.06   138.64   152.63   254.94
          (Kelvin)            320.73   385.37   388.03   411.78   552.49
                              573.00   630.19   699.31   701.32   716.42
                              725.38   761.98   797.13   834.36   916.14
                             1005.18  1014.79  1044.16  1061.95  1088.98
                             1107.13  1168.41  1181.36  1237.94  1295.03
                             1314.75  1372.09  1382.49  1389.61  1438.57
                             1492.35  1502.36  1545.44  1619.79  1629.58
                             1648.87  1684.22  1693.81  1777.94  1794.11
                             1828.63  1850.31  1962.55  1979.54  2018.25
                             2074.73  2119.21  2141.71  2189.62  2209.50
                             2240.61  2267.56  2324.33  2371.62  2395.65
                             2917.51  4611.49  4615.08  4629.75  4631.16
                             4641.93  4647.42  4656.63  4659.78

 Zero-point correction=                           0.184541 (Hartree/Particle)
 Thermal correction to Energy=                    0.196963
 Thermal correction to Enthalpy=                  0.197907
 Thermal correction to Gibbs Free Energy=         0.144470
 Sum of electronic and zero-point Energies=          -1028.506710
 Sum of electronic and thermal Energies=             -1028.494288
 Sum of electronic and thermal Enthalpies=           -1028.493344
 Sum of electronic and thermal Free Energies=        -1028.546781

                     E (Thermal)             CV                S
                      KCal/Mol        Cal/Mol-Kelvin    Cal/Mol-Kelvin
 Total                  123.596             49.311            112.467
 Electronic               0.000              0.000              0.000
 Translational            0.889              2.981             42.162
 Rotational               0.889              2.981             32.533
 Vibrational            121.818             43.349             37.772
 Vibration     1          0.594              1.984              5.817
 Vibration     2          0.595              1.979              4.927
 Vibration     3          0.603              1.952              3.527
 Vibration     4          0.605              1.944              3.339
 Vibration     5          0.628              1.870              2.358
 Vibration     6          0.649              1.806              1.935
 Vibration     7          0.673              1.732              1.610
 Vibration     8          0.674              1.729              1.598
 Vibration     9          0.684              1.699              1.496
 Vibration    10          0.753              1.504              1.023
 Vibration    11          0.765              1.474              0.969
 Vibration    12          0.798              1.387              0.833
 Vibration    13          0.842              1.281              0.694
 Vibration    14          0.843              1.278              0.690
 Vibration    15          0.853              1.255              0.663
 Vibration    16          0.859              1.241              0.648
 Vibration    17          0.885              1.184              0.588
 Vibration    18          0.909              1.131              0.536
 Vibration    19          0.937              1.075              0.486

 Optimization completed.
    -- Stationary point found.
 Normal termination of Gaussian 16 at Mon Jul 13 14:26:28 2020.
