 Gaussian 16, Revision C.01,
 Gaussian 16:  ES64L-G16RevC.01  3-Jul-2019

 ----------------------------------------------------------------------
 #p opt=addgic freq td wb97xd/cc-pvdz nosymm int=ultrafine scrf=(solven
 t=CarbonTetraChloride)
 ----------------------------------------------------------------------

 ------------------------------------------------
 NM 2D-scan of HBT TD-WB97XD pVDZ in CTC Relaxed.
 ------------------------------------------------
 Symbolic Z-matrix:
 Charge =  0 Multiplicity = 1

 SCF Done:  E(RwB97XD) =  -1028.79155981     A.U. after   16 cycles
 Total Energy, E(TD-HF/TD-DFT) =  -1028.68160380
 SCF Done:  E(RwB97XD) =  -1028.79732301     A.U. after   14 cycles
 Total Energy, E(TD-HF/TD-DFT) =  -1028.69387211
 SCF Done:  E(RwB97XD) =  -1028.80050352     A.U. after   13 cycles
 Total Energy, E(TD-HF/TD-DFT) =  -1028.69523454
 SCF Done:  E(RwB97XD) =  -1028.80109996     A.U. after   11 cycles
 Total Energy, E(TD-HF/TD-DFT) =  -1028.69534631
 SCF Done:  E(RwB97XD) =  -1028.80111286     A.U. after   10 cycles
 Total Energy, E(TD-HF/TD-DFT) =  -1028.69535087
 Optimization completed.
    -- Stationary point found.
 Normal termination of Gaussian 16 at Tue Jul 14 16:37:57 2020.

 ----------------------------------------------------------------------
 #P Geom=AllCheck Guess=TCheck SCRF=Check GenChk RwB97XD TD(FC,Read)/CC
 -pVDZ Freq
 ----------------------------------------------------------------------

 Structure from the checkpoint file:  "config_8_19.chk"
 ------------------------------------------------
 NM 2D-scan of HBT TD-WB97XD pVDZ in CTC Relaxed.
 ------------------------------------------------
 Charge =  0 Multiplicity = 1

                          Input orientation:
 ---------------------------------------------------------------------
 Center     Atomic      Atomic             Coordinates (Angstroms)
 Number     Number       Type             X           Y           Z
 ---------------------------------------------------------------------
      1          6           0        1.521272   -3.284615   -0.000050
      2          6           0        0.991150   -1.997542   -0.000025
      3          6           0        1.807059   -0.833425    0.000001
      4          6           0        3.202746   -0.995525   -0.000001
      5          6           0        3.727090   -2.284383   -0.000027
      6          6           0        2.905444   -3.422797   -0.000052
      7          1           0        0.864166   -4.155109   -0.000067
      8          1           0        3.856203   -0.122670    0.000019
      9          1           0        4.810944   -2.410887   -0.000029
     10          1           0        3.351902   -4.417759   -0.000070
     11          7           0        1.075949    0.336447    0.000026
     12         16           0       -0.699398   -1.575449   -0.000016
     13          6           0       -1.291901    1.116219    0.000036
     14          6           0       -2.639321    0.742596    0.000058
     15          6           0       -0.939525    2.549871    0.000027
     16          6           0       -3.662469    1.706559    0.000051
     17          1           0       -2.918892   -0.312970    0.000080
     18          6           0       -2.011706    3.483820    0.000001
     19          6           0       -3.347168    3.068514    0.000017
     20          1           0       -4.703159    1.379967    0.000064
     21          1           0       -1.743627    4.541620   -0.000027
     22          1           0       -4.145869    3.811539    0.000001
     23          6           0       -0.271331    0.124852    0.000018
     24          8           0        0.282567    2.911055   -0.000014
     25          1           0        1.272151    1.388085    0.000084
 ---------------------------------------------------------------------

 SCF Done:  E(RwB97XD) =  -1028.80111286     A.U. after    1 cycles

 Excitation energies and oscillator strengths:

 Excited state symmetry could not be determined.
 Excited State   1:      Singlet-?Sym    2.8779 eV  430.81 nm  f=0.4418  <S**2>=0.000
      59 -> 60         0.69709
 This state for optimization and/or second-order correction.
 Total Energy, E(TD-HF/TD-DFT) =  -1028.69535084
 Copying the excited state density for this state as the 1-particle RhoCI density.

 Excited state symmetry could not be determined.
 Excited State   2:      Singlet-?Sym    3.6518 eV  339.52 nm  f=0.0000  <S**2>=0.000
      57 -> 60         0.68367
      57 -> 62         0.11656
      57 -> 64         0.11443

 Excited state symmetry could not be determined.
 Excited State   3:      Singlet-?Sym    4.2572 eV  291.23 nm  f=0.3244  <S**2>=0.000
      58 -> 60         0.68372

 Alpha  occ. eigenvalues --  -89.10125 -19.21144 -14.53096 -10.41846 -10.37963
 Alpha  occ. eigenvalues --  -10.36193 -10.35803 -10.33292 -10.33062 -10.32545
 Alpha  occ. eigenvalues --  -10.32389 -10.31530 -10.30950 -10.30873 -10.29310
 Alpha  occ. eigenvalues --  -10.28522  -8.12192  -6.07056  -6.06692  -6.06210
 Alpha  occ. eigenvalues --   -1.12478  -1.08721  -0.98370  -0.95697  -0.93291
 Alpha  occ. eigenvalues --   -0.89078  -0.86829  -0.83582  -0.81450  -0.75846
 Alpha  occ. eigenvalues --   -0.72972  -0.72214  -0.68618  -0.67601  -0.65133
 Alpha  occ. eigenvalues --   -0.61043  -0.59657  -0.56774  -0.55789  -0.55557
 Alpha  occ. eigenvalues --   -0.55025  -0.53994  -0.53050  -0.50275  -0.48924
 Alpha  occ. eigenvalues --   -0.48729  -0.48511  -0.46955  -0.45495  -0.44949
 Alpha  occ. eigenvalues --   -0.44079  -0.42960  -0.42238  -0.40072  -0.36805
 Alpha  occ. eigenvalues --   -0.33621  -0.31773  -0.31356  -0.26031
 Alpha virt. eigenvalues --   -0.02070   0.03766   0.05488   0.06704   0.09215
 Alpha virt. eigenvalues --    0.10719   0.13956   0.14864   0.16335   0.17481
 Alpha virt. eigenvalues --    0.18061   0.19941   0.20433   0.21207   0.22286

 Mulliken charges:
               1
     1  C    0.021996
     2  C   -0.226601
     3  C    0.255402
     4  C   -0.012365
     5  C    0.009003
     6  C    0.003086
     7  H    0.025302
     8  H    0.030459
     9  H    0.027133
    10  H    0.026749
    11  N   -0.173581
    12  S    0.198378
    13  C   -0.075785
    14  C   -0.039005
    15  C    0.108295
    16  C   -0.030208
    17  H    0.017047
    18  C   -0.026155
    19  C    0.032478
    20  H    0.002089
    21  H    0.002970
    22  H    0.015340
    23  C    0.056398
    24  O   -0.412697
    25  H    0.164271
 Sum of Mulliken charges =  -0.00000

 Dipole moment (field-independent basis, Debye):
    X=              1.7265    Y=             -5.8019    Z=              0.0001  Tot=              6.0534
 Quadrupole moment (field-independent basis, Debye-Ang):
   XX=            -81.7124   YY=            -96.9532   ZZ=           -104.2121
   XY=             -6.4665   XZ=              0.0001   YZ=              0.0004

  Exact polarizability:     346.320    -122.101     299.795      -0.002       0.002      63.174
 Approx polarizability:     272.176     -35.173     264.966      -0.001       0.001      81.980

                      1                      2                      3
                      A                      A                      A
 Frequencies --     32.6085                44.0120               116.6882
 Red. masses --      7.1781                 4.2542                 5.8600
 Frc consts  --      0.0045                 0.0049                 0.0470
 IR Inten    --      2.0784                 0.0006                14.5314

                      4                      5                      6
                      A                      A                      A
 Frequencies --    122.5391               185.0882               222.8124
 Red. masses --      5.8954                 5.9727                 5.6256
 Frc consts  --      0.0522                 0.1206                 0.1646
 IR Inten    --      1.4446                 0.0374                 0.2054

                      7                      8                      9
                      A                      A                      A
 Frequencies --    259.4933               271.3411               299.2400
 Red. masses --      8.2703                 4.5881                 7.1686
 Frc consts  --      0.3281                 0.1990                 0.3782
 IR Inten    --      6.7053                 0.1362                 2.7418

                     10                     11                     12
                      A                      A                      A
 Frequencies --    355.6800               400.7807               434.2936
 Red. masses --      4.8563                 8.4315                 3.4219
 Frc consts  --      0.3620                 0.7979                 0.3803
 IR Inten    --      1.0763                 5.9632                 2.4548

                     13                     14                     15
                      A                      A                      A
 Frequencies --    457.3514               508.7899               510.1012
 Red. masses --      4.3285                 8.8461                 3.2106
 Frc consts  --      0.5334                 1.3492                 0.4922
 IR Inten    --      3.2388                10.1663                 0.2911

                     16                     17                     18
                      A                      A                      A
 Frequencies --    544.3263               547.8113               559.5441
 Red. masses --      8.8276                 6.0674                 3.8706
 Frc consts  --      1.5410                 1.0728                 0.7140
 IR Inten    --     11.8919                41.0364                 0.3922

                     19                     20                     21
                      A                      A                      A
 Frequencies --    569.0488               625.7932               697.4348
 Red. masses --      7.1448                 5.9558                 1.4980
 Frc consts  --      1.3631                 1.3742                 0.4293
 IR Inten    --     10.0729                55.0817                42.7158

                     22                     23                     24
                      A                      A                      A
 Frequencies --    720.8209               724.6396               743.2112
 Red. masses --      8.2616                 5.8951                 2.7076
 Frc consts  --      2.5291                 1.8238                 0.8812
 IR Inten    --      5.1943                 1.6266                14.7576

                     25                     26                     27
                      A                      A                      A
 Frequencies --    757.4747               766.7440               827.4494
 Red. masses --      1.6852                 1.6195                 1.9844
 Frc consts  --      0.5697                 0.5610                 0.8005
 IR Inten    --      4.5592                84.5166                 0.4949

                     28                     29                     30
                      A                      A                      A
 Frequencies --    828.0504               850.2873               870.4336
 Red. masses --      6.5200                 4.1031                 1.3764
 Frc consts  --      2.6340                 1.7478                 0.6144
 IR Inten    --     17.2625                 9.7098                 1.1548

                     31                     32                     33
                      A                      A                      A
 Frequencies --    900.6055               945.7958               952.9248
 Red. masses --      1.4332                 1.1159                 1.3120
 Frc consts  --      0.6849                 0.5881                 0.7019
 IR Inten    --      5.3621                64.2232                15.7643

                     34                     35                     36
                      A                      A                      A
 Frequencies --    957.0259               959.0750              1004.2548
 Red. masses --      5.4043                 1.3395                 1.3000
 Frc consts  --      2.9163                 0.7259                 0.7725
 IR Inten    --      2.3844                 0.2330                 0.0657

                     37                     38                     39
                      A                      A                      A
 Frequencies --   1052.0390              1059.5705              1093.3426
 Red. masses --      2.0988                 2.0300                 3.8445
 Frc consts  --      1.3686                 1.3428                 2.7077
 IR Inten    --      2.3471                13.3632                 3.5529

                     40                     41                     42
                      A                      A                      A
 Frequencies --   1127.1724              1157.9634              1170.1263
 Red. masses --      1.5642                 1.4208                 1.2974
 Frc consts  --      1.1709                 1.1225                 1.0466
 IR Inten    --     12.9228                30.7988                90.3050

                     43                     44                     45
                      A                      A                      A
 Frequencies --   1176.6417              1206.4524              1260.4836
 Red. masses --      1.1611                 1.7256                 2.4864
 Frc consts  --      0.9471                 1.4798                 2.3275
 IR Inten    --     22.1918                74.5079                28.0800

                     46                     47                     48
                      A                      A                      A
 Frequencies --   1273.4368              1304.9205              1342.3844
 Red. masses --      1.9542                 1.9357                 4.6721
 Frc consts  --      1.8671                 1.9420                 4.9604
 IR Inten    --     80.8907                 5.4017                23.2249

                     49                     50                     51
                      A                      A                      A
 Frequencies --   1357.2306              1394.0766              1401.8474
 Red. masses --      6.8463                 3.2922                 2.2287
 Frc consts  --      7.4304                 3.7697                 2.5805
 IR Inten    --    175.8702               114.8689                 3.3951

                     52                     53                     54
                      A                      A                      A
 Frequencies --   1447.0533              1480.7614              1495.3798
 Red. masses --      2.3592                 2.9157                 3.1730
 Frc consts  --      2.9106                 3.7668                 4.1805
 IR Inten    --    213.3117                 8.0772                39.4439

                     55                     56                     57
                      A                      A                      A
 Frequencies --   1522.6304              1555.8101              1571.5692
 Red. masses --      3.5854                 5.5452                 3.9958
 Frc consts  --      4.8975                 7.9083                 5.8146
 IR Inten    --     65.6034               180.0137                80.9197

                     58                     59                     60
                      A                      A                      A
 Frequencies --   1616.2470              1635.0655              1663.7820
 Red. masses --      5.3680                 6.2567                 6.6855
 Frc consts  --      8.2619                 9.8553                10.9038
 IR Inten    --    231.2952                74.8116                95.6983

                     61                     62                     63
                      A                      A                      A
 Frequencies --   2907.7007              3206.0741              3209.8973
 Red. masses --      1.0889                 1.0862                 1.0862
 Frc consts  --      5.4243                 6.5780                 6.5936
 IR Inten    --    818.1503                26.6984                 3.2492

                     64                     65                     66
                      A                      A                      A
 Frequencies --   3213.2026              3219.5669              3225.4339
 Red. masses --      1.0875                 1.0902                 1.0930
 Frc consts  --      6.6154                 6.6581                 6.6994
 IR Inten    --     13.3703                 3.2701                14.4180

                     67                     68                     69
                      A                      A                      A
 Frequencies --   3229.2678              3236.5262              3236.8082
 Red. masses --      1.0956                 1.0995                 1.0989
 Frc consts  --      6.7315                 6.7860                 6.7834
 IR Inten    --      6.7151                26.2648                10.9101

 - Thermochemistry -
 -------------------
 Temperature   298.150 Kelvin.  Pressure   1.00000 Atm.
 Atom     1 has atomic number  6 and mass  12.00000

 Molecular mass:   227.04049 amu.
 Principal axes and moments of inertia in atomic units:
                           1         2         3
     Eigenvalues --  1285.939566421.295297707.23484
           X           -0.70027   0.71388   0.00001
           Y            0.71388   0.70027  -0.00001
           Z            0.00001  -0.00000   1.00000
 This molecule is an asymmetric top.
 Rotational symmetry number  1.
 Warning -- assumption of classical behavior for rotation
           may cause significant error
 Rotational temperatures (Kelvin)      0.06735     0.01349     0.01124
 Rotational constants (GHZ):           1.40344     0.28106     0.23416
 Zero-point vibrational energy     488220.2 (Joules/Mol)
                                  116.68742 (Kcal/Mol)
 Warning -- explicit consideration of  19 degrees of freedom as
           vibrations may cause significant error
 Vibrational temperatures:     46.92    63.32   167.89   176.31   266.30
          (Kelvin)            320.58   373.35   390.40   430.54   511.74
                              576.63   624.85   658.03   732.04   733.92
                              783.16   788.18   805.06   818.73   900.38
                             1003.45  1037.10  1042.59  1069.32  1089.84
                             1103.17  1190.52  1191.38  1223.37  1252.36
                             1295.77  1360.79  1371.05  1376.95  1379.89
                             1444.90  1513.65  1524.49  1573.08  1621.75
                             1666.05  1683.55  1692.93  1735.82  1813.55
                             1832.19  1877.49  1931.39  1952.75  2005.77
                             2016.95  2081.99  2130.49  2151.52  2190.73
                             2238.46  2261.14  2325.42  2352.49  2393.81
                             4183.53  4612.83  4618.33  4623.08  4632.24
                             4640.68  4646.20  4656.64  4657.05

 Zero-point correction=                           0.185953 (Hartree/Particle)
 Thermal correction to Energy=                    0.198306
 Thermal correction to Enthalpy=                  0.199251
 Thermal correction to Gibbs Free Energy=         0.146155
 Sum of electronic and zero-point Energies=          -1028.509398
 Sum of electronic and thermal Energies=             -1028.497044
 Sum of electronic and thermal Enthalpies=           -1028.496100
 Sum of electronic and thermal Free Energies=        -1028.549196

                     E (Thermal)             CV                S
                      KCal/Mol        Cal/Mol-Kelvin    Cal/Mol-Kelvin
 Total                  124.439             49.410            111.748
 Electronic               0.000              0.000              0.000
 Translational            0.889              2.981             42.162
 Rotational               0.889              2.981             32.520
 Vibrational            122.662             43.448             37.066
 Vibration     1          0.594              1.983              5.664
 Vibration     2          0.595              1.980              5.070
 Vibration     3          0.608              1.936              3.154
 Vibration     4          0.610              1.930              3.060
 Vibration     5          0.631              1.860              2.276
 Vibration     6          0.648              1.806              1.936
 Vibration     7          0.668              1.747              1.665
 Vibration     8          0.675              1.726              1.588
 Vibration     9          0.692              1.675              1.421
 Vibration    10          0.731              1.564              1.141
 Vibration    11          0.767              1.468              0.960
 Vibration    12          0.795              1.395              0.845
 Vibration    13          0.815              1.345              0.774
 Vibration    14          0.864              1.231              0.637
 Vibration    15          0.865              1.228              0.633
 Vibration    16          0.899              1.152              0.556
 Vibration    17          0.903              1.144              0.549
 Vibration    18          0.915              1.119              0.525
 Vibration    19          0.925              1.098              0.506

 Optimization completed.
    -- Stationary point found.
 Normal termination of Gaussian 16 at Tue Jul 14 16:55:25 2020.
