 Gaussian 16, Revision C.01,
 Gaussian 16:  ES64L-G16RevC.01  3-Jul-2019

 ----------------------------------------------------------------------
 #p opt=addgic freq td wb97xd/cc-pvdz nosymm int=ultrafine scrf=(solven
 t=CarbonTetraChloride)
 ----------------------------------------------------------------------

 ------------------------------------------------
 NM 2D-scan of HBT TD-WB97XD pVDZ in CTC Relaxed.
 ------------------------------------------------
 Symbolic Z-matrix:
 Charge =  0 Multiplicity = 1

 SCF Done:  E(RwB97XD) =  -1028.80595059     A.U. after   15 cycles
 Total Energy, E(TD-HF/TD-DFT) =  -1028.68649677
 SCF Done:  E(RwB97XD) =  -1028.80661023     A.U. after   11 cycles
 Total Energy, E(TD-HF/TD-DFT) =  -1028.68686529
 SCF Done:  E(RwB97XD) =  -1028.80641251     A.U. after   10 cycles
 Total Energy, E(TD-HF/TD-DFT) =  -1028.68690861
 SCF Done:  E(RwB97XD) =  -1028.80579146     A.U. after   12 cycles
 Total Energy, E(TD-HF/TD-DFT) =  -1028.68697249
 SCF Done:  E(RwB97XD) =  -1028.80562507     A.U. after   10 cycles
 Total Energy, E(TD-HF/TD-DFT) =  -1028.68697776
 SCF Done:  E(RwB97XD) =  -1028.80553812     A.U. after    9 cycles
 Total Energy, E(TD-HF/TD-DFT) =  -1028.68697934
 Optimization completed.
    -- Stationary point found.
 Normal termination of Gaussian 16 at Tue Jul 14 11:01:12 2020.

 ----------------------------------------------------------------------
 #P Geom=AllCheck Guess=TCheck SCRF=Check GenChk RwB97XD TD(FC,Read)/CC
 -pVDZ Freq
 ----------------------------------------------------------------------

 Structure from the checkpoint file:  "config_6_16.chk"
 ------------------------------------------------
 NM 2D-scan of HBT TD-WB97XD pVDZ in CTC Relaxed.
 ------------------------------------------------
 Charge =  0 Multiplicity = 1

                          Input orientation:
 ---------------------------------------------------------------------
 Center     Atomic      Atomic             Coordinates (Angstroms)
 Number     Number       Type             X           Y           Z
 ---------------------------------------------------------------------
      1          6           0        1.548099   -3.253966   -0.000041
      2          6           0        0.997480   -1.977056   -0.000037
      3          6           0        1.782796   -0.784221   -0.000020
      4          6           0        3.186611   -0.934729   -0.000013
      5          6           0        3.731643   -2.214740   -0.000016
      6          6           0        2.932702   -3.371179   -0.000029
      7          1           0        0.903397   -4.133808   -0.000052
      8          1           0        3.829143   -0.053614   -0.000001
      9          1           0        4.817918   -2.322031   -0.000007
     10          1           0        3.397648   -4.357685   -0.000029
     11          7           0        1.035115    0.367360   -0.000012
     12         16           0       -0.702164   -1.608443   -0.000049
     13          6           0       -1.316150    1.068641    0.000025
     14          6           0       -2.679981    0.738441    0.000053
     15          6           0       -0.913051    2.480534    0.000032
     16          6           0       -3.646353    1.746551    0.000045
     17          1           0       -2.991262   -0.307285    0.000072
     18          6           0       -1.924582    3.470484    0.000023
     19          6           0       -3.273274    3.103967    0.000024
     20          1           0       -4.702897    1.474250    0.000055
     21          1           0       -1.616180    4.516605    0.000018
     22          1           0       -4.044312    3.874978    0.000014
     23          6           0       -0.299297    0.092374   -0.000014
     24          8           0        0.350168    2.751794    0.000046
     25          1           0        0.993760    1.629903    0.000021
 ---------------------------------------------------------------------

 SCF Done:  E(RwB97XD) =  -1028.80553812     A.U. after    1 cycles

 Excitation energies and oscillator strengths:

 Excited state symmetry could not be determined.
 Excited State   1:      Singlet-?Sym    3.2261 eV  384.31 nm  f=0.4855  <S**2>=0.000
      59 -> 60         0.69376
 This state for optimization and/or second-order correction.
 Total Energy, E(TD-HF/TD-DFT) =  -1028.68697931
 Copying the excited state density for this state as the 1-particle RhoCI density.

 Excited state symmetry could not be determined.
 Excited State   2:      Singlet-?Sym    4.3427 eV  285.50 nm  f=0.2930  <S**2>=0.000
      57 -> 60        -0.10182
      58 -> 60         0.67087

 Excited state symmetry could not be determined.
 Excited State   3:      Singlet-?Sym    4.5843 eV  270.46 nm  f=0.0000  <S**2>=0.000
      56 -> 60         0.68829
      56 -> 64        -0.10380

 Alpha  occ. eigenvalues --  -89.09487 -19.24464 -14.49965 -10.40609 -10.37009
 Alpha  occ. eigenvalues --  -10.36708 -10.35379 -10.32638 -10.32329 -10.31940
 Alpha  occ. eigenvalues --  -10.31934 -10.31853 -10.31599 -10.31284 -10.29883
 Alpha  occ. eigenvalues --  -10.29583  -8.11577  -6.06421  -6.06073  -6.05622
 Alpha  occ. eigenvalues --   -1.13131  -1.09474  -0.97400  -0.95761  -0.92852
 Alpha  occ. eigenvalues --   -0.88927  -0.85943  -0.83734  -0.82200  -0.75800
 Alpha  occ. eigenvalues --   -0.71630  -0.71170  -0.68618  -0.67583  -0.63638
 Alpha  occ. eigenvalues --   -0.60922  -0.59338  -0.57734  -0.55405  -0.54749
 Alpha  occ. eigenvalues --   -0.54362  -0.53622  -0.52905  -0.50703  -0.49804
 Alpha  occ. eigenvalues --   -0.49465  -0.47114  -0.46447  -0.45564  -0.45039
 Alpha  occ. eigenvalues --   -0.44274  -0.43038  -0.42119  -0.40701  -0.36581
 Alpha  occ. eigenvalues --   -0.34983  -0.32746  -0.31276  -0.27417
 Alpha virt. eigenvalues --   -0.01808   0.04453   0.06288   0.07203   0.08147
 Alpha virt. eigenvalues --    0.10678   0.14526   0.14960   0.16809   0.17811
 Alpha virt. eigenvalues --    0.18684   0.20793   0.21223   0.21933   0.22635

 Mulliken charges:
               1
     1  C    0.022043
     2  C   -0.222729
     3  C    0.256161
     4  C   -0.018965
     5  C    0.006392
     6  C    0.000635
     7  H    0.021264
     8  H    0.025399
     9  H    0.023203
    10  H    0.023374
    11  N   -0.312729
    12  S    0.183071
    13  C   -0.096690
    14  C   -0.031057
    15  C    0.131706
    16  C   -0.023181
    17  H    0.018089
    18  C   -0.015341
    19  C    0.028485
    20  H    0.006144
    21  H    0.011264
    22  H    0.019692
    23  C    0.076803
    24  O   -0.376030
    25  H    0.242995
 Sum of Mulliken charges =  -0.00000

 Dipole moment (field-independent basis, Debye):
    X=              0.3929    Y=             -4.0053    Z=             -0.0001  Tot=              4.0245
 Quadrupole moment (field-independent basis, Debye-Ang):
   XX=            -82.8528   YY=            -92.5703   ZZ=           -104.2208
   XY=             -6.9603   XZ=             -0.0000   YZ=             -0.0001

  Exact polarizability:     355.958    -139.148     318.418      -0.002       0.002      63.199
 Approx polarizability:     273.154     -34.553     261.104      -0.000       0.001      82.223

 ******    1 imaginary frequencies (negative Signs) ******

                      1                      2                      3
                      A                      A                      A
 Frequencies --  -1368.7838                43.0693                63.8740
 Red. masses --      1.0625                 6.3282                 4.9107
 Frc consts  --      1.1728                 0.0069                 0.0118
 IR Inten    --   1967.2581                 1.4406                 0.0789

                      4                      5                      6
                      A                      A                      A
 Frequencies --    121.2417               147.5322               181.5826
 Red. masses --      5.8726                 5.6954                 6.5391
 Frc consts  --      0.0509                 0.0730                 0.1270
 IR Inten    --      0.1250                 2.0244                 0.6124

                      7                      8                      9
                      A                      A                      A
 Frequencies --    219.4316               271.8804               284.2444
 Red. masses --      5.4270                 4.6556                 7.4674
 Frc consts  --      0.1540                 0.2028                 0.3555
 IR Inten    --      0.0448                 0.0359                12.3283

                     10                     11                     12
                      A                      A                      A
 Frequencies --    368.1862               371.8148               416.9561
 Red. masses --      4.9178                 6.6005                10.9991
 Frc consts  --      0.3928                 0.5376                 1.1266
 IR Inten    --      0.3179                 4.5886                 4.4215

                     13                     14                     15
                      A                      A                      A
 Frequencies --    439.3579               469.4730               501.5193
 Red. masses --      3.2256                 4.7432                 3.1727
 Frc consts  --      0.3669                 0.6160                 0.4702
 IR Inten    --      4.0148                 0.5282                 0.4033

                     16                     17                     18
                      A                      A                      A
 Frequencies --    508.3957               546.1652               560.0100
 Red. masses --      8.8515                 8.5904                 3.8722
 Frc consts  --      1.3479                 1.5098                 0.7155
 IR Inten    --      3.2362                 3.8126                 0.2409

                     19                     20                     21
                      A                      A                      A
 Frequencies --    574.7655               596.3076               658.5350
 Red. masses --      7.6402                 6.8412                 6.7619
 Frc consts  --      1.4871                 1.4332                 1.7277
 IR Inten    --     15.7818                 8.1217                67.6809

                     22                     23                     24
                      A                      A                      A
 Frequencies --    699.7996               728.7550               742.9802
 Red. masses --      1.5714                 6.4013                 2.2418
 Frc consts  --      0.4534                 2.0030                 0.7291
 IR Inten    --     45.6890                 5.0553                22.6175

                     25                     26                     27
                      A                      A                      A
 Frequencies --    750.7631               757.7664               766.5523
 Red. masses --      8.7720                 1.7955                 1.8044
 Frc consts  --      2.9131                 0.6074                 0.6247
 IR Inten    --     32.0589                15.0235                69.0611

                     28                     29                     30
                      A                      A                      A
 Frequencies --    812.4252               834.9082               866.4205
 Red. masses --      1.8273                 6.3660                 1.3923
 Frc consts  --      0.7106                 2.6145                 0.6158
 IR Inten    --      0.2619                 8.0398                 0.9597

                     31                     32                     33
                      A                      A                      A
 Frequencies --    904.4154               910.8909               955.0612
 Red. masses --      1.3764                 6.7938                 1.3506
 Frc consts  --      0.6633                 3.3212                 0.7258
 IR Inten    --      4.7407                34.2255                 2.1296

                     34                     35                     36
                      A                      A                      A
 Frequencies --    956.5388               995.6992              1000.9940
 Red. masses --      1.3799                 7.7423                 1.2985
 Frc consts  --      0.7439                 4.5225                 0.7666
 IR Inten    --      0.1978                17.4534                 0.0020

                     37                     38                     39
                      A                      A                      A
 Frequencies --   1046.2526              1050.0124              1097.4406
 Red. masses --      2.0778                 2.0509                 3.7058
 Frc consts  --      1.3401                 1.3322                 2.6296
 IR Inten    --      6.1534                 3.6931                57.3812

                     40                     41                     42
                      A                      A                      A
 Frequencies --   1135.8629              1155.3941              1175.9119
 Red. masses --      1.4680                 1.4076                 1.2095
 Frc consts  --      1.1159                 1.1071                 0.9854
 IR Inten    --      9.5329                22.4740                71.7088

                     43                     44                     45
                      A                      A                      A
 Frequencies --   1177.5325              1225.3241              1258.9112
 Red. masses --      1.1967                 1.0494                 1.9834
 Frc consts  --      0.9776                 0.9283                 1.8521
 IR Inten    --     19.0211                68.9077                96.4076

                     46                     47                     48
                      A                      A                      A
 Frequencies --   1271.6261              1302.0223              1333.8900
 Red. masses --      2.1816                 2.6649                 3.4907
 Frc consts  --      2.0784                 2.6617                 3.6593
 IR Inten    --     63.9891                17.4494                14.3252

                     49                     50                     51
                      A                      A                      A
 Frequencies --   1359.6044              1385.2842              1406.5705
 Red. masses --      6.1466                 2.5605                 3.2251
 Frc consts  --      6.6944                 2.8950                 3.7594
 IR Inten    --    255.1813                96.2009               134.3202

                     52                     53                     54
                      A                      A                      A
 Frequencies --   1449.4413              1474.7839              1502.4648
 Red. masses --      2.5823                 3.1512                 3.3004
 Frc consts  --      3.1963                 4.0382                 4.3897
 IR Inten    --    254.3621                27.3619                34.4693

                     55                     56                     57
                      A                      A                      A
 Frequencies --   1517.2330              1552.1383              1570.1226
 Red. masses --      4.8974                 4.8743                 5.0271
 Frc consts  --      6.6423                 6.9186                 7.3018
 IR Inten    --    380.1698                63.1142                90.6070

                     58                     59                     60
                      A                      A                      A
 Frequencies --   1619.3525              1634.4865              1655.4281
 Red. masses --      6.0002                 5.7488                 6.3815
 Frc consts  --      9.2704                 9.0488                10.3037
 IR Inten    --     54.7352               960.4175               120.9512

                     61                     62                     63
                      A                      A                      A
 Frequencies --   1868.0086              3206.3019              3211.2626
 Red. masses --      1.0997                 1.0861                 1.0860
 Frc consts  --      2.2609                 6.5787                 6.5984
 IR Inten    --    231.6895                 6.1490                14.1035

                     64                     65                     66
                      A                      A                      A
 Frequencies --   3216.1872              3220.9535              3226.9981
 Red. masses --      1.0902                 1.0886                 1.0951
 Frc consts  --      6.6442                 6.6542                 6.7192
 IR Inten    --      2.4473                15.1185                 9.2709

                     67                     68                     69
                      A                      A                      A
 Frequencies --   3229.3185              3234.4920              3240.2638
 Red. masses --      1.0942                 1.0995                 1.0983
 Frc consts  --      6.7230                 6.7770                 6.7938
 IR Inten    --     13.3066                22.8979                17.1974

 - Thermochemistry -
 -------------------
 Temperature   298.150 Kelvin.  Pressure   1.00000 Atm.
 Atom     1 has atomic number  6 and mass  12.00000

 Molecular mass:   227.04049 amu.
 Principal axes and moments of inertia in atomic units:
                           1         2         3
     Eigenvalues --  1283.063556296.831307579.89484
           X           -0.70464   0.70956   0.00000
           Y            0.70956   0.70464  -0.00001
           Z            0.00001   0.00001   1.00000
 This molecule is an asymmetric top.
 Rotational symmetry number  1.
 Warning -- assumption of classical behavior for rotation
           may cause significant error
 Rotational temperatures (Kelvin)      0.06751     0.01376     0.01143
 Rotational constants (GHZ):           1.40659     0.28661     0.23810
    1 imaginary frequencies ignored.
 Zero-point vibrational energy     478740.7 (Joules/Mol)
                                  114.42177 (Kcal/Mol)
 Warning -- explicit consideration of  19 degrees of freedom as
           vibrations may cause significant error
 Vibrational temperatures:     61.97    91.90   174.44   212.27   261.26
          (Kelvin)            315.71   391.18   408.96   529.74   534.96
                              599.91   632.14   675.47   721.57   731.47
                              785.81   805.73   826.96   857.95   947.48
                             1006.86  1048.52  1068.98  1080.18  1090.26
                             1102.90  1168.90  1201.25  1246.59  1301.25
                             1310.57  1374.12  1376.25  1432.59  1440.21
                             1505.32  1510.73  1578.97  1634.25  1662.35
                             1691.87  1694.21  1762.97  1811.29  1829.59
                             1873.32  1919.17  1956.17  1993.11  2023.74
                             2085.42  2121.89  2161.71  2182.96  2233.18
                             2259.06  2329.89  2351.66  2381.79  2687.65
                             4613.15  4620.29  4627.38  4634.23  4642.93
                             4646.27  4653.71  4662.02

 Zero-point correction=                           0.182343 (Hartree/Particle)
 Thermal correction to Energy=                    0.194312
 Thermal correction to Enthalpy=                  0.195257
 Thermal correction to Gibbs Free Energy=         0.143442
 Sum of electronic and zero-point Energies=          -1028.504637
 Sum of electronic and thermal Energies=             -1028.492667
 Sum of electronic and thermal Enthalpies=           -1028.491723
 Sum of electronic and thermal Free Energies=        -1028.543538

                     E (Thermal)             CV                S
                      KCal/Mol        Cal/Mol-Kelvin    Cal/Mol-Kelvin
 Total                  121.933             48.320            109.054
 Electronic               0.000              0.000              0.000
 Translational            0.889              2.981             42.162
 Rotational               0.889              2.981             32.482
 Vibrational            120.155             42.359             34.410
 Vibration     1          0.595              1.980              5.113
 Vibration     2          0.597              1.972              4.334
 Vibration     3          0.609              1.931              3.080
 Vibration     4          0.617              1.905              2.704
 Vibration     5          0.630              1.865              2.312
 Vibration     6          0.647              1.811              1.964
 Vibration     7          0.675              1.725              1.584
 Vibration     8          0.683              1.703              1.508
 Vibration     9          0.741              1.538              1.087
 Vibration    10          0.744              1.530              1.072
 Vibration    11          0.780              1.433              0.902
 Vibration    12          0.799              1.384              0.829
 Vibration    13          0.827              1.318              0.739
 Vibration    14          0.857              1.247              0.654
 Vibration    15          0.864              1.231              0.637
 Vibration    16          0.901              1.148              0.552
 Vibration    17          0.916              1.118              0.524
 Vibration    18          0.931              1.086              0.495
 Vibration    19          0.954              1.040              0.456

 Optimization completed.
    -- Stationary point found.
 Normal termination of Gaussian 16 at Tue Jul 14 11:19:47 2020.
