 Gaussian 16, Revision C.01,
 Gaussian 16:  ES64L-G16RevC.01  3-Jul-2019

 ----------------------------------------------------------------------
 #p opt=addgic freq td wb97xd/cc-pvdz nosymm int=ultrafine scrf=(solven
 t=CarbonTetraChloride)
 ----------------------------------------------------------------------

 ------------------------------------------------
 NM 2D-scan of HBT TD-WB97XD pVDZ in CTC Relaxed.
 ------------------------------------------------
 Symbolic Z-matrix:
 Charge =  0 Multiplicity = 1

 SCF Done:  E(RwB97XD) =  -1028.76585372     A.U. after   15 cycles
 Total Energy, E(TD-HF/TD-DFT) =  -1028.63460452
 SCF Done:  E(RwB97XD) =  -1028.81431873     A.U. after   13 cycles
 Total Energy, E(TD-HF/TD-DFT) =  -1028.68543191
 SCF Done:  E(RwB97XD) =  -1028.81604059     A.U. after   13 cycles
 Total Energy, E(TD-HF/TD-DFT) =  -1028.68885745
 SCF Done:  E(RwB97XD) =  -1028.81607251     A.U. after   11 cycles
 Total Energy, E(TD-HF/TD-DFT) =  -1028.68893567
 SCF Done:  E(RwB97XD) =  -1028.81611687     A.U. after    9 cycles
 Total Energy, E(TD-HF/TD-DFT) =  -1028.68894180
 SCF Done:  E(RwB97XD) =  -1028.81616010     A.U. after    8 cycles
 Total Energy, E(TD-HF/TD-DFT) =  -1028.68894251
 SCF Done:  E(RwB97XD) =  -1028.81616826     A.U. after    7 cycles
 Total Energy, E(TD-HF/TD-DFT) =  -1028.68894259
 Optimization completed.
    -- Stationary point found.
 Normal termination of Gaussian 16 at Mon Jul 13 17:27:59 2020.

 ----------------------------------------------------------------------
 #P Geom=AllCheck Guess=TCheck SCRF=Check GenChk RwB97XD TD(FC,Read)/CC
 -pVDZ Freq
 ----------------------------------------------------------------------

 Structure from the checkpoint file:  "config_3_5.chk"
 ------------------------------------------------
 NM 2D-scan of HBT TD-WB97XD pVDZ in CTC Relaxed.
 ------------------------------------------------
 Charge =  0 Multiplicity = 1

                          Input orientation:
 ---------------------------------------------------------------------
 Center     Atomic      Atomic             Coordinates (Angstroms)
 Number     Number       Type             X           Y           Z
 ---------------------------------------------------------------------
      1          6           0        1.707686   -3.297503   -0.000095
      2          6           0        0.976119   -2.109000   -0.000087
      3          6           0        1.660437   -0.847559    0.000038
      4          6           0        3.078669   -0.803252    0.000158
      5          6           0        3.781622   -1.985326    0.000146
      6          6           0        3.104660   -3.225471    0.000020
      7          1           0        1.208520   -4.267425   -0.000185
      8          1           0        3.571378    0.169566    0.000250
      9          1           0        4.872949   -1.970236    0.000234
     10          1           0        3.682903   -4.150789    0.000013
     11          7           0        0.898562    0.242543    0.000027
     12         16           0       -0.762977   -1.825049   -0.000192
     13          6           0       -1.374313    1.020619   -0.000096
     14          6           0       -2.792675    0.868965   -0.000023
     15          6           0       -0.891432    2.427158   -0.000076
     16          6           0       -3.640831    1.966178    0.000141
     17          1           0       -3.214340   -0.137758   -0.000053
     18          6           0       -1.781895    3.506951    0.000109
     19          6           0       -3.149078    3.294166    0.000233
     20          1           0       -4.719373    1.799956    0.000218
     21          1           0       -1.344891    4.505841    0.000115
     22          1           0       -3.840015    4.137420    0.000372
     23          6           0       -0.431462   -0.035282   -0.000123
     24          8           0        0.386733    2.752294   -0.000355
     25          1           0        0.911191    1.899203   -0.000690
 ---------------------------------------------------------------------

 SCF Done:  E(RwB97XD) =  -1028.81616826     A.U. after    1 cycles

 Excitation energies and oscillator strengths:

 Excited state symmetry could not be determined.
 Excited State   1:      Singlet-?Sym    3.4620 eV  358.13 nm  f=0.6973  <S**2>=0.000
      59 -> 60         0.68982
 This state for optimization and/or second-order correction.
 Total Energy, E(TD-HF/TD-DFT) =  -1028.68894259
 Copying the excited state density for this state as the 1-particle RhoCI density.

 Excited state symmetry could not be determined.
 Excited State   2:      Singlet-?Sym    4.3842 eV  282.80 nm  f=0.2279  <S**2>=0.000
      57 -> 60        -0.24058
      58 -> 60        -0.61602
      59 -> 62         0.16951

 Excited state symmetry could not be determined.
 Excited State   3:      Singlet-?Sym    4.5706 eV  271.26 nm  f=0.0499  <S**2>=0.000
      57 -> 60         0.56920
      58 -> 60        -0.22908
      58 -> 61        -0.12530
      59 -> 61         0.24351

 Alpha  occ. eigenvalues --  -89.09206 -19.28492 -14.46891 -10.39993 -10.38235
 Alpha  occ. eigenvalues --  -10.34955 -10.34797 -10.33022 -10.32335 -10.32300
 Alpha  occ. eigenvalues --  -10.31891 -10.31454 -10.31314 -10.31247 -10.30458
 Alpha  occ. eigenvalues --  -10.30208  -8.11047  -6.05910  -6.05571  -6.05098
 Alpha  occ. eigenvalues --   -1.17238  -1.08280  -0.96628  -0.95549  -0.91434
 Alpha  occ. eigenvalues --   -0.88794  -0.84900  -0.84363  -0.82304  -0.75987
 Alpha  occ. eigenvalues --   -0.71016  -0.70151  -0.69089  -0.68276  -0.63311
 Alpha  occ. eigenvalues --   -0.60252  -0.58853  -0.58510  -0.55838  -0.54394
 Alpha  occ. eigenvalues --   -0.53621  -0.53049  -0.52728  -0.50968  -0.50397
 Alpha  occ. eigenvalues --   -0.49261  -0.47949  -0.45840  -0.45516  -0.44700
 Alpha  occ. eigenvalues --   -0.43726  -0.42867  -0.42275  -0.39939  -0.37324
 Alpha  occ. eigenvalues --   -0.36432  -0.32175  -0.31437  -0.27913
 Alpha virt. eigenvalues --   -0.01851   0.05140   0.07021   0.07103   0.07106
 Alpha virt. eigenvalues --    0.11163   0.12965   0.15111   0.15894   0.17890
 Alpha virt. eigenvalues --    0.18590   0.20790   0.21690   0.22307   0.22722

 Mulliken charges:
               1
     1  C    0.007443
     2  C   -0.221479
     3  C    0.235031
     4  C   -0.015537
     5  C    0.009678
     6  C   -0.008962
     7  H    0.019243
     8  H    0.016177
     9  H    0.018432
    10  H    0.020583
    11  N   -0.350571
    12  S    0.150963
    13  C   -0.095192
    14  C   -0.015636
    15  C    0.086322
    16  C   -0.014283
    17  H    0.011521
    18  C    0.014250
    19  C    0.021703
    20  H    0.011715
    21  H    0.018831
    22  H    0.022325
    23  C    0.080248
    24  O   -0.193327
    25  H    0.170522
 Sum of Mulliken charges =  -0.00000

 Dipole moment (field-independent basis, Debye):
    X=             -0.2964    Y=             -1.8138    Z=             -0.0003  Tot=              1.8378
 Quadrupole moment (field-independent basis, Debye-Ang):
   XX=            -83.2159   YY=            -89.0530   ZZ=           -104.5027
   XY=             -6.8694   XZ=             -0.0008   YZ=              0.0008

  Exact polarizability:     405.101    -193.717     388.773      -0.001       0.007      63.539
 Approx polarizability:     280.673     -36.815     263.467       0.001       0.007      82.492

                      1                      2                      3
                      A                      A                      A
 Frequencies --     35.8004                60.4518               107.6542
 Red. masses --      5.9480                 6.1256                 4.6360
 Frc consts  --      0.0045                 0.0132                 0.0317
 IR Inten    --      1.3675                 0.0161                 0.3059

                      4                      5                      6
                      A                      A                      A
 Frequencies --    111.3847               181.1922               223.7166
 Red. masses --      5.6408                 6.5665                 5.3970
 Frc consts  --      0.0412                 0.1270                 0.1591
 IR Inten    --      2.0806                 0.9187                 0.0003

                      7                      8                      9
                      A                      A                      A
 Frequencies --    263.4461               267.5491               297.5669
 Red. masses --      7.8574                 4.8125                 6.7540
 Frc consts  --      0.3213                 0.2030                 0.3524
 IR Inten    --     22.4537                 0.1741                 6.3338

                     10                     11                     12
                      A                      A                      A
 Frequencies --    392.4704               393.1743               438.1058
 Red. masses --      8.8900                 4.6755                 3.2679
 Frc consts  --      0.8068                 0.4258                 0.3696
 IR Inten    --     13.1647                 0.1954                 4.5220

                     13                     14                     15
                      A                      A                      A
 Frequencies --    492.5153               495.2141               503.5025
 Red. masses --      4.4997                 6.3926                 3.1367
 Frc consts  --      0.6431                 0.9237                 0.4685
 IR Inten    --      0.2397                18.3088                 0.0838

                     16                     17                     18
                      A                      A                      A
 Frequencies --    505.6836               526.1810               549.2168
 Red. masses --      6.0419                 7.9008                 3.9750
 Frc consts  --      0.9103                 1.2888                 0.7064
 IR Inten    --     16.9876                18.4052                 0.1528

                     19                     20                     21
                      A                      A                      A
 Frequencies --    579.1314               639.2836               669.5056
 Red. masses --      7.6975                 6.8274                 8.7237
 Frc consts  --      1.5211                 1.6440                 2.3039
 IR Inten    --     50.9661                51.9567                19.7743

                     22                     23                     24
                      A                      A                      A
 Frequencies --    707.2414               715.3088               734.1556
 Red. masses --      7.0656                 1.8299                 1.8990
 Frc consts  --      2.0822                 0.5517                 0.6031
 IR Inten    --     11.7239                43.4460                29.7278

                     25                     26                     27
                      A                      A                      A
 Frequencies --    749.8869               771.2655               802.5866
 Red. masses --      1.8334                 2.0331                 6.5399
 Frc consts  --      0.6074                 0.7125                 2.4820
 IR Inten    --     29.7627                52.8807                17.2432

                     28                     29                     30
                      A                      A                      A
 Frequencies --    824.3745               858.4085               890.1102
 Red. masses --      1.6214                 1.4260                 6.3819
 Frc consts  --      0.6492                 0.6191                 2.9791
 IR Inten    --      1.6332                 0.4196                49.3307

                     31                     32                     33
                      A                      A                      A
 Frequencies --    915.4837               928.7902               951.5439
 Red. masses --      1.1810                 1.2102                 7.1319
 Frc consts  --      0.5832                 0.6151                 3.8046
 IR Inten    --     57.3152                15.8723                 7.0612

                     34                     35                     36
                      A                      A                      A
 Frequencies --    953.1217               966.5617               999.6010
 Red. masses --      1.3431                 1.3522                 1.2993
 Frc consts  --      0.7189                 0.7443                 0.7649
 IR Inten    --      2.1770                 0.0044                 0.0001

                     37                     38                     39
                      A                      A                      A
 Frequencies --   1037.6907              1038.9954              1069.9823
 Red. masses --      2.2249                 2.1553                 4.8989
 Frc consts  --      1.4116                 1.3708                 3.3044
 IR Inten    --      3.6610                 0.3601                36.9964

                     40                     41                     42
                      A                      A                      A
 Frequencies --   1134.6063              1146.9657              1175.1118
 Red. masses --      1.4786                 1.3054                 1.1374
 Frc consts  --      1.1215                 1.0118                 0.9254
 IR Inten    --     54.6483                14.9168                 4.5429

                     43                     44                     45
                      A                      A                      A
 Frequencies --   1177.6865              1225.9095              1235.5522
 Red. masses --      1.1757                 6.2577                 1.6753
 Frc consts  --      0.9608                 5.5409                 1.5068
 IR Inten    --     32.5797                91.5668               159.0863

                     46                     47                     48
                      A                      A                      A
 Frequencies --   1277.6391              1295.3733              1362.9947
 Red. masses --      1.6473                 2.8320                 2.9802
 Frc consts  --      1.5843                 2.7998                 3.2620
 IR Inten    --     13.2032               270.2432                75.5624

                     49                     50                     51
                      A                      A                      A
 Frequencies --   1373.1730              1402.6543              1437.8052
 Red. masses --      5.2531                 2.0093                 2.5368
 Frc consts  --      5.8361                 2.3292                 3.0899
 IR Inten    --     25.3220                13.7976               185.7174

                     52                     53                     54
                      A                      A                      A
 Frequencies --   1475.0956              1495.8493              1517.9559
 Red. masses --      3.1483                 2.2181                 5.8714
 Frc consts  --      4.0362                 2.9242                 7.9709
 IR Inten    --     71.9034               212.5450               101.6923

                     55                     56                     57
                      A                      A                      A
 Frequencies --   1533.1460              1549.8806              1585.2976
 Red. masses --      5.1404                 5.6581                 2.8363
 Frc consts  --      7.1190                 8.0079                 4.1998
 IR Inten    --    152.4260               486.7898               274.2534

                     58                     59                     60
                      A                      A                      A
 Frequencies --   1605.7205              1630.2266              1653.0643
 Red. masses --      3.5016                 5.4971                 5.7733
 Frc consts  --      5.3193                 8.6076                 9.2951
 IR Inten    --     32.9453               449.1134               170.0814

                     61                     62                     63
                      A                      A                      A
 Frequencies --   3042.5709              3204.1614              3207.5201
 Red. masses --      1.0725                 1.0870                 1.0860
 Frc consts  --      5.8498                 6.5752                 6.5832
 IR Inten    --     62.5306                 4.0044                 8.4684

                     64                     65                     66
                      A                      A                      A
 Frequencies --   3217.3133              3217.6983              3226.2560
 Red. masses --      1.0898                 1.0891                 1.0935
 Frc consts  --      6.6464                 6.6437                 6.7063
 IR Inten    --      3.1966                 1.5115                19.7659

                     67                     68                     69
                      A                      A                      A
 Frequencies --   3228.7877              3235.5147              3238.6809
 Red. masses --      1.0953                 1.0993                 1.0990
 Frc consts  --      6.7276                 6.7807                 6.7919
 IR Inten    --     11.1650                42.1811                24.7114

 - Thermochemistry -
 -------------------
 Temperature   298.150 Kelvin.  Pressure   1.00000 Atm.
 Atom     1 has atomic number  6 and mass  12.00000

 Molecular mass:   227.04049 amu.
 Principal axes and moments of inertia in atomic units:
                           1         2         3
     Eigenvalues --  1358.339866358.453837716.79364
           X           -0.69635   0.71770  -0.00001
           Y            0.71770   0.69635  -0.00002
           Z            0.00000   0.00002   1.00000
 This molecule is an asymmetric top.
 Rotational symmetry number  1.
 Warning -- assumption of classical behavior for rotation
           may cause significant error
 Rotational temperatures (Kelvin)      0.06376     0.01362     0.01122
 Rotational constants (GHZ):           1.32864     0.28383     0.23387
 Zero-point vibrational energy     489021.8 (Joules/Mol)
                                  116.87902 (Kcal/Mol)
 Warning -- explicit consideration of  19 degrees of freedom as
           vibrations may cause significant error
 Vibrational temperatures:     51.51    86.98   154.89   160.26   260.70
          (Kelvin)            321.88   379.04   384.94   428.13   564.68
                              565.69   630.34   708.62   712.50   724.43
                              727.57   757.06   790.20   833.24   919.79
                              963.27  1017.56  1029.17  1056.29  1078.92
                             1109.68  1154.74  1186.09  1235.06  1280.67
                             1317.18  1336.32  1369.06  1371.33  1390.67
                             1438.20  1493.01  1494.88  1539.47  1632.45
                             1650.23  1690.72  1694.43  1763.81  1777.68
                             1838.24  1863.75  1961.05  1975.69  2018.11
                             2068.68  2122.33  2152.19  2184.00  2205.86
                             2229.93  2280.89  2310.27  2345.53  2378.39
                             4377.58  4610.07  4614.91  4629.00  4629.55
                             4641.86  4645.51  4655.18  4659.74

 Zero-point correction=                           0.186259 (Hartree/Particle)
 Thermal correction to Energy=                    0.198632
 Thermal correction to Enthalpy=                  0.199576
 Thermal correction to Gibbs Free Energy=         0.146654
 Sum of electronic and zero-point Energies=          -1028.502684
 Sum of electronic and thermal Energies=             -1028.490311
 Sum of electronic and thermal Enthalpies=           -1028.489366
 Sum of electronic and thermal Free Energies=        -1028.542289

                     E (Thermal)             CV                S
                      KCal/Mol        Cal/Mol-Kelvin    Cal/Mol-Kelvin
 Total                  124.643             49.568            111.385
 Electronic               0.000              0.000              0.000
 Translational            0.889              2.981             42.162
 Rotational               0.889              2.981             32.566
 Vibrational            122.866             43.607             36.656
 Vibration     1          0.594              1.982              5.479
 Vibration     2          0.597              1.973              4.442
 Vibration     3          0.606              1.943              3.311
 Vibration     4          0.607              1.940              3.245
 Vibration     5          0.630              1.865              2.316
 Vibration     6          0.649              1.805              1.929
 Vibration     7          0.670              1.740              1.639
 Vibration     8          0.673              1.733              1.612
 Vibration     9          0.691              1.678              1.431
 Vibration    10          0.760              1.486              0.991
 Vibration    11          0.760              1.485              0.988
 Vibration    12          0.798              1.387              0.833
 Vibration    13          0.848              1.267              0.677
 Vibration    14          0.851              1.261              0.670
 Vibration    15          0.859              1.242              0.649
 Vibration    16          0.861              1.237              0.644
 Vibration    17          0.881              1.192              0.596
 Vibration    18          0.904              1.141              0.546
 Vibration    19          0.936              1.076              0.487

 Optimization completed.
    -- Stationary point found.
 Normal termination of Gaussian 16 at Mon Jul 13 17:45:18 2020.
