 Gaussian 16, Revision C.01,
 Gaussian 16:  ES64L-G16RevC.01  3-Jul-2019

 ----------------------------------------------------------------------
 #p opt=addgic freq td wb97xd/cc-pvdz nosymm int=ultrafine scrf=(solven
 t=CarbonTetraChloride)
 ----------------------------------------------------------------------

 ------------------------------------------------
 NM 2D-scan of HBT TD-WB97XD pVDZ in CTC Relaxed.
 ------------------------------------------------
 Symbolic Z-matrix:
 Charge =  0 Multiplicity = 1

 SCF Done:  E(RwB97XD) =  -1028.47950178     A.U. after   15 cycles
 Total Energy, E(TD-HF/TD-DFT) =  -1028.34765295
 SCF Done:  E(RwB97XD) =  -1028.74282639     A.U. after   13 cycles
 Total Energy, E(TD-HF/TD-DFT) =  -1028.61273207
 SCF Done:  E(RwB97XD) =  -1028.80428887     A.U. after   15 cycles
 Total Energy, E(TD-HF/TD-DFT) =  -1028.67846100
 SCF Done:  E(RwB97XD) =  -1028.81325313     A.U. after   13 cycles
 Total Energy, E(TD-HF/TD-DFT) =  -1028.68619592
 SCF Done:  E(RwB97XD) =  -1028.81387887     A.U. after   11 cycles
 Total Energy, E(TD-HF/TD-DFT) =  -1028.68644065
 SCF Done:  E(RwB97XD) =  -1028.81405099     A.U. after    9 cycles
 Total Energy, E(TD-HF/TD-DFT) =  -1028.68645543
 SCF Done:  E(RwB97XD) =  -1028.81408762     A.U. after    9 cycles
 Total Energy, E(TD-HF/TD-DFT) =  -1028.68645715
 Optimization completed.
    -- Stationary point found.
 Normal termination of Gaussian 16 at Mon Jul 13 20:32:19 2020.

 ----------------------------------------------------------------------
 #P Geom=AllCheck Guess=TCheck SCRF=Check GenChk RwB97XD TD(FC,Read)/CC
 -pVDZ Freq
 ----------------------------------------------------------------------

 Structure from the checkpoint file:  "config_1_8.chk"
 ------------------------------------------------
 NM 2D-scan of HBT TD-WB97XD pVDZ in CTC Relaxed.
 ------------------------------------------------
 Charge =  0 Multiplicity = 1

                          Input orientation:
 ---------------------------------------------------------------------
 Center     Atomic      Atomic             Coordinates (Angstroms)
 Number     Number       Type             X           Y           Z
 ---------------------------------------------------------------------
      1          6           0        1.668824   -3.317824   -0.000021
      2          6           0        0.959599   -2.114942   -0.000012
      3          6           0        1.671540   -0.861240   -0.000009
      4          6           0        3.093310   -0.850671   -0.000014
      5          6           0        3.770730   -2.044903   -0.000024
      6          6           0        3.066576   -3.272670   -0.000028
      7          1           0        1.151567   -4.278272   -0.000023
      8          1           0        3.604426    0.112520   -0.000011
      9          1           0        4.862090   -2.053680   -0.000028
     10          1           0        3.626528   -4.209291   -0.000035
     11          7           0        0.948422    0.252367   -0.000002
     12         16           0       -0.768046   -1.795635   -0.000002
     13          6           0       -1.336126    1.045722   -0.000001
     14          6           0       -2.756781    0.845358   -0.000011
     15          6           0       -0.910198    2.467923    0.000021
     16          6           0       -3.642734    1.904685    0.000021
     17          1           0       -3.139524   -0.176975   -0.000040
     18          6           0       -1.838628    3.509473    0.000061
     19          6           0       -3.196176    3.249232    0.000063
     20          1           0       -4.714597    1.700487    0.000016
     21          1           0       -1.438615    4.523745    0.000084
     22          1           0       -3.914443    4.069485    0.000094
     23          6           0       -0.387430    0.000891   -0.000001
     24          8           0        0.353557    2.882766    0.000009
     25          1           0        0.946560    2.105611    0.000003
 ---------------------------------------------------------------------

 SCF Done:  E(RwB97XD) =  -1028.81408762     A.U. after    1 cycles

 Excitation energies and oscillator strengths:

 Excited state symmetry could not be determined.
 Excited State   1:      Singlet-?Sym    3.4730 eV  356.99 nm  f=0.7559  <S**2>=0.000
      59 -> 60         0.69000
 This state for optimization and/or second-order correction.
 Total Energy, E(TD-HF/TD-DFT) =  -1028.68645714
 Copying the excited state density for this state as the 1-particle RhoCI density.

 Excited state symmetry could not be determined.
 Excited State   2:      Singlet-?Sym    4.3827 eV  282.89 nm  f=0.1461  <S**2>=0.000
      57 -> 60         0.39024
      58 -> 60         0.52877
      58 -> 64         0.10370
      59 -> 62        -0.16504

 Excited state symmetry could not be determined.
 Excited State   3:      Singlet-?Sym    4.5218 eV  274.19 nm  f=0.0759  <S**2>=0.000
      57 -> 60         0.49408
      57 -> 64        -0.12865
      58 -> 60        -0.37474
      59 -> 61         0.23259

 Alpha  occ. eigenvalues --  -89.08962 -19.29329 -14.46778 -10.39790 -10.38487
 Alpha  occ. eigenvalues --  -10.34825 -10.34615 -10.33259 -10.32412 -10.32159
 Alpha  occ. eigenvalues --  -10.31970 -10.31348 -10.31142 -10.31082 -10.30601
 Alpha  occ. eigenvalues --  -10.30361  -8.10795  -6.05655  -6.05323  -6.04848
 Alpha  occ. eigenvalues --   -1.17611  -1.07944  -0.96657  -0.95504  -0.91289
 Alpha  occ. eigenvalues --   -0.88743  -0.85146  -0.84267  -0.82149  -0.76025
 Alpha  occ. eigenvalues --   -0.71160  -0.70102  -0.69111  -0.68198  -0.63344
 Alpha  occ. eigenvalues --   -0.59986  -0.58951  -0.58365  -0.55994  -0.54420
 Alpha  occ. eigenvalues --   -0.53362  -0.53140  -0.52614  -0.50745  -0.50522
 Alpha  occ. eigenvalues --   -0.48982  -0.48088  -0.45803  -0.45447  -0.44711
 Alpha  occ. eigenvalues --   -0.43742  -0.42937  -0.42034  -0.39801  -0.37606
 Alpha  occ. eigenvalues --   -0.36391  -0.31992  -0.31631  -0.27887
 Alpha virt. eigenvalues --   -0.01914   0.05300   0.06838   0.07087   0.07104
 Alpha virt. eigenvalues --    0.11359   0.13072   0.15117   0.15935   0.17772
 Alpha virt. eigenvalues --    0.18513   0.20429   0.21654   0.22267   0.22827

 Mulliken charges:
               1
     1  C    0.007087
     2  C   -0.212003
     3  C    0.213021
     4  C   -0.015026
     5  C    0.009058
     6  C   -0.010332
     7  H    0.018437
     8  H    0.013324
     9  H    0.017227
    10  H    0.019868
    11  N   -0.334560
    12  S    0.141166
    13  C   -0.078194
    14  C   -0.016809
    15  C    0.074319
    16  C   -0.008983
    17  H    0.014821
    18  C    0.020726
    19  C    0.019701
    20  H    0.012590
    21  H    0.020463
    22  H    0.022917
    23  C    0.069974
    24  O   -0.177634
    25  H    0.158844
 Sum of Mulliken charges =  -0.00000

 Dipole moment (field-independent basis, Debye):
    X=             -0.4711    Y=             -1.4262    Z=              0.0000  Tot=              1.5020
 Quadrupole moment (field-independent basis, Debye-Ang):
   XX=            -83.0805   YY=            -88.8546   ZZ=           -104.5529
   XY=             -6.6416   XZ=             -0.0001   YZ=              0.0003

  Exact polarizability:     409.949    -201.909     403.507      -0.003       0.004      63.574
 Approx polarizability:     282.336     -37.723     265.066      -0.001       0.002      82.490

                      1                      2                      3
                      A                      A                      A
 Frequencies --     28.4916                74.1469               101.6909
 Red. masses --      5.9217                 5.5021                 5.6268
 Frc consts  --      0.0028                 0.0178                 0.0343
 IR Inten    --      1.0334                 0.0113                 1.8034

                      4                      5                      6
                      A                      A                      A
 Frequencies --    108.4379               184.2645               224.7841
 Red. masses --      4.7660                 6.8861                 5.4998
 Frc consts  --      0.0330                 0.1378                 0.1637
 IR Inten    --      0.4687                 0.8307                 0.0032

                      7                      8                      9
                      A                      A                      A
 Frequencies --    250.9913               267.2420               277.9447
 Red. masses --      8.2453                 4.7973                 6.4779
 Frc consts  --      0.3060                 0.2019                 0.2949
 IR Inten    --     11.5486                 0.1650                16.1734

                     10                     11                     12
                      A                      A                      A
 Frequencies --    390.4346               397.5784               438.9023
 Red. masses --      8.4836                 4.6147                 3.3179
 Frc consts  --      0.7619                 0.4298                 0.3766
 IR Inten    --     13.2238                 0.1106                 4.3135

                     13                     14                     15
                      A                      A                      A
 Frequencies --    481.5175               494.9154               497.2275
 Red. masses --      4.7655                 4.3673                 8.9347
 Frc consts  --      0.6510                 0.6303                 1.3015
 IR Inten    --     19.9483                 0.0152                 0.0415

                     16                     17                     18
                      A                      A                      A
 Frequencies --    509.0365               523.1560               545.6933
 Red. masses --      3.1290                 8.1900                 3.8914
 Frc consts  --      0.4777                 1.3207                 0.6827
 IR Inten    --      0.5590                22.8118                 0.7132

                     19                     20                     21
                      A                      A                      A
 Frequencies --    578.3892               638.8013               650.1947
 Red. masses --      7.7629                 7.2123                 8.0626
 Frc consts  --      1.5301                 1.7340                 2.0082
 IR Inten    --     80.5818                45.8257                15.8594

                     22                     23                     24
                      A                      A                      A
 Frequencies --    702.9242               705.1349               733.1776
 Red. masses --      6.6915                 1.3518                 1.9041
 Frc consts  --      1.9480                 0.3960                 0.6031
 IR Inten    --      9.2482               107.0020                33.8484

                     25                     26                     27
                      A                      A                      A
 Frequencies --    744.6236               752.6952               773.5819
 Red. masses --      2.0033                 1.3741                 2.0459
 Frc consts  --      0.6545                 0.4587                 0.7214
 IR Inten    --     29.0597                 2.6015                63.3241

                     28                     29                     30
                      A                      A                      A
 Frequencies --    798.0385               828.9732               860.0889
 Red. masses --      6.7133                 1.5285                 1.4316
 Frc consts  --      2.5190                 0.6189                 0.6240
 IR Inten    --     21.1825                 0.0043                 1.5401

                     31                     32                     33
                      A                      A                      A
 Frequencies --    882.6040               929.2360               939.9165
 Red. masses --      6.3420                 1.3423                 7.1449
 Frc consts  --      2.9108                 0.6829                 3.7190
 IR Inten    --     56.5290                 2.8334                 7.5003

                     34                     35                     36
                      A                      A                      A
 Frequencies --    954.8919               971.5817              1000.5580
 Red. masses --      1.3418                 1.3376                 1.3012
 Frc consts  --      0.7209                 0.7439                 0.7675
 IR Inten    --      2.0226                 0.0022                 0.0120

                     37                     38                     39
                      A                      A                      A
 Frequencies --   1036.4849              1041.4190              1069.5428
 Red. masses --      2.1434                 2.2530                 5.2255
 Frc consts  --      1.3567                 1.4397                 3.5219
 IR Inten    --      1.4643                 5.0830                25.8921

                     40                     41                     42
                      A                      A                      A
 Frequencies --   1134.4842              1148.0503              1175.4787
 Red. masses --      1.5435                 1.2981                 1.1712
 Frc consts  --      1.1705                 1.0080                 0.9535
 IR Inten    --     29.0421                15.7189                32.8826

                     43                     44                     45
                      A                      A                      A
 Frequencies --   1179.6724              1209.6290              1224.7123
 Red. masses --      1.1702                 5.5733                 1.4445
 Frc consts  --      0.9595                 4.8047                 1.2766
 IR Inten    --      6.7896               103.1667               147.3348

                     46                     47                     48
                      A                      A                      A
 Frequencies --   1271.3270              1275.4910              1354.4387
 Red. masses --      2.5524                 1.6274                 2.8026
 Frc consts  --      2.4306                 1.5599                 3.0292
 IR Inten    --    212.1015                 0.0373                98.4899

                     49                     50                     51
                      A                      A                      A
 Frequencies --   1366.8296              1397.6110              1421.0550
 Red. masses --      5.2706                 1.9573                 2.3882
 Frc consts  --      5.8015                 2.2526                 2.8415
 IR Inten    --     19.1916               161.7779               229.7146

                     52                     53                     54
                      A                      A                      A
 Frequencies --   1460.6007              1472.5263              1520.9756
 Red. masses --      2.0402                 3.1928                 6.1039
 Frc consts  --      2.5644                 4.0790                 8.3196
 IR Inten    --     78.8576                37.8998                73.6732

                     55                     56                     57
                      A                      A                      A
 Frequencies --   1537.5272              1550.9703              1572.0627
 Red. masses --      4.5758                 5.5454                 4.2275
 Frc consts  --      6.3732                 7.8594                 6.1556
 IR Inten    --     19.6762               485.6830                56.0054

                     58                     59                     60
                      A                      A                      A
 Frequencies --   1593.5239              1639.1427              1652.6245
 Red. masses --      5.5040                 5.4904                 5.9265
 Frc consts  --      8.2347                 8.6913                 9.5366
 IR Inten    --    142.8937               344.6175               217.0881

                     61                     62                     63
                      A                      A                      A
 Frequencies --   3204.3279              3207.7049              3217.8452
 Red. masses --      1.0870                 1.0861                 1.0898
 Frc consts  --      6.5757                 6.5846                 6.6487
 IR Inten    --      2.4488                 8.2534                 3.9139

                     64                     65                     66
                      A                      A                      A
 Frequencies --   3218.6656              3226.8600              3229.8003
 Red. masses --      1.0887                 1.0940                 1.0954
 Frc consts  --      6.6453                 6.7115                 6.7324
 IR Inten    --      0.8556                16.9895                14.5823

                     67                     68                     69
                      A                      A                      A
 Frequencies --   3236.3820              3239.4954              3505.1024
 Red. masses --      1.0992                 1.0991                 1.0683
 Frc consts  --      6.7835                 6.7959                 7.7330
 IR Inten    --     41.1274                27.3893                 1.3182

 - Thermochemistry -
 -------------------
 Temperature   298.150 Kelvin.  Pressure   1.00000 Atm.
 Atom     1 has atomic number  6 and mass  12.00000

 Molecular mass:   227.04049 amu.
 Principal axes and moments of inertia in atomic units:
                           1         2         3
     Eigenvalues --  1368.835436401.093807769.92923
           X           -0.69232   0.72159   0.00000
           Y            0.72159   0.69232  -0.00001
           Z            0.00001   0.00000   1.00000
 This molecule is an asymmetric top.
 Rotational symmetry number  1.
 Warning -- assumption of classical behavior for rotation
           may cause significant error
 Rotational temperatures (Kelvin)      0.06328     0.01353     0.01115
 Rotational constants (GHZ):           1.31845     0.28194     0.23227
 Zero-point vibrational energy     489477.4 (Joules/Mol)
                                  116.98790 (Kcal/Mol)
 Warning -- explicit consideration of  19 degrees of freedom as
           vibrations may cause significant error
 Vibrational temperatures:     40.99   106.68   146.31   156.02   265.12
          (Kelvin)            323.41   361.12   384.50   399.90   561.75
                              572.03   631.48   692.80   712.07   715.40
                              732.39   752.70   785.13   832.17   919.09
                              935.49  1011.35  1014.53  1054.88  1071.35
                             1082.96  1113.01  1148.20  1192.71  1237.48
                             1269.87  1336.96  1352.33  1373.88  1397.89
                             1439.58  1491.27  1498.37  1538.83  1632.27
                             1651.79  1691.25  1697.29  1740.39  1762.09
                             1829.16  1835.15  1948.74  1966.56  2010.85
                             2044.58  2101.48  2118.64  2188.34  2212.16
                             2231.50  2261.85  2292.73  2358.36  2377.76
                             4610.31  4615.17  4629.76  4630.94  4642.73
                             4646.96  4656.43  4660.91  5043.06

 Zero-point correction=                           0.186432 (Hartree/Particle)
 Thermal correction to Energy=                    0.198924
 Thermal correction to Enthalpy=                  0.199869
 Thermal correction to Gibbs Free Energy=         0.146651
 Sum of electronic and zero-point Energies=          -1028.500025
 Sum of electronic and thermal Energies=             -1028.487533
 Sum of electronic and thermal Enthalpies=           -1028.486589
 Sum of electronic and thermal Free Energies=        -1028.539807

                     E (Thermal)             CV                S
                      KCal/Mol        Cal/Mol-Kelvin    Cal/Mol-Kelvin
 Total                  124.827             50.055            112.007
 Electronic               0.000              0.000              0.000
 Translational            0.889              2.981             42.162
 Rotational               0.889              2.981             32.587
 Vibrational            123.049             44.094             37.257
 Vibration     1          0.593              1.984              5.932
 Vibration     2          0.599              1.966              4.040
 Vibration     3          0.604              1.948              3.422
 Vibration     4          0.606              1.942              3.297
 Vibration     5          0.631              1.861              2.285
 Vibration     6          0.649              1.803              1.920
 Vibration     7          0.663              1.761              1.724
 Vibration     8          0.672              1.733              1.614
 Vibration     9          0.679              1.714              1.546
 Vibration    10          0.758              1.491              0.998
 Vibration    11          0.764              1.475              0.972
 Vibration    12          0.799              1.385              0.830
 Vibration    13          0.838              1.291              0.706
 Vibration    14          0.851              1.261              0.671
 Vibration    15          0.853              1.256              0.665
 Vibration    16          0.864              1.230              0.636
 Vibration    17          0.878              1.199              0.603
 Vibration    18          0.901              1.149              0.553
 Vibration    19          0.935              1.078              0.488

 Optimization completed.
    -- Stationary point found.
 Normal termination of Gaussian 16 at Mon Jul 13 20:49:53 2020.
