 Gaussian 16, Revision C.01,
 Gaussian 16:  ES64L-G16RevC.01  3-Jul-2019

 ----------------------------------------------------------------------
 #p opt=addgic freq td wb97xd/cc-pvdz nosymm int=ultrafine scrf=(solven
 t=CarbonTetraChloride)
 ----------------------------------------------------------------------

 ------------------------------------------------
 NM 2D-scan of HBT TD-WB97XD pVDZ in CTC Relaxed.
 ------------------------------------------------
 Symbolic Z-matrix:
 Charge =  0 Multiplicity = 1

 SCF Done:  E(RwB97XD) =  -1028.59586123     A.U. after   15 cycles
 Total Energy, E(TD-HF/TD-DFT) =  -1028.46382348
 SCF Done:  E(RwB97XD) =  -1028.77792939     A.U. after   13 cycles
 Total Energy, E(TD-HF/TD-DFT) =  -1028.64773599
 SCF Done:  E(RwB97XD) =  -1028.80333188     A.U. after   15 cycles
 Total Energy, E(TD-HF/TD-DFT) =  -1028.67772149
 SCF Done:  E(RwB97XD) =  -1028.81751450     A.U. after   12 cycles
 Total Energy, E(TD-HF/TD-DFT) =  -1028.69013912
 SCF Done:  E(RwB97XD) =  -1028.81820252     A.U. after   11 cycles
 Total Energy, E(TD-HF/TD-DFT) =  -1028.69029904
 SCF Done:  E(RwB97XD) =  -1028.81836715     A.U. after    9 cycles
 Total Energy, E(TD-HF/TD-DFT) =  -1028.69030923
 Optimization completed.
    -- Stationary point found.
 Normal termination of Gaussian 16 at Mon Jul 13 20:19:20 2020.

 ----------------------------------------------------------------------
 #P Geom=AllCheck Guess=TCheck SCRF=Check GenChk RwB97XD TD(FC,Read)/CC
 -pVDZ Freq
 ----------------------------------------------------------------------

 Structure from the checkpoint file:  "config_1_12.chk"
 ------------------------------------------------
 NM 2D-scan of HBT TD-WB97XD pVDZ in CTC Relaxed.
 ------------------------------------------------
 Charge =  0 Multiplicity = 1

                          Input orientation:
 ---------------------------------------------------------------------
 Center     Atomic      Atomic             Coordinates (Angstroms)
 Number     Number       Type             X           Y           Z
 ---------------------------------------------------------------------
      1          6           0        1.611417   -3.309358   -0.000026
      2          6           0        0.961774   -2.075399   -0.000013
      3          6           0        1.710726   -0.843295   -0.000005
      4          6           0        3.132016   -0.899761   -0.000011
      5          6           0        3.754887   -2.126563   -0.000024
      6          6           0        3.006508   -3.327232   -0.000032
      7          1           0        1.045312   -4.241667   -0.000031
      8          1           0        3.693583    0.034903   -0.000005
      9          1           0        4.845085   -2.179197   -0.000029
     10          1           0        3.528937   -4.285084   -0.000042
     11          7           0        1.005711    0.289272    0.000006
     12         16           0       -0.749595   -1.718087   -0.000004
     13          6           0       -1.308209    1.065151    0.000011
     14          6           0       -2.716086    0.801771    0.000008
     15          6           0       -0.924363    2.491067    0.000027
     16          6           0       -3.642321    1.825177    0.000026
     17          1           0       -3.057215   -0.234924   -0.000007
     18          6           0       -1.890535    3.498293    0.000048
     19          6           0       -3.240542    3.182397    0.000049
     20          1           0       -4.706195    1.583067    0.000024
     21          1           0       -1.535853    4.529291    0.000061
     22          1           0       -3.988753    3.975549    0.000064
     23          6           0       -0.334890    0.048994    0.000005
     24          8           0        0.337004    2.901892    0.000020
     25          1           0        0.928418    2.113799   -0.000001
 ---------------------------------------------------------------------

 SCF Done:  E(RwB97XD) =  -1028.81836715     A.U. after    1 cycles

 Excitation energies and oscillator strengths:

 Excited state symmetry could not be determined.
 Excited State   1:      Singlet-?Sym    3.4846 eV  355.80 nm  f=0.7527  <S**2>=0.000
      59 -> 60         0.68946
 This state for optimization and/or second-order correction.
 Total Energy, E(TD-HF/TD-DFT) =  -1028.69030922
 Copying the excited state density for this state as the 1-particle RhoCI density.

 Excited state symmetry could not be determined.
 Excited State   2:      Singlet-?Sym    4.3849 eV  282.75 nm  f=0.1242  <S**2>=0.000
      57 -> 60         0.46269
      58 -> 60         0.46719
      58 -> 63         0.10040
      59 -> 62        -0.16233

 Excited state symmetry could not be determined.
 Excited State   3:      Singlet-?Sym    4.5328 eV  273.53 nm  f=0.0924  <S**2>=0.000
      57 -> 60         0.43600
      57 -> 63        -0.11723
      58 -> 60        -0.44631
      59 -> 61         0.21892

 Alpha  occ. eigenvalues --  -89.08810 -19.29320 -14.46937 -10.39673 -10.38434
 Alpha  occ. eigenvalues --  -10.34763 -10.34678 -10.33004 -10.32420 -10.32060
 Alpha  occ. eigenvalues --  -10.32059 -10.31306 -10.31199 -10.31105 -10.30633
 Alpha  occ. eigenvalues --  -10.30485  -8.10717  -6.05566  -6.05235  -6.04776
 Alpha  occ. eigenvalues --   -1.17632  -1.07922  -0.96743  -0.95579  -0.91547
 Alpha  occ. eigenvalues --   -0.88755  -0.85179  -0.84378  -0.82148  -0.76015
 Alpha  occ. eigenvalues --   -0.71230  -0.70116  -0.69113  -0.68252  -0.63455
 Alpha  occ. eigenvalues --   -0.60097  -0.58999  -0.58450  -0.56078  -0.54458
 Alpha  occ. eigenvalues --   -0.53466  -0.53244  -0.52728  -0.50637  -0.50570
 Alpha  occ. eigenvalues --   -0.49073  -0.48003  -0.45865  -0.45493  -0.44763
 Alpha  occ. eigenvalues --   -0.43872  -0.42984  -0.42009  -0.39845  -0.37660
 Alpha  occ. eigenvalues --   -0.36410  -0.31949  -0.31677  -0.27967
 Alpha virt. eigenvalues --   -0.01903   0.05307   0.06847   0.07081   0.07399
 Alpha virt. eigenvalues --    0.11326   0.13676   0.15161   0.16240   0.17976
 Alpha virt. eigenvalues --    0.18456   0.20576   0.21602   0.22289   0.22837

 Mulliken charges:
               1
     1  C    0.012158
     2  C   -0.212702
     3  C    0.207457
     4  C   -0.016396
     5  C    0.007569
     6  C   -0.008931
     7  H    0.017314
     8  H    0.013962
     9  H    0.017314
    10  H    0.019664
    11  N   -0.343730
    12  S    0.144461
    13  C   -0.070935
    14  C   -0.021236
    15  C    0.072677
    16  C   -0.007333
    17  H    0.018488
    18  C    0.017611
    19  C    0.020499
    20  H    0.012445
    21  H    0.020677
    22  H    0.023328
    23  C    0.074212
    24  O   -0.181395
    25  H    0.162821
 Sum of Mulliken charges =  -0.00000

 Dipole moment (field-independent basis, Debye):
    X=             -0.6370    Y=             -1.5540    Z=             -0.0000  Tot=              1.6795
 Quadrupole moment (field-independent basis, Debye-Ang):
   XX=            -83.0984   YY=            -88.9988   ZZ=           -104.4728
   XY=             -6.7730   XZ=             -0.0002   YZ=              0.0002

  Exact polarizability:     406.869    -200.200     399.971      -0.003       0.003      63.473
 Approx polarizability:     280.993     -37.607     263.557      -0.001       0.002      82.420

                      1                      2                      3
                      A                      A                      A
 Frequencies --     34.6063                74.7750               105.0342
 Red. masses --      5.9715                 5.2095                 5.6505
 Frc consts  --      0.0042                 0.0172                 0.0367
 IR Inten    --      1.1378                 0.0044                 1.9098

                      4                      5                      6
                      A                      A                      A
 Frequencies --    108.1209               183.3821               224.9347
 Red. masses --      4.9951                 6.8867                 5.4792
 Frc consts  --      0.0344                 0.1365                 0.1633
 IR Inten    --      0.3766                 1.1157                 0.0114

                      7                      8                      9
                      A                      A                      A
 Frequencies --    257.8626               269.5237               283.3820
 Red. masses --      8.1682                 4.8230                 6.5326
 Frc consts  --      0.3200                 0.2064                 0.3091
 IR Inten    --     14.2824                 0.0826                14.4374

                     10                     11                     12
                      A                      A                      A
 Frequencies --    395.9222               396.0265               439.2671
 Red. masses --      4.5434                 8.7249                 3.3144
 Frc consts  --      0.4196                 0.8062                 0.3768
 IR Inten    --      0.0772                13.2378                 4.0626

                     13                     14                     15
                      A                      A                      A
 Frequencies --    491.8475               494.3619               502.3205
 Red. masses --      5.7142                 4.3832                 6.8946
 Frc consts  --      0.8145                 0.6312                 1.0250
 IR Inten    --     18.4773                 0.1333                 7.1085

                     16                     17                     18
                      A                      A                      A
 Frequencies --    509.8017               523.8613               548.4033
 Red. masses --      3.1475                 8.1355                 3.9804
 Frc consts  --      0.4820                 1.3154                 0.7053
 IR Inten    --      0.3445                20.4994                 0.3554

                     19                     20                     21
                      A                      A                      A
 Frequencies --    577.3091               643.1514               662.1082
 Red. masses --      7.7316                 6.5538                 9.7899
 Frc consts  --      1.5182                 1.5972                 2.5286
 IR Inten    --     67.7374                14.1049                53.0039

                     22                     23                     24
                      A                      A                      A
 Frequencies --    707.6547               720.0109               734.7110
 Red. masses --      6.6468                 1.6753                 1.8423
 Frc consts  --      1.9611                 0.5117                 0.5859
 IR Inten    --     10.6452                68.6986                43.6189

                     25                     26                     27
                      A                      A                      A
 Frequencies --    742.3032               772.9853               795.3247
 Red. masses --      1.8385                 2.1073                 1.2691
 Frc consts  --      0.5969                 0.7419                 0.4730
 IR Inten    --     17.4550                46.1571                58.0634

                     28                     29                     30
                      A                      A                      A
 Frequencies --    806.0395               826.7480               860.5773
 Red. masses --      6.5560                 1.4383                 1.4306
 Frc consts  --      2.5096                 0.5792                 0.6243
 IR Inten    --     22.1566                 2.2128                 1.6804

                     31                     32                     33
                      A                      A                      A
 Frequencies --    881.8833               926.0828               945.8058
 Red. masses --      6.3370                 1.3435                 7.2120
 Frc consts  --      2.9037                 0.6789                 3.8011
 IR Inten    --     62.0575                 2.3136                 7.1269

                     34                     35                     36
                      A                      A                      A
 Frequencies --    954.6952               971.0089               999.9011
 Red. masses --      1.3419                 1.3393                 1.3030
 Frc consts  --      0.7206                 0.7440                 0.7675
 IR Inten    --      2.0348                 0.0282                 0.0009

                     37                     38                     39
                      A                      A                      A
 Frequencies --   1037.2059              1042.9858              1075.2196
 Red. masses --      2.1034                 2.2108                 5.1303
 Frc consts  --      1.3332                 1.4170                 3.4945
 IR Inten    --      1.1446                 4.9836                32.2562

                     40                     41                     42
                      A                      A                      A
 Frequencies --   1136.9716              1149.1603              1176.1495
 Red. masses --      1.5054                 1.3081                 1.1803
 Frc consts  --      1.1466                 1.0177                 0.9620
 IR Inten    --     39.3623                15.5117                29.1208

                     43                     44                     45
                      A                      A                      A
 Frequencies --   1180.8410              1208.2536              1232.2710
 Red. masses --      1.1873                 5.7720                 1.5171
 Frc consts  --      0.9754                 4.9647                 1.3573
 IR Inten    --     13.2135                54.0233               174.1053

                     46                     47                     48
                      A                      A                      A
 Frequencies --   1275.0042              1295.2535              1357.1433
 Red. masses --      1.6563                 2.6878                 2.9208
 Frc consts  --      1.5864                 2.6568                 3.1696
 IR Inten    --      2.5039               217.9971                91.5309

                     49                     50                     51
                      A                      A                      A
 Frequencies --   1369.7980              1398.8732              1430.1317
 Red. masses --      5.4100                 1.9125                 2.5218
 Frc consts  --      5.9808                 2.2050                 3.0388
 IR Inten    --     19.1929                35.5331               273.9739

                     52                     53                     54
                      A                      A                      A
 Frequencies --   1471.6965              1476.8691              1512.6106
 Red. masses --      3.2389                 1.9630                 5.1228
 Frc consts  --      4.1332                 2.5227                 6.9058
 IR Inten    --     61.6202               146.5565                29.1676

                     55                     56                     57
                      A                      A                      A
 Frequencies --   1539.7209              1563.8662              1579.1215
 Red. masses --      4.6876                 5.4486                 3.6906
 Frc consts  --      6.5477                 7.8511                 5.4223
 IR Inten    --     34.8281               352.9720               220.7853

                     58                     59                     60
                      A                      A                      A
 Frequencies --   1596.2909              1634.7698              1648.8744
 Red. masses --      5.2370                 5.3883                 5.7816
 Frc consts  --      7.8624                 8.4843                 9.2614
 IR Inten    --    121.7902               330.5405               239.8352

                     61                     62                     63
                      A                      A                      A
 Frequencies --   3208.1043              3208.7739              3219.3133
 Red. masses --      1.0862                 1.0862                 1.0899
 Frc consts  --      6.5867                 6.5891                 6.6550
 IR Inten    --      5.3520                 7.9160                 3.9702

                     64                     65                     66
                      A                      A                      A
 Frequencies --   3220.8505              3228.7449              3231.6441
 Red. masses --      1.0894                 1.0941                 1.0955
 Frc consts  --      6.6587                 6.7198                 6.7410
 IR Inten    --      0.7634                16.7486                14.3905

                     67                     68                     69
                      A                      A                      A
 Frequencies --   3237.7332              3241.0686              3384.3916
 Red. masses --      1.0988                 1.0988                 1.0690
 Frc consts  --      6.7863                 6.8004                 7.2141
 IR Inten    --     39.8106                26.5958                 3.6846

 - Thermochemistry -
 -------------------
 Temperature   298.150 Kelvin.  Pressure   1.00000 Atm.
 Atom     1 has atomic number  6 and mass  12.00000

 Molecular mass:   227.04049 amu.
 Principal axes and moments of inertia in atomic units:
                           1         2         3
     Eigenvalues --  1345.169646388.067007733.23663
           X           -0.69435   0.71964   0.00000
           Y            0.71964   0.69435  -0.00001
           Z            0.00001   0.00000   1.00000
 This molecule is an asymmetric top.
 Rotational symmetry number  1.
 Warning -- assumption of classical behavior for rotation
           may cause significant error
 Rotational temperatures (Kelvin)      0.06439     0.01356     0.01120
 Rotational constants (GHZ):           1.34165     0.28252     0.23337
 Zero-point vibrational energy     490118.7 (Joules/Mol)
                                  117.14117 (Kcal/Mol)
 Warning -- explicit consideration of  19 degrees of freedom as
           vibrations may cause significant error
 Vibrational temperatures:     49.79   107.58   151.12   155.56   263.85
          (Kelvin)            323.63   371.01   387.78   407.72   569.64
                              569.79   632.01   707.66   711.28   722.73
                              733.49   753.72   789.03   830.62   925.35
                              952.63  1018.16  1035.94  1057.09  1068.01
                             1112.15  1144.29  1159.71  1189.51  1238.18
                             1268.83  1332.43  1360.80  1373.59  1397.07
                             1438.63  1492.31  1500.62  1547.00  1635.85
                             1653.39  1692.22  1698.97  1738.41  1772.96
                             1834.45  1863.58  1952.63  1970.83  2012.67
                             2057.64  2117.44  2124.89  2176.31  2215.31
                             2250.05  2272.00  2296.71  2352.07  2372.36
                             4615.75  4616.71  4631.87  4634.09  4645.44
                             4649.62  4658.38  4663.17  4869.38

 Zero-point correction=                           0.186676 (Hartree/Particle)
 Thermal correction to Energy=                    0.199078
 Thermal correction to Enthalpy=                  0.200022
 Thermal correction to Gibbs Free Energy=         0.147151
 Sum of electronic and zero-point Energies=          -1028.503633
 Sum of electronic and thermal Energies=             -1028.491231
 Sum of electronic and thermal Enthalpies=           -1028.490287
 Sum of electronic and thermal Free Energies=        -1028.543158

                     E (Thermal)             CV                S
                      KCal/Mol        Cal/Mol-Kelvin    Cal/Mol-Kelvin
 Total                  124.923             49.786            111.277
 Electronic               0.000              0.000              0.000
 Translational            0.889              2.981             42.162
 Rotational               0.889              2.981             32.563
 Vibrational            123.146             43.825             36.551
 Vibration     1          0.594              1.983              5.546
 Vibration     2          0.599              1.966              4.024
 Vibration     3          0.605              1.945              3.359
 Vibration     4          0.606              1.943              3.302
 Vibration     5          0.631              1.862              2.294
 Vibration     6          0.650              1.803              1.919
 Vibration     7          0.667              1.749              1.676
 Vibration     8          0.674              1.729              1.599
 Vibration     9          0.682              1.704              1.513
 Vibration    10          0.763              1.479              0.978
 Vibration    11          0.763              1.479              0.977
 Vibration    12          0.799              1.385              0.829
 Vibration    13          0.848              1.268              0.679
 Vibration    14          0.850              1.263              0.672
 Vibration    15          0.858              1.245              0.652
 Vibration    16          0.865              1.228              0.634
 Vibration    17          0.879              1.197              0.601
 Vibration    18          0.904              1.143              0.547
 Vibration    19          0.934              1.080              0.490

 Optimization completed.
    -- Stationary point found.
 Normal termination of Gaussian 16 at Mon Jul 13 20:36:32 2020.
