 Gaussian 16, Revision C.01,
 Gaussian 16:  ES64L-G16RevC.01  3-Jul-2019

 ----------------------------------------------------------------------
 #p opt=addgic freq td wb97xd/cc-pvdz nosymm int=ultrafine scrf=(solven
 t=CarbonTetraChloride)
 ----------------------------------------------------------------------

 ------------------------------------------------
 NM 2D-scan of HBT TD-WB97XD pVDZ in CTC Relaxed.
 ------------------------------------------------
 Symbolic Z-matrix:
 Charge =  0 Multiplicity = 1

 SCF Done:  E(RwB97XD) =  -1028.73709637     A.U. after   15 cycles
 Total Energy, E(TD-HF/TD-DFT) =  -1028.60635609
 SCF Done:  E(RwB97XD) =  -1028.80626898     A.U. after   13 cycles
 Total Energy, E(TD-HF/TD-DFT) =  -1028.67757949
 SCF Done:  E(RwB97XD) =  -1028.81025521     A.U. after   13 cycles
 Total Energy, E(TD-HF/TD-DFT) =  -1028.68275266
 SCF Done:  E(RwB97XD) =  -1028.81028498     A.U. after   12 cycles
 Total Energy, E(TD-HF/TD-DFT) =  -1028.68394025
 SCF Done:  E(RwB97XD) =  -1028.81102616     A.U. after   11 cycles
 Total Energy, E(TD-HF/TD-DFT) =  -1028.68436716
 SCF Done:  E(RwB97XD) =  -1028.81111882     A.U. after    9 cycles
 Total Energy, E(TD-HF/TD-DFT) =  -1028.68437319
 SCF Done:  E(RwB97XD) =  -1028.81115134     A.U. after    8 cycles
 Total Energy, E(TD-HF/TD-DFT) =  -1028.68437403
 SCF Done:  E(RwB97XD) =  -1028.81115386     A.U. after    7 cycles
 Total Energy, E(TD-HF/TD-DFT) =  -1028.68437420
 Optimization completed.
    -- Stationary point found.
 Normal termination of Gaussian 16 at Mon Jul 13 17:30:47 2020.

 ----------------------------------------------------------------------
 #P Geom=AllCheck Guess=TCheck SCRF=Check GenChk RwB97XD TD(FC,Read)/CC
 -pVDZ Freq
 ----------------------------------------------------------------------

 Structure from the checkpoint file:  "config_3_2.chk"
 ------------------------------------------------
 NM 2D-scan of HBT TD-WB97XD pVDZ in CTC Relaxed.
 ------------------------------------------------
 Charge =  0 Multiplicity = 1

                          Input orientation:
 ---------------------------------------------------------------------
 Center     Atomic      Atomic             Coordinates (Angstroms)
 Number     Number       Type             X           Y           Z
 ---------------------------------------------------------------------
      1          6           0        1.751001   -3.301346   -0.000023
      2          6           0        0.975714   -2.138679   -0.000011
      3          6           0        1.631327   -0.861962   -0.000008
      4          6           0        3.047116   -0.767535   -0.000015
      5          6           0        3.789607   -1.922528   -0.000030
      6          6           0        3.147117   -3.181601   -0.000033
      7          1           0        1.289894   -4.290007   -0.000027
      8          1           0        3.501129    0.223938   -0.000010
      9          1           0        4.879906   -1.874166   -0.000037
     10          1           0        3.753002   -4.089218   -0.000044
     11          7           0        0.856372    0.213163    0.000005
     12         16           0       -0.774251   -1.883700   -0.000007
     13          6           0       -1.394939    1.006951    0.000003
     14          6           0       -2.820245    0.903670   -0.000014
     15          6           0       -0.882253    2.409636    0.000025
     16          6           0       -3.636594    2.025358    0.000017
     17          1           0       -3.273736   -0.089139   -0.000044
     18          6           0       -1.742626    3.512873    0.000063
     19          6           0       -3.112795    3.341784    0.000062
     20          1           0       -4.719197    1.887443    0.000007
     21          1           0       -1.272986    4.496780    0.000086
     22          1           0       -3.780430    4.203497    0.000090
     23          6           0       -0.470180   -0.070509    0.000006
     24          8           0        0.398246    2.736925    0.000016
     25          1           0        0.918160    1.890163    0.000020
 ---------------------------------------------------------------------

 SCF Done:  E(RwB97XD) =  -1028.81115386     A.U. after    1 cycles

 Excitation energies and oscillator strengths:

 Excited state symmetry could not be determined.
 Excited State   1:      Singlet-?Sym    3.4498 eV  359.39 nm  f=0.6965  <S**2>=0.000
      59 -> 60         0.69021
 This state for optimization and/or second-order correction.
 Total Energy, E(TD-HF/TD-DFT) =  -1028.68437421
 Copying the excited state density for this state as the 1-particle RhoCI density.

 Excited state symmetry could not be determined.
 Excited State   2:      Singlet-?Sym    4.3772 eV  283.25 nm  f=0.2363  <S**2>=0.000
      57 -> 60        -0.22093
      58 -> 60        -0.62304
      59 -> 63         0.17298

 Excited state symmetry could not be determined.
 Excited State   3:      Singlet-?Sym    4.5577 eV  272.03 nm  f=0.0438  <S**2>=0.000
      57 -> 60         0.57516
      57 -> 64        -0.12771
      58 -> 60        -0.20851
      58 -> 61        -0.12639
      59 -> 61         0.24867

 Alpha  occ. eigenvalues --  -89.09291 -19.28557 -14.46767 -10.40102 -10.38282
 Alpha  occ. eigenvalues --  -10.35050 -10.34689 -10.33260 -10.32374 -10.32330
 Alpha  occ. eigenvalues --  -10.31828 -10.31489 -10.31282 -10.31222 -10.30435
 Alpha  occ. eigenvalues --  -10.30130  -8.11078  -6.05949  -6.05609  -6.05122
 Alpha  occ. eigenvalues --   -1.17293  -1.08278  -0.96576  -0.95475  -0.91224
 Alpha  occ. eigenvalues --   -0.88777  -0.84872  -0.84280  -0.82280  -0.75993
 Alpha  occ. eigenvalues --   -0.70979  -0.70157  -0.69056  -0.68213  -0.63216
 Alpha  occ. eigenvalues --   -0.60178  -0.58827  -0.58446  -0.55785  -0.54368
 Alpha  occ. eigenvalues --   -0.53537  -0.53009  -0.52598  -0.51037  -0.50371
 Alpha  occ. eigenvalues --   -0.49189  -0.48025  -0.45802  -0.45478  -0.44662
 Alpha  occ. eigenvalues --   -0.43615  -0.42836  -0.42253  -0.39889  -0.37288
 Alpha  occ. eigenvalues --   -0.36410  -0.32198  -0.31408  -0.27853
 Alpha virt. eigenvalues --   -0.01872   0.05131   0.06891   0.07033   0.07094
 Alpha virt. eigenvalues --    0.11183   0.12379   0.15093   0.15750   0.17794
 Alpha virt. eigenvalues --    0.18610   0.20668   0.21696   0.22277   0.22711

 Mulliken charges:
               1
     1  C    0.003651
     2  C   -0.220666
     3  C    0.238912
     4  C   -0.015384
     5  C    0.010569
     6  C   -0.010032
     7  H    0.020087
     8  H    0.016115
     9  H    0.018376
    10  H    0.020769
    11  N   -0.344820
    12  S    0.147388
    13  C   -0.101106
    14  C   -0.013512
    15  C    0.087740
    16  C   -0.015246
    17  H    0.010201
    18  C    0.016514
    19  C    0.021232
    20  H    0.011906
    21  H    0.018802
    22  H    0.021993
    23  C    0.077765
    24  O   -0.188456
    25  H    0.167203
 Sum of Mulliken charges =  -0.00000

 Dipole moment (field-independent basis, Debye):
    X=             -0.1940    Y=             -1.7038    Z=              0.0000  Tot=              1.7148
 Quadrupole moment (field-independent basis, Debye-Ang):
   XX=            -83.1969   YY=            -88.9600   ZZ=           -104.5721
   XY=             -6.7972   XZ=             -0.0001   YZ=              0.0003

  Exact polarizability:     407.255    -195.047     391.994      -0.002       0.004      63.625
 Approx polarizability:     281.785     -36.901     264.788      -0.001       0.002      82.560

                      1                      2                      3
                      A                      A                      A
 Frequencies --     28.7735                56.4547               107.0404
 Red. masses --      5.8817                 6.3554                 4.5239
 Frc consts  --      0.0029                 0.0119                 0.0305
 IR Inten    --      1.2966                 0.0191                 0.3780

                      4                      5                      6
                      A                      A                      A
 Frequencies --    110.2076               181.3490               223.7174
 Red. masses --      5.6409                 6.5569                 5.3782
 Frc consts  --      0.0404                 0.1271                 0.1586
 IR Inten    --      2.1159                 0.7725                 0.0008

                      7                      8                      9
                      A                      A                      A
 Frequencies --    261.5995               265.6294               290.2403
 Red. masses --      8.0989                 4.8105                 6.6288
 Frc consts  --      0.3266                 0.2000                 0.3290
 IR Inten    --     20.5487                 0.2431                 8.2365

                     10                     11                     12
                      A                      A                      A
 Frequencies --    387.2656               394.4395               437.1213
 Red. masses --      8.6888                 4.7315                 3.2537
 Frc consts  --      0.7678                 0.4337                 0.3663
 IR Inten    --     13.2792                 0.2329                 4.7389

                     13                     14                     15
                      A                      A                      A
 Frequencies --    488.6959               492.5642               499.6633
 Red. masses --      4.9455                 4.5203                 8.1917
 Frc consts  --      0.6959                 0.6462                 1.2050
 IR Inten    --     27.4621                 0.2027                 1.4534

                     16                     17                     18
                      A                      A                      A
 Frequencies --    502.7792               524.6746               547.1096
 Red. masses --      3.1358                 8.0013                 3.9264
 Frc consts  --      0.4670                 1.2978                 0.6925
 IR Inten    --      0.1503                21.3960                 0.2217

                     19                     20                     21
                      A                      A                      A
 Frequencies --    578.8463               633.6178               659.9328
 Red. masses --      7.7366                 7.1815                 7.9536
 Frc consts  --      1.5273                 1.6987                 2.0409
 IR Inten    --     61.2467                61.1536                 7.6668

                     22                     23                     24
                      A                      A                      A
 Frequencies --    702.6760               714.2946               731.8591
 Red. masses --      7.0061                 1.9062                 1.8782
 Frc consts  --      2.0382                 0.5730                 0.5927
 IR Inten    --      9.6591                41.5570                29.4655

                     25                     26                     27
                      A                      A                      A
 Frequencies --    750.7486               770.3043               795.7894
 Red. masses --      1.7806                 2.0438                 6.7180
 Frc consts  --      0.5913                 0.7145                 2.5066
 IR Inten    --     32.7625                52.4691                17.1343

                     28                     29                     30
                      A                      A                      A
 Frequencies --    827.4943               855.8721               881.8488
 Red. masses --      1.5999                 1.4197                 1.0938
 Frc consts  --      0.6455                 0.6127                 0.5011
 IR Inten    --      3.3902                 0.0116                70.4158

                     31                     32                     33
                      A                      A                      A
 Frequencies --    888.7972               927.0778               945.5172
 Red. masses --      6.3538                 1.3367                 7.0718
 Frc consts  --      2.9573                 0.6769                 3.7250
 IR Inten    --     45.1472                 0.7159                10.1367

                     34                     35                     36
                      A                      A                      A
 Frequencies --    951.3105               967.0197               998.0301
 Red. masses --      1.3453                 1.3486                 1.3009
 Frc consts  --      0.7173                 0.7430                 0.7634
 IR Inten    --      2.0246                 0.0544                 0.0025

                     37                     38                     39
                      A                      A                      A
 Frequencies --   1036.0275              1038.4363              1064.1336
 Red. masses --      2.1901                 2.2631                 4.9014
 Frc consts  --      1.3850                 1.4378                 3.2701
 IR Inten    --      2.2228                 2.5581                31.2358

                     40                     41                     42
                      A                      A                      A
 Frequencies --   1133.0519              1146.0942              1174.1326
 Red. masses --      1.5141                 1.2987                 1.1557
 Frc consts  --      1.1453                 1.0051                 0.9387
 IR Inten    --     45.4056                15.5109                14.2081

                     43                     44                     45
                      A                      A                      A
 Frequencies --   1176.7001              1221.8569              1235.7695
 Red. masses --      1.1684                 4.0667                 1.8645
 Frc consts  --      0.9532                 3.5771                 1.6776
 IR Inten    --     17.9522               178.8413                89.1003

                     46                     47                     48
                      A                      A                      A
 Frequencies --   1274.1941              1279.4310              1360.5085
 Red. masses --      1.7830                 2.3157                 3.0287
 Frc consts  --      1.7055                 2.2334                 3.3030
 IR Inten    --     76.0876               189.0194                88.5587

                     49                     50                     51
                      A                      A                      A
 Frequencies --   1370.1362              1402.8664              1433.1813
 Red. masses --      4.7867                 2.0400                 2.4248
 Frc consts  --      5.2943                 2.3654                 2.9345
 IR Inten    --     21.4132                25.1550               211.8607

                     52                     53                     54
                      A                      A                      A
 Frequencies --   1472.5121              1478.1090              1518.9612
 Red. masses --      2.7510                 2.1349                 6.4770
 Frc consts  --      3.5144                 2.7482                 8.8048
 IR Inten    --     88.3522               145.7646               278.8141

                     55                     56                     57
                      A                      A                      A
 Frequencies --   1525.6960              1546.2873              1573.3929
 Red. masses --      5.6990                 4.9651                 3.0102
 Frc consts  --      7.8160                 6.9945                 4.3906
 IR Inten    --    410.3163               204.7316               148.7649

                     58                     59                     60
                      A                      A                      A
 Frequencies --   1601.9267              1634.3197              1654.5686
 Red. masses --      4.8083                 5.5350                 5.9968
 Frc consts  --      7.2699                 8.7104                 9.6725
 IR Inten    --     45.1031               414.7792               176.2975

                     61                     62                     63
                      A                      A                      A
 Frequencies --   3173.8218              3203.4156              3207.1840
 Red. masses --      1.0704                 1.0867                 1.0857
 Frc consts  --      6.3529                 6.5703                 6.5797
 IR Inten    --     47.9609                 5.0436                 5.4264

                     64                     65                     66
                      A                      A                      A
 Frequencies --   3215.6721              3217.4799              3225.9453
 Red. masses --      1.0897                 1.0902                 1.0927
 Frc consts  --      6.6390                 6.6495                 6.6998
 IR Inten    --      4.3208                 3.0567                20.8178

                     67                     68                     69
                      A                      A                      A
 Frequencies --   3226.4765              3234.4392              3239.3900
 Red. masses --      1.0952                 1.0998                 1.0991
 Frc consts  --      6.7174                 6.7789                 6.7953
 IR Inten    --     13.0315                39.1279                25.6433

 - Thermochemistry -
 -------------------
 Temperature   298.150 Kelvin.  Pressure   1.00000 Atm.
 Atom     1 has atomic number  6 and mass  12.00000

 Molecular mass:   227.04049 amu.
 Principal axes and moments of inertia in atomic units:
                           1         2         3
     Eigenvalues --  1377.961986364.299117742.26108
           X           -0.69446   0.71953   0.00000
           Y            0.71953   0.69446  -0.00001
           Z            0.00001   0.00001   1.00000
 This molecule is an asymmetric top.
 Rotational symmetry number  1.
 Warning -- assumption of classical behavior for rotation
           may cause significant error
 Rotational temperatures (Kelvin)      0.06286     0.01361     0.01119
 Rotational constants (GHZ):           1.30972     0.28357     0.23310
 Zero-point vibrational energy     488533.8 (Joules/Mol)
                                  116.76239 (Kcal/Mol)
 Warning -- explicit consideration of  19 degrees of freedom as
           vibrations may cause significant error
 Vibrational temperatures:     41.40    81.23   154.01   158.56   260.92
          (Kelvin)            321.88   376.38   382.18   417.59   557.19
                              567.51   628.92   703.12   708.69   718.90
                              723.39   754.89   787.17   832.83   911.63
                              949.50  1010.99  1027.71  1052.98  1080.16
                             1108.30  1144.96  1190.58  1231.41  1268.78
                             1278.78  1333.86  1360.39  1368.72  1391.33
                             1435.94  1490.61  1494.08  1531.05  1630.21
                             1648.97  1689.31  1693.01  1757.98  1778.00
                             1833.28  1840.82  1957.47  1971.32  2018.41
                             2062.03  2118.62  2126.67  2185.45  2195.14
                             2224.76  2263.76  2304.82  2351.42  2380.56
                             4566.42  4609.00  4614.42  4626.63  4629.24
                             4641.42  4642.18  4653.64  4660.76

 Zero-point correction=                           0.186073 (Hartree/Particle)
 Thermal correction to Energy=                    0.198529
 Thermal correction to Enthalpy=                  0.199473
 Thermal correction to Gibbs Free Energy=         0.146165
 Sum of electronic and zero-point Energies=          -1028.498301
 Sum of electronic and thermal Energies=             -1028.485846
 Sum of electronic and thermal Enthalpies=           -1028.484901
 Sum of electronic and thermal Free Energies=        -1028.538210

                     E (Thermal)             CV                S
                      KCal/Mol        Cal/Mol-Kelvin    Cal/Mol-Kelvin
 Total                  124.579             49.795            112.197
 Electronic               0.000              0.000              0.000
 Translational            0.889              2.981             42.162
 Rotational               0.889              2.981             32.585
 Vibrational            122.801             43.834             37.450
 Vibration     1          0.593              1.984              5.912
 Vibration     2          0.596              1.975              4.577
 Vibration     3          0.606              1.944              3.322
 Vibration     4          0.606              1.941              3.265
 Vibration     5          0.630              1.865              2.314
 Vibration     6          0.649              1.805              1.929
 Vibration     7          0.669              1.743              1.651
 Vibration     8          0.671              1.736              1.624
 Vibration     9          0.686              1.692              1.473
 Vibration    10          0.756              1.497              1.011
 Vibration    11          0.761              1.482              0.983
 Vibration    12          0.797              1.389              0.836
 Vibration    13          0.845              1.275              0.687
 Vibration    14          0.848              1.267              0.677
 Vibration    15          0.855              1.251              0.659
 Vibration    16          0.858              1.244              0.651
 Vibration    17          0.880              1.195              0.599
 Vibration    18          0.902              1.146              0.550
 Vibration    19          0.935              1.077              0.488

 Optimization completed.
    -- Stationary point found.
 Normal termination of Gaussian 16 at Mon Jul 13 17:48:12 2020.
