 Gaussian 16, Revision C.01,
 Gaussian 16:  ES64L-G16RevC.01  3-Jul-2019

 ----------------------------------------------------------------------
 #p opt=addgic freq td wb97xd/cc-pvdz nosymm int=ultrafine scrf=(solven
 t=CarbonTetraChloride)
 ----------------------------------------------------------------------

 ------------------------------------------------
 NM 2D-scan of HBT TD-WB97XD pVDZ in CTC Relaxed.
 ------------------------------------------------
 Symbolic Z-matrix:
 Charge =  0 Multiplicity = 1

 SCF Done:  E(RwB97XD) =  -1028.80833519     A.U. after   15 cycles
 Total Energy, E(TD-HF/TD-DFT) =  -1028.68978304
 SCF Done:  E(RwB97XD) =  -1028.80864897     A.U. after   11 cycles
 Total Energy, E(TD-HF/TD-DFT) =  -1028.68988479
 Optimization completed.
    -- Stationary point found.
 Normal termination of Gaussian 16 at Mon Jul 13 14:52:49 2020.

 ----------------------------------------------------------------------
 #P Geom=AllCheck Guess=TCheck SCRF=Check GenChk RwB97XD TD(FC,Read)/CC
 -pVDZ Freq
 ----------------------------------------------------------------------

 Structure from the checkpoint file:  "config_7_2.chk"
 ------------------------------------------------
 NM 2D-scan of HBT TD-WB97XD pVDZ in CTC Relaxed.
 ------------------------------------------------
 Charge =  0 Multiplicity = 1

                          Input orientation:
 ---------------------------------------------------------------------
 Center     Atomic      Atomic             Coordinates (Angstroms)
 Number     Number       Type             X           Y           Z
 ---------------------------------------------------------------------
      1          6           0        1.748921   -3.269235   -0.000026
      2          6           0        1.003828   -2.090505   -0.000016
      3          6           0        1.662625   -0.831142   -0.000013
      4          6           0        3.068655   -0.753722   -0.000016
      5          6           0        3.793399   -1.929927   -0.000025
      6          6           0        3.143736   -3.177145   -0.000031
      7          1           0        1.260427   -4.244230   -0.000030
      8          1           0        3.550622    0.224168   -0.000012
      9          1           0        4.883930   -1.891614   -0.000028
     10          1           0        3.736636   -4.092643   -0.000039
     11          7           0        0.837503    0.229773   -0.000008
     12         16           0       -0.749064   -1.845586   -0.000008
     13          6           0       -1.420216    1.000409    0.000004
     14          6           0       -2.820409    0.893989   -0.000011
     15          6           0       -0.859928    2.384844    0.000032
     16          6           0       -3.639063    2.035751    0.000017
     17          1           0       -3.284378   -0.094011   -0.000042
     18          6           0       -1.726303    3.501308    0.000063
     19          6           0       -3.104961    3.337452    0.000059
     20          1           0       -4.722019    1.901772    0.000008
     21          1           0       -1.254157    4.484077    0.000088
     22          1           0       -3.766508    4.203639    0.000084
     23          6           0       -0.483507   -0.077494   -0.000005
     24          8           0        0.412088    2.593223    0.000028
     25          1           0        0.901520    1.481579    0.000009
 ---------------------------------------------------------------------

 SCF Done:  E(RwB97XD) =  -1028.80864897     A.U. after    1 cycles

 Excitation energies and oscillator strengths:

 Excited state symmetry could not be determined.
 Excited State   1:      Singlet-?Sym    3.2317 eV  383.65 nm  f=0.4935  <S**2>=0.000
      59 -> 60         0.69346
 This state for optimization and/or second-order correction.
 Total Energy, E(TD-HF/TD-DFT) =  -1028.68988481
 Copying the excited state density for this state as the 1-particle RhoCI density.

 Excited state symmetry could not be determined.
 Excited State   2:      Singlet-?Sym    4.3739 eV  283.46 nm  f=0.4011  <S**2>=0.000
      57 -> 60        -0.11493
      58 -> 60         0.66856
      59 -> 64         0.10125

 Excited state symmetry could not be determined.
 Excited State   3:      Singlet-?Sym    4.5482 eV  272.60 nm  f=0.0000  <S**2>=0.000
      56 -> 60         0.68851
      56 -> 64        -0.10253

 Alpha  occ. eigenvalues --  -89.10038 -19.24670 -14.48910 -10.41044 -10.37192
 Alpha  occ. eigenvalues --  -10.35990 -10.35651 -10.32887 -10.32114 -10.32036
 Alpha  occ. eigenvalues --  -10.31938 -10.31919 -10.31869 -10.31351 -10.29770
 Alpha  occ. eigenvalues --  -10.29276  -8.11917  -6.06790  -6.06433  -6.05952
 Alpha  occ. eigenvalues --   -1.14100  -1.09701  -0.97301  -0.95169  -0.92321
 Alpha  occ. eigenvalues --   -0.88964  -0.85521  -0.83927  -0.82049  -0.75931
 Alpha  occ. eigenvalues --   -0.71461  -0.70666  -0.68560  -0.68257  -0.63587
 Alpha  occ. eigenvalues --   -0.60792  -0.59204  -0.57767  -0.55399  -0.54679
 Alpha  occ. eigenvalues --   -0.54312  -0.53393  -0.52502  -0.51235  -0.49939
 Alpha  occ. eigenvalues --   -0.49515  -0.47470  -0.46343  -0.45470  -0.44998
 Alpha  occ. eigenvalues --   -0.43944  -0.42993  -0.42055  -0.40616  -0.36591
 Alpha  occ. eigenvalues --   -0.34927  -0.32883  -0.31171  -0.27265
 Alpha virt. eigenvalues --   -0.01829   0.04442   0.06691   0.06714   0.08116
 Alpha virt. eigenvalues --    0.10599   0.12702   0.14928   0.15981   0.17757
 Alpha virt. eigenvalues --    0.18872   0.20715   0.21540   0.22093   0.22635

 Mulliken charges:
               1
     1  C    0.010558
     2  C   -0.237504
     3  C    0.276195
     4  C   -0.014109
     5  C    0.011986
     6  C   -0.004087
     7  H    0.022847
     8  H    0.025574
     9  H    0.022930
    10  H    0.023541
    11  N   -0.287419
    12  S    0.179404
    13  C   -0.122912
    14  C   -0.017437
    15  C    0.120328
    16  C   -0.029143
    17  H    0.005274
    18  C   -0.005266
    19  C    0.029256
    20  H    0.006699
    21  H    0.010244
    22  H    0.018382
    23  C    0.073640
    24  O   -0.335006
    25  H    0.216026
 Sum of Mulliken charges =  -0.00000

 Dipole moment (field-independent basis, Debye):
    X=              0.6319    Y=             -3.5851    Z=             -0.0000  Tot=              3.6404
 Quadrupole moment (field-independent basis, Debye-Ang):
   XX=            -83.2897   YY=            -91.3418   ZZ=           -104.3555
   XY=             -6.8534   XZ=             -0.0001   YZ=              0.0002

  Exact polarizability:     364.742    -144.358     325.235      -0.002       0.003      63.400
 Approx polarizability:     275.828     -35.536     263.978      -0.001       0.002      82.379

 ******    2 imaginary frequencies (negative Signs) ******

                      1                      2                      3
                      A                      A                      A
 Frequencies --   -963.0435               -28.7012                40.3821
 Red. masses --      1.0911                 7.1683                 6.5524
 Frc consts  --      0.5962                 0.0035                 0.0063
 IR Inten    --   1699.1418                 0.0089                 1.6813

                      4                      5                      6
                      A                      A                      A
 Frequencies --    104.6697               132.2922               174.9642
 Red. masses --      4.5151                 5.7392                 5.7303
 Frc consts  --      0.0291                 0.0592                 0.1034
 IR Inten    --      0.0230                 3.7821                 0.4458

                      7                      8                      9
                      A                      A                      A
 Frequencies --    220.2287               267.7893               271.7379
 Red. masses --      5.3127                 4.7446                 7.4299
 Frc consts  --      0.1518                 0.2005                 0.3232
 IR Inten    --      0.0977                 0.2400                10.9999

                     10                     11                     12
                      A                      A                      A
 Frequencies --    371.8057               377.4565               401.9621
 Red. masses --      5.0072                 6.2606                11.3027
 Frc consts  --      0.4078                 0.5255                 1.0760
 IR Inten    --      0.5947                 4.9128                 4.0726

                     13                     14                     15
                      A                      A                      A
 Frequencies --    436.2773               474.2381               494.3954
 Red. masses --      3.2089                 4.7839                 3.1522
 Frc consts  --      0.3599                 0.6339                 0.4540
 IR Inten    --      5.3150                 0.1140                 0.4667

                     16                     17                     18
                      A                      A                      A
 Frequencies --    505.0752               540.0495               555.1969
 Red. masses --      8.9183                 8.4108                 3.8752
 Frc consts  --      1.3404                 1.4453                 0.7038
 IR Inten    --      1.0210                 1.5567                 0.3438

                     19                     20                     21
                      A                      A                      A
 Frequencies --    579.7233               608.1122               668.0867
 Red. masses --      7.4463                 7.5115                 6.8723
 Frc consts  --      1.4745                 1.6366                 1.8073
 IR Inten    --      6.9607                10.5045               133.5306

                     22                     23                     24
                      A                      A                      A
 Frequencies --    694.8434               705.9773               738.8185
 Red. masses --      1.6592                 6.4419                 2.1505
 Frc consts  --      0.4720                 1.8917                 0.6916
 IR Inten    --     38.2232                21.3774                19.5142

                     25                     26                     27
                      A                      A                      A
 Frequencies --    749.3631               763.9382               766.5742
 Red. masses --      8.7880                 1.9170                 1.8448
 Frc consts  --      2.9075                 0.6591                 0.6387
 IR Inten    --     15.8103                 4.8457                83.0650

                     28                     29                     30
                      A                      A                      A
 Frequencies --    814.4726               828.1445               860.2253
 Red. masses --      6.2859                 1.6019                 1.4096
 Frc consts  --      2.4568                 0.6473                 0.6146
 IR Inten    --     10.4236                 0.0443                 1.0195

                     31                     32                     33
                      A                      A                      A
 Frequencies --    909.7906               917.4424               952.7013
 Red. masses --      1.3783                 6.7118                 1.3470
 Frc consts  --      0.6722                 3.3285                 0.7203
 IR Inten    --      5.5174                17.9675                 1.6155

                     34                     35                     36
                      A                      A                      A
 Frequencies --    956.2169               990.1393               999.8264
 Red. masses --      1.3802                 7.3700                 1.2948
 Frc consts  --      0.7436                 4.2571                 0.7626
 IR Inten    --      0.8264                42.4978                 0.0049

                     37                     38                     39
                      A                      A                      A
 Frequencies --   1040.2748              1047.5007              1080.3877
 Red. masses --      2.1861                 2.1024                 4.5208
 Frc consts  --      1.3939                 1.3592                 3.1090
 IR Inten    --      0.1862                 2.4902                56.4025

                     40                     41                     42
                      A                      A                      A
 Frequencies --   1127.8989              1149.5595              1167.9632
 Red. masses --      1.4437                 1.3136                 1.1698
 Frc consts  --      1.0821                 1.0227                 0.9402
 IR Inten    --     38.3067                 9.4902               115.7330

                     43                     44                     45
                      A                      A                      A
 Frequencies --   1177.7043              1238.9395              1253.8688
 Red. masses --      1.1500                 1.0543                 1.8717
 Frc consts  --      0.9398                 0.9535                 1.7337
 IR Inten    --     21.4145                63.0844                90.6976

                     46                     47                     48
                      A                      A                      A
 Frequencies --   1263.5783              1295.1503              1343.0386
 Red. masses --      2.8745                 2.0696                 3.6757
 Frc consts  --      2.7041                 2.0454                 3.9063
 IR Inten    --     31.9058                16.0049               154.8541

                     49                     50                     51
                      A                      A                      A
 Frequencies --   1369.2272              1398.4657              1404.4722
 Red. masses --      6.1622                 2.6157                 2.2124
 Frc consts  --      6.8067                 3.0140                 2.5712
 IR Inten    --    199.5049                26.5637                 8.0052

                     52                     53                     54
                      A                      A                      A
 Frequencies --   1447.1938              1476.3043              1498.3097
 Red. masses --      2.9085                 4.0999                 3.7978
 Frc consts  --      3.5890                 5.2648                 5.0232
 IR Inten    --    492.4025               272.6132               217.2264

                     55                     56                     57
                      A                      A                      A
 Frequencies --   1535.4030              1544.6508              1561.8088
 Red. masses --      5.1084                 5.5066                 4.1834
 Frc consts  --      7.0955                 7.7410                 6.0122
 IR Inten    --     28.8995               108.5155               262.7085

                     58                     59                     60
                      A                      A                      A
 Frequencies --   1624.4117              1646.7356              1659.5014
 Red. masses --      6.0893                 6.1497                 6.4317
 Frc consts  --      9.4669                 9.8255                10.4359
 IR Inten    --     61.3813               896.6943                44.9444

                     61                     62                     63
                      A                      A                      A
 Frequencies --   1862.2029              3203.9660              3210.5130
 Red. masses --      1.1006                 1.0875                 1.0859
 Frc consts  --      2.2487                 6.5773                 6.5947
 IR Inten    --     92.3097                15.4620                 6.1867

                     64                     65                     66
                      A                      A                      A
 Frequencies --   3217.7413              3220.2530              3227.4918
 Red. masses --      1.0893                 1.0900                 1.0922
 Frc consts  --      6.6448                 6.6600                 6.7033
 IR Inten    --      3.5439                 3.2783                19.9093

                     67                     68                     69
                      A                      A                      A
 Frequencies --   3230.9694              3238.0285              3240.5444
 Red. masses --      1.0954                 1.0994                 1.0986
 Frc consts  --      6.7374                 6.7918                 6.7971
 IR Inten    --     11.0747                24.5047                11.7089

 - Thermochemistry -
 -------------------
 Temperature   298.150 Kelvin.  Pressure   1.00000 Atm.
 Atom     1 has atomic number  6 and mass  12.00000

 Molecular mass:   227.04049 amu.
 Principal axes and moments of inertia in atomic units:
                           1         2         3
     Eigenvalues --  1335.149826316.862967652.01278
           X           -0.70176   0.71241   0.00000
           Y            0.71241   0.70176  -0.00001
           Z            0.00001   0.00001   1.00000
 This molecule is an asymmetric top.
 Rotational symmetry number  1.
 Warning -- assumption of classical behavior for rotation
           may cause significant error
 Rotational temperatures (Kelvin)      0.06487     0.01371     0.01132
 Rotational constants (GHZ):           1.35171     0.28570     0.23585
    2 imaginary frequencies ignored.
 Zero-point vibrational energy     477770.4 (Joules/Mol)
                                  114.18987 (Kcal/Mol)
 Warning -- explicit consideration of  18 degrees of freedom as
           vibrations may cause significant error
 Vibrational temperatures:     58.10   150.60   190.34   251.73   316.86
          (Kelvin)            385.29   390.97   534.95   543.08   578.33
                              627.71   682.32   711.32   726.69   777.01
                              798.80   834.09   874.94   961.23   999.72
                             1015.74  1063.00  1078.17  1099.14  1102.93
                             1171.84  1191.52  1237.67  1308.99  1320.00
                             1370.72  1375.78  1424.59  1438.53  1496.72
                             1507.12  1554.44  1622.80  1653.96  1680.44
                             1694.45  1782.56  1804.04  1818.01  1863.43
                             1932.33  1970.01  2012.08  2020.72  2082.19
                             2124.07  2155.73  2209.10  2222.41  2247.09
                             2337.17  2369.29  2387.65  2679.29  4609.79
                             4619.21  4629.61  4633.23  4643.64  4648.64
                             4658.80  4662.42

 Zero-point correction=                           0.181973 (Hartree/Particle)
 Thermal correction to Energy=                    0.193252
 Thermal correction to Enthalpy=                  0.194196
 Thermal correction to Gibbs Free Energy=         0.144012
 Sum of electronic and zero-point Energies=          -1028.507912
 Sum of electronic and thermal Energies=             -1028.496633
 Sum of electronic and thermal Enthalpies=           -1028.495688
 Sum of electronic and thermal Free Energies=        -1028.545873

                     E (Thermal)             CV                S
                      KCal/Mol        Cal/Mol-Kelvin    Cal/Mol-Kelvin
 Total                  121.268             46.508            105.622
 Electronic               0.000              0.000              0.000
 Translational            0.889              2.981             42.162
 Rotational               0.889              2.981             32.534
 Vibrational            119.490             40.546             30.926
 Vibration     1          0.594              1.981              5.240
 Vibration     2          0.605              1.945              3.365
 Vibration     3          0.612              1.921              2.912
 Vibration     4          0.627              1.873              2.381
 Vibration     5          0.647              1.810              1.957
 Vibration     6          0.673              1.732              1.610
 Vibration     7          0.675              1.725              1.585
 Vibration     8          0.744              1.530              1.072
 Vibration     9          0.748              1.518              1.049
 Vibration    10          0.768              1.466              0.955
 Vibration    11          0.797              1.391              0.838
 Vibration    12          0.831              1.307              0.726
 Vibration    13          0.850              1.262              0.672
 Vibration    14          0.860              1.239              0.646
 Vibration    15          0.895              1.162              0.565
 Vibration    16          0.911              1.128              0.534
 Vibration    17          0.936              1.075              0.486
 Vibration    18          0.967              1.015              0.436

                           ! Non-Optimized Parameters !
 Normal termination of Gaussian 16 at Mon Jul 13 15:11:09 2020.
