 Gaussian 16, Revision C.01,
 Gaussian 16:  ES64L-G16RevC.01  3-Jul-2019

 ----------------------------------------------------------------------
 #p opt=addgic freq td wb97xd/cc-pvdz nosymm int=ultrafine scrf=(solven
 t=CarbonTetraChloride)
 ----------------------------------------------------------------------

 ------------------------------------------------
 NM 2D-scan of HBT TD-WB97XD pVDZ in CTC Relaxed.
 ------------------------------------------------
 Symbolic Z-matrix:
 Charge =  0 Multiplicity = 1

 SCF Done:  E(RwB97XD) =  -1028.71668370     A.U. after   16 cycles
 Total Energy, E(TD-HF/TD-DFT) =  -1028.61063080
 SCF Done:  E(RwB97XD) =  -1028.78404079     A.U. after   14 cycles
 Total Energy, E(TD-HF/TD-DFT) =  -1028.68182778
 SCF Done:  E(RwB97XD) =  -1028.79447057     A.U. after   13 cycles
 Total Energy, E(TD-HF/TD-DFT) =  -1028.69275304
 SCF Done:  E(RwB97XD) =  -1028.79682023     A.U. after   13 cycles
 Total Energy, E(TD-HF/TD-DFT) =  -1028.69334570
 SCF Done:  E(RwB97XD) =  -1028.79614698     A.U. after   12 cycles
 Total Energy, E(TD-HF/TD-DFT) =  -1028.69381486
 SCF Done:  E(RwB97XD) =  -1028.79607207     A.U. after   10 cycles
 Total Energy, E(TD-HF/TD-DFT) =  -1028.69382110
 Optimization completed.
    -- Stationary point found.
 Normal termination of Gaussian 16 at Mon Jul 13 19:25:20 2020.

 ----------------------------------------------------------------------
 #P Geom=AllCheck Guess=TCheck SCRF=Check GenChk RwB97XD TD(FC,Read)/CC
 -pVDZ Freq
 ----------------------------------------------------------------------

 Structure from the checkpoint file:  "config_11_7.chk"
 ------------------------------------------------
 NM 2D-scan of HBT TD-WB97XD pVDZ in CTC Relaxed.
 ------------------------------------------------
 Charge =  0 Multiplicity = 1

                          Input orientation:
 ---------------------------------------------------------------------
 Center     Atomic      Atomic             Coordinates (Angstroms)
 Number     Number       Type             X           Y           Z
 ---------------------------------------------------------------------
      1          6           0        1.702040   -3.292631    0.000124
      2          6           0        1.022038   -2.079737    0.000042
      3          6           0        1.734264   -0.878555   -0.000102
      4          6           0        3.134210   -0.845027   -0.000158
      5          6           0        3.803402   -2.062310   -0.000075
      6          6           0        3.099122   -3.272618    0.000062
      7          1           0        1.160674   -4.238879    0.000233
      8          1           0        3.667214    0.106354   -0.000263
      9          1           0        4.894356   -2.072443   -0.000115
     10          1           0        3.645726   -4.216100    0.000124
     11          7           0        0.894227    0.186633   -0.000172
     12         16           0       -0.724222   -1.746370    0.000088
     13          6           0       -1.411077    1.071077   -0.000024
     14          6           0       -2.780763    0.880439   -0.000133
     15          6           0       -0.880142    2.461316    0.000145
     16          6           0       -3.699173    1.977129   -0.000065
     17          1           0       -3.187356   -0.134379   -0.000286
     18          6           0       -1.852706    3.519100    0.000202
     19          6           0       -3.236429    3.284587    0.000107
     20          1           0       -4.769190    1.763915   -0.000149
     21          1           0       -1.452732    4.534913    0.000358
     22          1           0       -3.938750    4.119474    0.000167
     23          6           0       -0.452489   -0.014650   -0.000059
     24          8           0        0.353514    2.671875    0.000264
     25          1           0        1.295619    1.101927   -0.000239
 ---------------------------------------------------------------------

 SCF Done:  E(RwB97XD) =  -1028.79607207     A.U. after    1 cycles

 Excitation energies and oscillator strengths:

 Excited state symmetry could not be determined.
 Excited State   1:      Singlet-?Sym    2.7824 eV  445.60 nm  f=0.4331  <S**2>=0.000
      59 -> 60         0.69677
 This state for optimization and/or second-order correction.
 Total Energy, E(TD-HF/TD-DFT) =  -1028.69382111
 Copying the excited state density for this state as the 1-particle RhoCI density.

 Excited state symmetry could not be determined.
 Excited State   2:      Singlet-?Sym    3.4649 eV  357.83 nm  f=0.0000  <S**2>=0.000
      58 -> 60         0.68368
      58 -> 62         0.11666
      58 -> 64         0.10924

 Excited state symmetry could not be determined.
 Excited State   3:      Singlet-?Sym    4.3258 eV  286.62 nm  f=0.4734  <S**2>=0.000
      57 -> 60         0.68162

 Alpha  occ. eigenvalues --  -89.10755 -19.20565 -14.52423 -10.42572 -10.37267
 Alpha  occ. eigenvalues --  -10.36326 -10.35644 -10.33623 -10.33228 -10.32822
 Alpha  occ. eigenvalues --  -10.32559 -10.31417 -10.31176 -10.30557 -10.29047
 Alpha  occ. eigenvalues --  -10.28135  -8.12709  -6.07596  -6.07207  -6.06727
 Alpha  occ. eigenvalues --   -1.13428  -1.09404  -0.98597  -0.95279  -0.93256
 Alpha  occ. eigenvalues --   -0.89167  -0.86687  -0.84155  -0.80751  -0.76038
 Alpha  occ. eigenvalues --   -0.74110  -0.71889  -0.69259  -0.67483  -0.64938
 Alpha  occ. eigenvalues --   -0.61025  -0.59829  -0.56554  -0.56214  -0.55920
 Alpha  occ. eigenvalues --   -0.55062  -0.53613  -0.53077  -0.50701  -0.48836
 Alpha  occ. eigenvalues --   -0.48731  -0.48261  -0.47023  -0.45571  -0.44815
 Alpha  occ. eigenvalues --   -0.44263  -0.42836  -0.42133  -0.40048  -0.36930
 Alpha  occ. eigenvalues --   -0.33815  -0.31558  -0.31088  -0.25508
 Alpha virt. eigenvalues --   -0.02202   0.03556   0.05843   0.06402   0.09585
 Alpha virt. eigenvalues --    0.10769   0.12354   0.14495   0.16059   0.16957
 Alpha virt. eigenvalues --    0.18454   0.19886   0.20921   0.21296   0.22921

 Mulliken charges:
               1
     1  C    0.013570
     2  C   -0.249776
     3  C    0.237326
     4  C   -0.010181
     5  C    0.014548
     6  C    0.001677
     7  H    0.026794
     8  H    0.033850
     9  H    0.029085
    10  H    0.027765
    11  N   -0.084893
    12  S    0.199409
    13  C   -0.098291
    14  C   -0.027861
    15  C    0.114682
    16  C   -0.039853
    17  H    0.002020
    18  C   -0.043624
    19  C    0.034726
    20  H    0.001505
    21  H   -0.000994
    22  H    0.013534
    23  C    0.076163
    24  O   -0.392444
    25  H    0.121265
 Sum of Mulliken charges =  -0.00000

 Dipole moment (field-independent basis, Debye):
    X=              2.3392    Y=             -5.9065    Z=             -0.0007  Tot=              6.3529
 Quadrupole moment (field-independent basis, Debye-Ang):
   XX=            -81.9251   YY=            -95.8897   ZZ=           -104.2107
   XY=             -6.3397   XZ=             -0.0009   YZ=             -0.0019

  Exact polarizability:     348.427    -120.530     294.388      -0.000       0.001      63.317
 Approx polarizability:     275.923     -39.624     265.738      -0.001       0.002      82.064

 ******    1 imaginary frequencies (negative Signs) ******

                      1                      2                      3
                      A                      A                      A
 Frequencies --    -89.1055                47.2385               101.5909
 Red. masses --      6.3717                 6.5078                 4.9570
 Frc consts  --      0.0298                 0.0086                 0.0301
 IR Inten    --      2.2854                 1.4673                 0.0658

                      4                      5                      6
                      A                      A                      A
 Frequencies --    109.3372               173.9482               227.1912
 Red. masses --      5.7297                 5.0941                 5.5914
 Frc consts  --      0.0404                 0.0908                 0.1700
 IR Inten    --      6.5399                 0.0031                 0.8553

                      7                      8                      9
                      A                      A                      A
 Frequencies --    261.9197               270.2833               310.9457
 Red. masses --      7.4947                 4.4388                 8.2051
 Frc consts  --      0.3029                 0.1911                 0.4674
 IR Inten    --      1.1820                 2.2531                 2.1977

                     10                     11                     12
                      A                      A                      A
 Frequencies --    344.0978               375.6138               425.2778
 Red. masses --      4.5193                 7.6689                 3.5471
 Frc consts  --      0.3153                 0.6375                 0.3780
 IR Inten    --      0.9975                 7.6474                 5.9659

                     13                     14                     15
                      A                      A                      A
 Frequencies --    444.4362               499.0503               512.6366
 Red. masses --      4.3356                 8.1719                 3.2035
 Frc consts  --      0.5046                 1.1991                 0.4960
 IR Inten    --      4.7718                10.3831                 0.2745

                     16                     17                     18
                      A                      A                      A
 Frequencies --    539.3308               553.5588               555.7110
 Red. masses --      8.6800                 3.3717                 6.9703
 Frc consts  --      1.4876                 0.6087                 1.2682
 IR Inten    --     13.0620                 5.7071                39.2959

                     19                     20                     21
                      A                      A                      A
 Frequencies --    566.7233               618.2070               643.1116
 Red. masses --      7.3251                 1.1552                 6.3102
 Frc consts  --      1.3861                 0.2601                 1.5377
 IR Inten    --      8.2311                57.4349                30.4274

                     22                     23                     24
                      A                      A                      A
 Frequencies --    689.4385               700.4833               732.6671
 Red. masses --      1.5269                 6.1568                 7.8853
 Frc consts  --      0.4276                 1.7799                 2.4939
 IR Inten    --     22.3114                 1.9771                 4.4068

                     25                     26                     27
                      A                      A                      A
 Frequencies --    744.3000               760.9259               768.7444
 Red. masses --      2.6765                 1.7203                 1.6335
 Frc consts  --      0.8736                 0.5869                 0.5688
 IR Inten    --     13.9617                 7.6939               100.7991

                     28                     29                     30
                      A                      A                      A
 Frequencies --    812.6074               841.7144               866.0964
 Red. masses --      6.3460                 1.8497                 1.3761
 Frc consts  --      2.4690                 0.7721                 0.6082
 IR Inten    --     18.1187                 0.9740                 1.5843

                     31                     32                     33
                      A                      A                      A
 Frequencies --    897.2008               905.0910               953.4233
 Red. masses --      5.5754                 1.4321                 1.3602
 Frc consts  --      2.6443                 0.6912                 0.7285
 IR Inten    --      0.5308                 9.1817                 0.6687

                     34                     35                     36
                      A                      A                      A
 Frequencies --    958.4490               963.0251              1004.7105
 Red. masses --      1.3480                 5.2949                 1.2930
 Frc consts  --      0.7296                 2.8932                 0.7690
 IR Inten    --      1.6722                 1.0458                 0.0019

                     37                     38                     39
                      A                      A                      A
 Frequencies --   1037.9918              1054.6750              1083.3163
 Red. masses --      2.2451                 2.2274                 3.7223
 Frc consts  --      1.4252                 1.4598                 2.5738
 IR Inten    --      0.7446                10.2565                 0.9743

                     40                     41                     42
                      A                      A                      A
 Frequencies --   1101.0909              1151.5382              1158.6358
 Red. masses --      1.6613                 1.3280                 1.1851
 Frc consts  --      1.1867                 1.0376                 0.9373
 IR Inten    --     34.4207                 4.5818                64.1640

                     43                     44                     45
                      A                      A                      A
 Frequencies --   1180.5674              1198.4265              1237.7520
 Red. masses --      1.1443                 1.6372                 2.3972
 Frc consts  --      0.9397                 1.3854                 2.1638
 IR Inten    --     34.8133                67.3385                17.0540

                     46                     47                     48
                      A                      A                      A
 Frequencies --   1264.8529              1298.9050              1336.5782
 Red. masses --      2.2813                 1.5703                 3.8623
 Frc consts  --      2.1503                 1.5610                 4.0653
 IR Inten    --     76.1881                11.9752                26.8086

                     49                     50                     51
                      A                      A                      A
 Frequencies --   1367.0403              1390.1382              1402.2488
 Red. masses --      2.6798                 2.3339                 4.8932
 Frc consts  --      2.9506                 2.6573                 5.6688
 IR Inten    --     52.8665                49.3995                53.6670

                     52                     53                     54
                      A                      A                      A
 Frequencies --   1444.9250              1472.3436              1519.3569
 Red. masses --      2.9783                 2.9412                 3.2047
 Frc consts  --      3.6636                 3.7566                 4.3588
 IR Inten    --    148.9189                 5.0680                78.3511

                     55                     56                     57
                      A                      A                      A
 Frequencies --   1523.9131              1563.2768              1605.2010
 Red. masses --      3.2407                 5.6087                 5.2492
 Frc consts  --      4.4341                 8.0757                 7.9690
 IR Inten    --     18.3722               187.0306               114.0421

                     58                     59                     60
                      A                      A                      A
 Frequencies --   1638.3253              1665.7697              1677.3502
 Red. masses --      8.2002                 6.9905                 6.9223
 Frc consts  --     12.9680                11.4284                11.4748
 IR Inten    --    143.0968                50.4781               115.9911

                     61                     62                     63
                      A                      A                      A
 Frequencies --   3186.6570              3207.4571              3213.6134
 Red. masses --      1.0894                 1.0861                 1.0865
 Frc consts  --      6.5179                 6.5833                 6.6110
 IR Inten    --     22.8889                 2.0518                 5.8180

                     64                     65                     66
                      A                      A                      A
 Frequencies --   3219.6440              3225.1073              3232.7166
 Red. masses --      1.0915                 1.0901                 1.0989
 Frc consts  --      6.6663                 6.6805                 6.7663
 IR Inten    --     12.8970                 2.4150                26.8365

                     67                     68                     69
                      A                      A                      A
 Frequencies --   3233.0435              3241.5059              3745.2753
 Red. masses --      1.0963                 1.0993                 1.0806
 Frc consts  --      6.7513                 6.8058                 8.9306
 IR Inten    --      6.2695                13.1128               459.1594

 - Thermochemistry -
 -------------------
 Temperature   298.150 Kelvin.  Pressure   1.00000 Atm.
 Atom     1 has atomic number  6 and mass  12.00000

 Molecular mass:   227.04049 amu.
 Principal axes and moments of inertia in atomic units:
                           1         2         3
     Eigenvalues --  1293.094806490.229697783.32446
           X           -0.70462   0.70959   0.00000
           Y            0.70959   0.70462  -0.00001
           Z            0.00001   0.00001   1.00000
 This molecule is an asymmetric top.
 Rotational symmetry number  1.
 Warning -- assumption of classical behavior for rotation
           may cause significant error
 Rotational temperatures (Kelvin)      0.06698     0.01335     0.01113
 Rotational constants (GHZ):           1.39568     0.27807     0.23187
    1 imaginary frequencies ignored.
 Zero-point vibrational energy     490817.8 (Joules/Mol)
                                  117.30827 (Kcal/Mol)
 Warning -- explicit consideration of  19 degrees of freedom as
           vibrations may cause significant error
 Vibrational temperatures:     67.97   146.17   157.31   250.27   326.88
          (Kelvin)            376.84   388.88   447.38   495.08   540.42
                              611.88   639.44   718.02   737.57   775.98
                              796.45   799.54   815.39   889.46   925.29
                              991.95  1007.84  1054.14  1070.88  1094.80
                             1106.05  1169.16  1211.04  1246.12  1290.87
                             1302.22  1371.76  1378.99  1385.58  1445.55
                             1493.44  1517.44  1558.65  1584.22  1656.81
                             1667.02  1698.57  1724.27  1780.85  1819.84
                             1868.83  1923.04  1966.87  2000.10  2017.52
                             2078.92  2118.37  2186.02  2192.57  2249.21
                             2309.53  2357.18  2396.67  2413.33  4584.89
                             4614.82  4623.67  4632.35  4640.21  4651.16
                             4651.63  4663.80  5388.62

 Zero-point correction=                           0.186943 (Hartree/Particle)
 Thermal correction to Energy=                    0.198630
 Thermal correction to Enthalpy=                  0.199575
 Thermal correction to Gibbs Free Energy=         0.148736
 Sum of electronic and zero-point Energies=          -1028.506878
 Sum of electronic and thermal Energies=             -1028.495191
 Sum of electronic and thermal Enthalpies=           -1028.494246
 Sum of electronic and thermal Free Energies=        -1028.545085

                     E (Thermal)             CV                S
                      KCal/Mol        Cal/Mol-Kelvin    Cal/Mol-Kelvin
 Total                  124.642             48.120            106.999
 Electronic               0.000              0.000              0.000
 Translational            0.889              2.981             42.162
 Rotational               0.889              2.981             32.546
 Vibrational            122.865             42.159             32.291
 Vibration     1          0.595              1.979              4.930
 Vibration     2          0.604              1.948              3.424
 Vibration     3          0.606              1.942              3.281
 Vibration     4          0.627              1.875              2.392
 Vibration     5          0.651              1.800              1.901
 Vibration     6          0.669              1.743              1.649
 Vibration     7          0.674              1.728              1.594
 Vibration     8          0.700              1.653              1.357
 Vibration     9          0.723              1.587              1.193
 Vibration    10          0.746              1.522              1.057
 Vibration    11          0.787              1.415              0.874
 Vibration    12          0.804              1.373              0.813
 Vibration    13          0.854              1.252              0.661
 Vibration    14          0.868              1.222              0.627
 Vibration    15          0.894              1.163              0.567
 Vibration    16          0.909              1.132              0.537
 Vibration    17          0.911              1.127              0.532
 Vibration    18          0.923              1.103              0.511
 Vibration    19          0.978              0.993              0.419

 Optimization completed.
    -- Stationary point found.
 Normal termination of Gaussian 16 at Mon Jul 13 19:43:07 2020.
