 Gaussian 16, Revision C.01,
 Gaussian 16:  ES64L-G16RevC.01  3-Jul-2019

 ----------------------------------------------------------------------
 #p opt=addgic freq td wb97xd/cc-pvdz nosymm int=ultrafine scrf=(solven
 t=CarbonTetraChloride)
 ----------------------------------------------------------------------

 ------------------------------------------------
 NM 2D-scan of HBT TD-WB97XD pVDZ in CTC Relaxed.
 ------------------------------------------------
 Symbolic Z-matrix:
 Charge =  0 Multiplicity = 1

 SCF Done:  E(RwB97XD) =  -1028.73749196     A.U. after   16 cycles
 Total Energy, E(TD-HF/TD-DFT) =  -1028.63090198
 SCF Done:  E(RwB97XD) =  -1028.78899924     A.U. after   14 cycles
 Total Energy, E(TD-HF/TD-DFT) =  -1028.68690644
 SCF Done:  E(RwB97XD) =  -1028.80026561     A.U. after   13 cycles
 Total Energy, E(TD-HF/TD-DFT) =  -1028.69814748
 SCF Done:  E(RwB97XD) =  -1028.80137714     A.U. after   12 cycles
 Total Energy, E(TD-HF/TD-DFT) =  -1028.69887032
 SCF Done:  E(RwB97XD) =  -1028.80118330     A.U. after   11 cycles
 Total Energy, E(TD-HF/TD-DFT) =  -1028.69890463
 SCF Done:  E(RwB97XD) =  -1028.80114979     A.U. after   10 cycles
 Total Energy, E(TD-HF/TD-DFT) =  -1028.69890922
 Optimization completed.
    -- Stationary point found.
 Normal termination of Gaussian 16 at Tue Jul 14 10:58:05 2020.

 ----------------------------------------------------------------------
 #P Geom=AllCheck Guess=TCheck SCRF=Check GenChk RwB97XD TD(FC,Read)/CC
 -pVDZ Freq
 ----------------------------------------------------------------------

 Structure from the checkpoint file:  "config_10_16.chk"
 ------------------------------------------------
 NM 2D-scan of HBT TD-WB97XD pVDZ in CTC Relaxed.
 ------------------------------------------------
 Charge =  0 Multiplicity = 1

                          Input orientation:
 ---------------------------------------------------------------------
 Center     Atomic      Atomic             Coordinates (Angstroms)
 Number     Number       Type             X           Y           Z
 ---------------------------------------------------------------------
      1          6           0        1.573378   -3.291054    0.000000
      2          6           0        1.007182   -2.022181   -0.000002
      3          6           0        1.799982   -0.862229   -0.000023
      4          6           0        3.198282   -0.965824   -0.000040
      5          6           0        3.758908   -2.240082   -0.000037
      6          6           0        2.962959   -3.393086   -0.000018
      7          1           0        0.943715   -4.181171    0.000015
      8          1           0        3.822000   -0.071447   -0.000054
      9          1           0        4.845494   -2.338984   -0.000050
     10          1           0        3.431847   -4.377495   -0.000017
     11          7           0        1.027045    0.268192   -0.000026
     12         16           0       -0.700067   -1.608077    0.000018
     13          6           0       -1.336799    1.115271    0.000015
     14          6           0       -2.684977    0.787386   -0.000002
     15          6           0       -0.930293    2.534641    0.000053
     16          6           0       -3.693003    1.788842    0.000015
     17          1           0       -2.995936   -0.260287   -0.000034
     18          6           0       -1.988580    3.501613    0.000058
     19          6           0       -3.343779    3.134143    0.000042
     20          1           0       -4.740531    1.484180    0.000003
     21          1           0       -1.690202    4.551736    0.000083
     22          1           0       -4.119307    3.901631    0.000052
     23          6           0       -0.326440    0.093892    0.000000
     24          8           0        0.291607    2.831555    0.000065
     25          1           0        1.399513    1.208901   -0.000023
 ---------------------------------------------------------------------

 SCF Done:  E(RwB97XD) =  -1028.80114979     A.U. after    1 cycles

 Excitation energies and oscillator strengths:

 Excited state symmetry could not be determined.
 Excited State   1:      Singlet-?Sym    2.7821 eV  445.65 nm  f=0.4417  <S**2>=0.000
      59 -> 60         0.69748
 This state for optimization and/or second-order correction.
 Total Energy, E(TD-HF/TD-DFT) =  -1028.69890923
 Copying the excited state density for this state as the 1-particle RhoCI density.

 Excited state symmetry could not be determined.
 Excited State   2:      Singlet-?Sym    3.4403 eV  360.38 nm  f=0.0000  <S**2>=0.000
      58 -> 60         0.68361
      58 -> 62         0.11624
      58 -> 64         0.10865

 Excited state symmetry could not be determined.
 Excited State   3:      Singlet-?Sym    4.2807 eV  289.64 nm  f=0.3942  <S**2>=0.000
      57 -> 60         0.68366

 Alpha  occ. eigenvalues --  -89.10377 -19.20411 -14.53132 -10.42294 -10.37670
 Alpha  occ. eigenvalues --  -10.36200 -10.35448 -10.33454 -10.33281 -10.32763
 Alpha  occ. eigenvalues --  -10.32503 -10.31395 -10.30819 -10.30671 -10.29094
 Alpha  occ. eigenvalues --  -10.28230  -8.12425  -6.07298  -6.06918  -6.06445
 Alpha  occ. eigenvalues --   -1.13106  -1.08874  -0.98590  -0.95676  -0.93296
 Alpha  occ. eigenvalues --   -0.89082  -0.86886  -0.83863  -0.80955  -0.75883
 Alpha  occ. eigenvalues --   -0.73927  -0.72216  -0.69090  -0.67591  -0.65152
 Alpha  occ. eigenvalues --   -0.61068  -0.59738  -0.56561  -0.56148  -0.55965
 Alpha  occ. eigenvalues --   -0.55086  -0.53839  -0.53061  -0.50387  -0.48687
 Alpha  occ. eigenvalues --   -0.48658  -0.48471  -0.47053  -0.45574  -0.44885
 Alpha  occ. eigenvalues --   -0.44065  -0.42852  -0.42273  -0.39906  -0.36887
 Alpha  occ. eigenvalues --   -0.33774  -0.31475  -0.30988  -0.25549
 Alpha virt. eigenvalues --   -0.02148   0.03615   0.05584   0.06675   0.09569
 Alpha virt. eigenvalues --    0.10869   0.13710   0.14648   0.16132   0.17039
 Alpha virt. eigenvalues --    0.18021   0.19860   0.20726   0.21226   0.22617

 Mulliken charges:
               1
     1  C    0.019594
     2  C   -0.237982
     3  C    0.235994
     4  C   -0.010108
     5  C    0.011351
     6  C    0.003497
     7  H    0.025558
     8  H    0.031612
     9  H    0.028549
    10  H    0.027455
    11  N   -0.116417
    12  S    0.200179
    13  C   -0.071096
    14  C   -0.038919
    15  C    0.103318
    16  C   -0.035376
    17  H    0.010757
    18  C   -0.043721
    19  C    0.034067
    20  H    0.000940
    21  H   -0.000063
    22  H    0.014057
    23  C    0.070386
    24  O   -0.393201
    25  H    0.129570
 Sum of Mulliken charges =  -0.00000

 Dipole moment (field-independent basis, Debye):
    X=              2.3222    Y=             -6.1041    Z=             -0.0001  Tot=              6.5309
 Quadrupole moment (field-independent basis, Debye-Ang):
   XX=            -81.4752   YY=            -97.2030   ZZ=           -104.1519
   XY=             -6.0986   XZ=             -0.0002   YZ=             -0.0003

  Exact polarizability:     346.848    -119.737     294.140      -0.002       0.002      63.221
 Approx polarizability:     274.058     -37.846     264.378      -0.001       0.001      81.952

 ******    1 imaginary frequencies (negative Signs) ******

                      1                      2                      3
                      A                      A                      A
 Frequencies --    -51.0557                47.4619               109.2145
 Red. masses --      5.1679                 6.2773                 5.7680
 Frc consts  --      0.0079                 0.0083                 0.0405
 IR Inten    --      1.8640                 1.1564                 8.0756

                      4                      5                      6
                      A                      A                      A
 Frequencies --    109.9250               179.8916               226.1840
 Red. masses --      5.6945                 5.5028                 5.5685
 Frc consts  --      0.0405                 0.1049                 0.1678
 IR Inten    --      0.9740                 0.0312                 0.3792

                      7                      8                      9
                      A                      A                      A
 Frequencies --    262.4260               273.7571               287.0992
 Red. masses --      8.3643                 4.4906                 7.6748
 Frc consts  --      0.3394                 0.1983                 0.3727
 IR Inten    --      2.0937                 1.0877                 1.8808

                     10                     11                     12
                      A                      A                      A
 Frequencies --    345.6125               385.4809               428.1981
 Red. masses --      4.5427                 7.5269                 3.7315
 Frc consts  --      0.3197                 0.6590                 0.4031
 IR Inten    --      1.1408                 7.6990                 2.8026

                     13                     14                     15
                      A                      A                      A
 Frequencies --    447.5040               504.5729               513.6540
 Red. masses --      4.0978                 8.4478                 3.2212
 Frc consts  --      0.4835                 1.2672                 0.5007
 IR Inten    --      5.0654                11.3686                 0.2506

                     16                     17                     18
                      A                      A                      A
 Frequencies --    542.5792               544.2593               558.9598
 Red. masses --      7.8155                 6.9211                 3.7955
 Frc consts  --      1.3556                 1.2079                 0.6987
 IR Inten    --      4.1676                45.2641                 1.1864

                     19                     20                     21
                      A                      A                      A
 Frequencies --    567.5697               637.2848               671.3107
 Red. masses --      7.2697                 6.2562                 1.1236
 Frc consts  --      1.3798                 1.4970                 0.2983
 IR Inten    --      8.2785                24.2883                86.2777

                     22                     23                     24
                      A                      A                      A
 Frequencies --    695.6249               715.8344               735.3679
 Red. masses --      1.4280                 5.9261                 7.7593
 Frc consts  --      0.4071                 1.7891                 2.4722
 IR Inten    --      9.5536                 2.1832                 5.3108

                     25                     26                     27
                      A                      A                      A
 Frequencies --    745.8357               758.2038               766.7067
 Red. masses --      2.4664                 1.6990                 1.6982
 Frc consts  --      0.8083                 0.5755                 0.5882
 IR Inten    --     25.8342                12.1870                84.0256

                     28                     29                     30
                      A                      A                      A
 Frequencies --    822.9640               834.7835               868.1847
 Red. masses --      6.2398                 1.9890                 1.3789
 Frc consts  --      2.4899                 0.8166                 0.6124
 IR Inten    --     17.6415                 1.3462                 1.0744

                     31                     32                     33
                      A                      A                      A
 Frequencies --    880.2806               899.5331               952.1751
 Red. masses --      4.9397                 1.4471                 1.3597
 Frc consts  --      2.2552                 0.6899                 0.7263
 IR Inten    --      1.4679                 8.7653                 0.4180

                     34                     35                     36
                      A                      A                      A
 Frequencies --    958.0704               962.2207              1003.6301
 Red. masses --      1.3524                 5.0644                 1.2978
 Frc consts  --      0.7314                 2.7627                 0.7702
 IR Inten    --      1.7363                 0.1912                 0.0063

                     37                     38                     39
                      A                      A                      A
 Frequencies --   1049.1681              1056.0939              1091.6810
 Red. masses --      2.1346                 2.1495                 3.7423
 Frc consts  --      1.3844                 1.4125                 2.6278
 IR Inten    --      1.4909                 8.5565                 1.4031

                     40                     41                     42
                      A                      A                      A
 Frequencies --   1107.3919              1154.8602              1161.6171
 Red. masses --      1.6269                 1.2726                 1.3018
 Frc consts  --      1.1754                 1.0000                 1.0350
 IR Inten    --     27.9697                25.8690                47.9661

                     43                     44                     45
                      A                      A                      A
 Frequencies --   1176.9188              1194.6070              1244.9823
 Red. masses --      1.1536                 1.5468                 2.1895
 Frc consts  --      0.9415                 1.3006                 1.9995
 IR Inten    --     33.5617                37.2714                22.4860

                     46                     47                     48
                      A                      A                      A
 Frequencies --   1265.1837              1297.8216              1338.5014
 Red. masses --      2.3295                 1.7071                 4.7223
 Frc consts  --      2.1970                 1.6941                 4.9847
 IR Inten    --     47.2563                 1.3259                 2.7108

                     49                     50                     51
                      A                      A                      A
 Frequencies --   1363.1065              1395.9070              1403.3694
 Red. masses --      3.3294                 3.8636                 2.4868
 Frc consts  --      3.6448                 4.4356                 2.8855
 IR Inten    --    116.7832                30.6490                18.3409

                     52                     53                     54
                      A                      A                      A
 Frequencies --   1437.2444              1475.9942              1511.2001
 Red. masses --      2.8242                 3.2105                 2.9488
 Frc consts  --      3.4372                 4.1209                 3.9677
 IR Inten    --    189.3376                 1.9083                39.0670

                     55                     56                     57
                      A                      A                      A
 Frequencies --   1522.9459              1550.0643              1593.1264
 Red. masses --      3.8392                 4.7636                 5.1078
 Frc consts  --      5.2464                 6.7435                 7.6381
 IR Inten    --     42.6758               205.8521               111.0931

                     58                     59                     60
                      A                      A                      A
 Frequencies --   1623.0646              1659.1467              1668.2748
 Red. masses --      7.2869                 6.8233                 6.8926
 Frc consts  --     11.3100                11.0666                11.3023
 IR Inten    --    151.4267                17.9301               132.4380

                     61                     62                     63
                      A                      A                      A
 Frequencies --   3195.3484              3209.5037              3212.0840
 Red. masses --      1.0884                 1.0866                 1.0862
 Frc consts  --      6.5474                 6.5946                 6.6029
 IR Inten    --     26.7263                 3.5988                 3.9802

                     64                     65                     66
                      A                      A                      A
 Frequencies --   3220.9980              3222.4703              3231.4388
 Red. masses --      1.0919                 1.0902                 1.0957
 Frc consts  --      6.6747                 6.6702                 6.7413
 IR Inten    --     14.6054                 3.1206                 6.7278

                     67                     68                     69
                      A                      A                      A
 Frequencies --   3234.4375              3238.7683              3620.3020
 Red. masses --      1.0989                 1.0997                 1.0813
 Frc consts  --      6.7737                 6.7963                 8.3496
 IR Inten    --     28.6456                12.0375               382.3922

 - Thermochemistry -
 -------------------
 Temperature   298.150 Kelvin.  Pressure   1.00000 Atm.
 Atom     1 has atomic number  6 and mass  12.00000

 Molecular mass:   227.04049 amu.
 Principal axes and moments of inertia in atomic units:
                           1         2         3
     Eigenvalues --  1273.274036492.887417766.16144
           X           -0.70347   0.71072   0.00000
           Y            0.71072   0.70347  -0.00001
           Z            0.00001   0.00000   1.00000
 This molecule is an asymmetric top.
 Rotational symmetry number  1.
 Warning -- assumption of classical behavior for rotation
           may cause significant error
 Rotational temperatures (Kelvin)      0.06802     0.01334     0.01115
 Rotational constants (GHZ):           1.41740     0.27796     0.23239
    1 imaginary frequencies ignored.
 Zero-point vibrational energy     490289.4 (Joules/Mol)
                                  117.18197 (Kcal/Mol)
 Warning -- explicit consideration of  18 degrees of freedom as
           vibrations may cause significant error
 Vibrational temperatures:     68.29   157.14   158.16   258.82   325.43
          (Kelvin)            377.57   393.88   413.07   497.26   554.62
                              616.08   643.86   725.97   739.03   780.65
                              783.07   804.22   816.61   916.91   965.87
                             1000.85  1029.93  1058.03  1073.09  1090.89
                             1103.12  1184.06  1201.07  1249.12  1266.53
                             1294.23  1369.97  1378.45  1384.42  1444.00
                             1509.52  1519.48  1570.69  1593.29  1661.59
                             1671.31  1693.32  1718.77  1791.25  1820.32
                             1867.28  1925.80  1961.21  2008.40  2019.14
                             2067.87  2123.63  2174.28  2191.18  2230.20
                             2292.15  2335.23  2387.14  2400.28  4597.39
                             4617.76  4621.47  4634.30  4636.42  4649.32
                             4653.63  4659.87  5208.81

 Zero-point correction=                           0.186741 (Hartree/Particle)
 Thermal correction to Energy=                    0.198379
 Thermal correction to Enthalpy=                  0.199323
 Thermal correction to Gibbs Free Energy=         0.148623
 Sum of electronic and zero-point Energies=          -1028.512168
 Sum of electronic and thermal Energies=             -1028.500530
 Sum of electronic and thermal Enthalpies=           -1028.499586
 Sum of electronic and thermal Free Energies=        -1028.550286

                     E (Thermal)             CV                S
                      KCal/Mol        Cal/Mol-Kelvin    Cal/Mol-Kelvin
 Total                  124.485             47.971            106.707
 Electronic               0.000              0.000              0.000
 Translational            0.889              2.981             42.162
 Rotational               0.889              2.981             32.529
 Vibrational            122.707             42.010             32.016
 Vibration     1          0.595              1.979              4.920
 Vibration     2          0.606              1.942              3.283
 Vibration     3          0.606              1.941              3.270
 Vibration     4          0.629              1.867              2.330
 Vibration     5          0.650              1.801              1.909
 Vibration     6          0.670              1.742              1.646
 Vibration     7          0.676              1.722              1.572
 Vibration     8          0.684              1.698              1.491
 Vibration     9          0.724              1.584              1.186
 Vibration    10          0.754              1.501              1.018
 Vibration    11          0.790              1.409              0.865
 Vibration    12          0.807              1.366              0.803
 Vibration    13          0.860              1.240              0.647
 Vibration    14          0.869              1.220              0.625
 Vibration    15          0.898              1.156              0.560
 Vibration    16          0.899              1.152              0.556
 Vibration    17          0.915              1.120              0.526
 Vibration    18          0.924              1.101              0.509

 Optimization completed.
    -- Stationary point found.
 Normal termination of Gaussian 16 at Tue Jul 14 11:15:46 2020.
