 Gaussian 16, Revision C.01,
 Gaussian 16:  ES64L-G16RevC.01  3-Jul-2019

 ----------------------------------------------------------------------
 #p opt=addgic freq td wb97xd/cc-pvdz nosymm int=ultrafine scrf=(solven
 t=CarbonTetraChloride)
 ----------------------------------------------------------------------

 ------------------------------------------------
 NM 2D-scan of HBT TD-WB97XD pVDZ in CTC Relaxed.
 ------------------------------------------------
 Symbolic Z-matrix:
 Charge =  0 Multiplicity = 1

 SCF Done:  E(RwB97XD) =  -1028.60062066     A.U. after   16 cycles
 Total Energy, E(TD-HF/TD-DFT) =  -1028.49599771
 SCF Done:  E(RwB97XD) =  -1028.74555336     A.U. after   14 cycles
 Total Energy, E(TD-HF/TD-DFT) =  -1028.64352681
 SCF Done:  E(RwB97XD) =  -1028.76488169     A.U. after   14 cycles
 Total Energy, E(TD-HF/TD-DFT) =  -1028.66793378
 SCF Done:  E(RwB97XD) =  -1028.78404005     A.U. after   14 cycles
 Total Energy, E(TD-HF/TD-DFT) =  -1028.68391411
 SCF Done:  E(RwB97XD) =  -1028.78309887     A.U. after   13 cycles
 Total Energy, E(TD-HF/TD-DFT) =  -1028.68402025
 SCF Done:  E(RwB97XD) =  -1028.78464793     A.U. after   12 cycles
 Total Energy, E(TD-HF/TD-DFT) =  -1028.68462406
 SCF Done:  E(RwB97XD) =  -1028.78484914     A.U. after   10 cycles
 Total Energy, E(TD-HF/TD-DFT) =  -1028.68463972
 SCF Done:  E(RwB97XD) =  -1028.78486272     A.U. after    9 cycles
 Total Energy, E(TD-HF/TD-DFT) =  -1028.68464118
 Optimization completed.
    -- Stationary point found.
 Normal termination of Gaussian 16 at Mon Jul 13 21:43:50 2020.

 ----------------------------------------------------------------------
 #P Geom=AllCheck Guess=TCheck SCRF=Check GenChk RwB97XD TD(FC,Read)/CC
 -pVDZ Freq
 ----------------------------------------------------------------------

 Structure from the checkpoint file:  "config_12_6.chk"
 ------------------------------------------------
 NM 2D-scan of HBT TD-WB97XD pVDZ in CTC Relaxed.
 ------------------------------------------------
 Charge =  0 Multiplicity = 1

                          Input orientation:
 ---------------------------------------------------------------------
 Center     Atomic      Atomic             Coordinates (Angstroms)
 Number     Number       Type             X           Y           Z
 ---------------------------------------------------------------------
      1          6           0        1.722052   -3.296453    0.000660
      2          6           0        1.030114   -2.091260    0.000261
      3          6           0        1.732427   -0.893384   -0.000396
      4          6           0        3.131189   -0.838242   -0.000665
      5          6           0        3.813396   -2.048926   -0.000265
      6          6           0        3.119771   -3.263638    0.000390
      7          1           0        1.190950   -4.248177    0.001160
      8          1           0        3.655167    0.118494   -0.001158
      9          1           0        4.904401   -2.047776   -0.000454
     10          1           0        3.674525   -4.202252    0.000690
     11          7           0        0.880001    0.163371   -0.000700
     12         16           0       -0.721304   -1.752786    0.000380
     13          6           0       -1.431954    1.074307   -0.000149
     14          6           0       -2.798867    0.898900   -0.000591
     15          6           0       -0.879886    2.455555    0.000583
     16          6           0       -3.713748    2.008356   -0.000384
     17          1           0       -3.217493   -0.111156   -0.001164
     18          6           0       -1.848173    3.524201    0.000728
     19          6           0       -3.238274    3.307036    0.000274
     20          1           0       -4.784943    1.801197   -0.000756
     21          1           0       -1.441171    4.537391    0.001362
     22          1           0       -3.930408    4.150627    0.000457
     23          6           0       -0.471527   -0.020797   -0.000234
     24          8           0        0.352530    2.630117    0.001193
     25          1           0        1.374758    1.017100   -0.001148
 ---------------------------------------------------------------------

 SCF Done:  E(RwB97XD) =  -1028.78486272     A.U. after    1 cycles

 Excitation energies and oscillator strengths:

 Excited state symmetry could not be determined.
 Excited State   1:      Singlet-?Sym    2.7272 eV  454.63 nm  f=0.4272  <S**2>=0.000
      59 -> 60         0.69691
 This state for optimization and/or second-order correction.
 Total Energy, E(TD-HF/TD-DFT) =  -1028.68464112
 Copying the excited state density for this state as the 1-particle RhoCI density.

 Excited state symmetry could not be determined.
 Excited State   2:      Singlet-?Sym    3.3563 eV  369.41 nm  f=0.0000  <S**2>=0.000
      58 -> 60         0.68409
      58 -> 62         0.11529
      58 -> 64         0.10475

 Excited state symmetry could not be determined.
 Excited State   3:      Singlet-?Sym    4.3221 eV  286.86 nm  f=0.4947  <S**2>=0.000
      57 -> 60         0.68204

 Alpha  occ. eigenvalues --  -89.10813 -19.20260 -14.52512 -10.42855 -10.37166
 Alpha  occ. eigenvalues --  -10.36323 -10.35479 -10.33708 -10.33359 -10.32929
 Alpha  occ. eigenvalues --  -10.32633 -10.31366 -10.31162 -10.30459 -10.28977
 Alpha  occ. eigenvalues --  -10.28030  -8.12765  -6.07656  -6.07259  -6.06782
 Alpha  occ. eigenvalues --   -1.13580  -1.09448  -0.98688  -0.95351  -0.93236
 Alpha  occ. eigenvalues --   -0.89156  -0.86702  -0.84250  -0.80537  -0.76090
 Alpha  occ. eigenvalues --   -0.74568  -0.71756  -0.69391  -0.67367  -0.64745
 Alpha  occ. eigenvalues --   -0.61028  -0.59869  -0.56520  -0.56294  -0.56007
 Alpha  occ. eigenvalues --   -0.55087  -0.53526  -0.53003  -0.50661  -0.48752
 Alpha  occ. eigenvalues --   -0.48721  -0.48155  -0.47029  -0.45593  -0.44807
 Alpha  occ. eigenvalues --   -0.44172  -0.42758  -0.42103  -0.39967  -0.36970
 Alpha  occ. eigenvalues --   -0.33878  -0.31613  -0.30739  -0.25308
 Alpha virt. eigenvalues --   -0.02283   0.03481   0.05841   0.06420   0.09757
 Alpha virt. eigenvalues --    0.10812   0.11981   0.14420   0.16001   0.16737
 Alpha virt. eigenvalues --    0.18256   0.19823   0.20897   0.21280   0.22862

 Mulliken charges:
               1
     1  C    0.011786
     2  C   -0.251679
     3  C    0.221609
     4  C   -0.012216
     5  C    0.014905
     6  C    0.002368
     7  H    0.027116
     8  H    0.035345
     9  H    0.029728
    10  H    0.028217
    11  N   -0.067083
    12  S    0.198479
    13  C   -0.096032
    14  C   -0.028884
    15  C    0.114723
    16  C   -0.041706
    17  H    0.000887
    18  C   -0.053691
    19  C    0.035441
    20  H    0.001256
    21  H   -0.002175
    22  H    0.013094
    23  C    0.086034
    24  O   -0.383570
    25  H    0.116049
 Sum of Mulliken charges =  -0.00000

 Dipole moment (field-independent basis, Debye):
    X=              2.6100    Y=             -6.0344    Z=             -0.0032  Tot=              6.5746
 Quadrupole moment (field-independent basis, Debye-Ang):
   XX=            -81.6552   YY=            -95.9803   ZZ=           -104.2166
   XY=             -6.2000   XZ=             -0.0040   YZ=             -0.0095

  Exact polarizability:     347.767    -118.799     291.315       0.007      -0.005      63.346
 Approx polarizability:     277.339     -41.126     265.992       0.002       0.000      82.082

 ******    1 imaginary frequencies (negative Signs) ******

                      1                      2                      3
                      A                      A                      A
 Frequencies --   -118.7059                13.8551                80.8907
 Red. masses --      4.6565                 5.5490                 5.1011
 Frc consts  --      0.0387                 0.0006                 0.0197
 IR Inten    --      6.9992                 0.0114                 1.5303

                      4                      5                      6
                      A                      A                      A
 Frequencies --    104.3037               158.0272               210.2431
 Red. masses --      5.7320                 3.8077                 4.8329
 Frc consts  --      0.0367                 0.0560                 0.1259
 IR Inten    --      7.1306                 3.7918                11.6049

                      7                      8                      9
                      A                      A                      A
 Frequencies --    254.1378               260.1557               304.0060
 Red. masses --      3.6367                 7.5033                 8.5590
 Frc consts  --      0.1384                 0.2992                 0.4661
 IR Inten    --      7.0895                 1.5889                 2.2766

                     10                     11                     12
                      A                      A                      A
 Frequencies --    336.8435               368.5217               370.9625
 Red. masses --      3.9075                 7.0534                 1.9868
 Frc consts  --      0.2612                 0.5644                 0.1611
 IR Inten    --      2.6988                 8.5989                36.4270

                     13                     14                     15
                      A                      A                      A
 Frequencies --    435.0055               450.7504               495.9928
 Red. masses --      4.1100                 2.4364                 7.9665
 Frc consts  --      0.4582                 0.2917                 1.1547
 IR Inten    --      6.8563                 3.1690                11.2135

                     16                     17                     18
                      A                      A                      A
 Frequencies --    514.8400               537.9059               548.7214
 Red. masses --      3.2371                 8.2308                 7.0870
 Frc consts  --      0.5055                 1.4032                 1.2572
 IR Inten    --      0.8448                 9.4359                51.5283

                     19                     20                     21
                      A                      A                      A
 Frequencies --    558.9330               565.5496               643.6382
 Red. masses --      3.7007                 7.3892                 6.2862
 Frc consts  --      0.6812                 1.3925                 1.5343
 IR Inten    --      0.0785                 5.8015                21.1209

                     22                     23                     24
                      A                      A                      A
 Frequencies --    686.0233               693.6122               733.0739
 Red. masses --      1.5409                 5.9942                 7.6763
 Frc consts  --      0.4273                 1.6991                 2.4305
 IR Inten    --     29.4806                 2.1106                 5.2028

                     25                     26                     27
                      A                      A                      A
 Frequencies --    742.8518               758.7513               767.5379
 Red. masses --      2.5373                 1.7041                 1.6568
 Frc consts  --      0.8250                 0.5780                 0.5751
 IR Inten    --     14.9449                11.5126                92.3554

                     28                     29                     30
                      A                      A                      A
 Frequencies --    810.7664               841.9696               862.2646
 Red. masses --      6.3755                 1.9086                 1.3804
 Frc consts  --      2.4692                 0.7972                 0.6047
 IR Inten    --     16.9769                 1.3228                 1.3939

                     31                     32                     33
                      A                      A                      A
 Frequencies --    901.3670               905.2169               953.7250
 Red. masses --      5.9099                 1.4361                 1.3568
 Frc consts  --      2.8290                 0.6933                 0.7271
 IR Inten    --      0.9322                 9.4897                 0.5019

                     34                     35                     36
                      A                      A                      A
 Frequencies --    957.4561               962.6395              1004.2103
 Red. masses --      1.3489                 4.8319                 1.2932
 Frc consts  --      0.7285                 2.6381                 0.7684
 IR Inten    --      1.6245                 1.4908                 0.0000

                     37                     38                     39
                      A                      A                      A
 Frequencies --   1031.1934              1056.9834              1081.7761
 Red. masses --      2.3447                 2.3721                 3.2517
 Frc consts  --      1.4690                 1.5614                 2.2420
 IR Inten    --      2.8163                14.4636                 3.3069

                     40                     41                     42
                      A                      A                      A
 Frequencies --   1094.0333              1147.3150              1153.3444
 Red. masses --      1.7545                 1.4016                 1.3490
 Frc consts  --      1.2373                 1.0871                 1.0572
 IR Inten    --     42.3375               156.5963                 5.6885

                     43                     44                     45
                      A                      A                      A
 Frequencies --   1162.6664              1182.2652              1227.8911
 Red. masses --      1.2084                 1.1302                 3.3189
 Frc consts  --      0.9624                 0.9307                 2.9483
 IR Inten    --      0.9853                 6.2529                21.5783

                     46                     47                     48
                      A                      A                      A
 Frequencies --   1240.8726              1301.4294              1335.1885
 Red. masses --      2.3894                 1.5734                 3.0725
 Frc consts  --      2.1676                 1.5701                 3.2272
 IR Inten    --     38.1925                 7.1073                27.4130

                     49                     50                     51
                      A                      A                      A
 Frequencies --   1362.2468              1390.1497              1405.8457
 Red. masses --      2.4919                 2.2295                 5.9247
 Frc consts  --      2.7246                 2.5385                 6.8991
 IR Inten    --     31.8065                47.7357                66.7777

                     52                     53                     54
                      A                      A                      A
 Frequencies --   1449.4339              1464.2290              1514.5123
 Red. masses --      2.8615                 3.0362                 3.6403
 Frc consts  --      3.5419                 3.8353                 4.9196
 IR Inten    --     89.2065                 6.5992               105.3867

                     55                     56                     57
                      A                      A                      A
 Frequencies --   1527.7387              1557.1953              1619.5225
 Red. masses --      2.7664                 5.9673                 5.2961
 Frc consts  --      3.8042                 8.5253                 8.1842
 IR Inten    --      3.0425               179.3194               103.5093

                     58                     59                     60
                      A                      A                      A
 Frequencies --   1654.8168              1664.8133              1689.6628
 Red. masses --      9.4152                 6.9284                 7.3781
 Frc consts  --     15.1908                11.3140                12.4107
 IR Inten    --    145.1400               106.7847                34.1664

                     61                     62                     63
                      A                      A                      A
 Frequencies --   3184.8494              3205.3150              3213.5437
 Red. masses --      1.0896                 1.0862                 1.0866
 Frc consts  --      6.5119                 6.5748                 6.6114
 IR Inten    --     23.0489                 2.3754                 6.4428

                     64                     65                     66
                      A                      A                      A
 Frequencies --   3218.1003              3225.9701              3232.0437
 Red. masses --      1.0914                 1.0902                 1.0988
 Frc consts  --      6.6593                 6.6846                 6.7629
 IR Inten    --     11.8085                 1.8468                26.7567

                     67                     68                     69
                      A                      A                      A
 Frequencies --   3232.8019              3242.6944              3927.3981
 Red. masses --      1.0963                 1.0989                 1.0786
 Frc consts  --      6.7504                 6.8082                 9.8020
 IR Inten    --      5.7652                13.0730               285.8256

 - Thermochemistry -
 -------------------
 Temperature   298.150 Kelvin.  Pressure   1.00000 Atm.
 Atom     1 has atomic number  6 and mass  12.00000

 Molecular mass:   227.04049 amu.
 Principal axes and moments of inertia in atomic units:
                           1         2         3
     Eigenvalues --  1285.094526524.932557810.02655
           X           -0.70611   0.70810  -0.00001
           Y            0.70810   0.70611  -0.00004
           Z            0.00002   0.00004   1.00000
 This molecule is an asymmetric top.
 Rotational symmetry number  1.
 Warning -- assumption of classical behavior for rotation
           may cause significant error
 Rotational temperatures (Kelvin)      0.06740     0.01327     0.01109
 Rotational constants (GHZ):           1.40436     0.27659     0.23108
    1 imaginary frequencies ignored.
 Zero-point vibrational energy     489228.3 (Joules/Mol)
                                  116.92838 (Kcal/Mol)
 Warning -- explicit consideration of  19 degrees of freedom as
           vibrations may cause significant error
 Vibrational temperatures:     19.93   116.38   150.07   227.37   302.49
          (Kelvin)            365.65   374.31   437.40   484.64   530.22
                              533.73   625.88   648.53   713.62   740.74
                              773.93   789.49   804.18   813.70   926.05
                              987.03   997.95  1054.73  1068.80  1091.67
                             1104.32  1166.51  1211.41  1240.61  1296.87
                             1302.41  1372.20  1377.57  1385.02  1444.83
                             1483.66  1520.76  1556.43  1574.07  1650.73
                             1659.41  1672.82  1701.02  1766.66  1785.34
                             1872.47  1921.04  1959.97  2000.12  2022.70
                             2085.41  2106.70  2179.05  2198.08  2240.46
                             2330.13  2380.91  2395.29  2431.05  4582.29
                             4611.73  4623.57  4630.13  4641.45  4650.19
                             4651.28  4665.51  5650.65

 Zero-point correction=                           0.186337 (Hartree/Particle)
 Thermal correction to Energy=                    0.198438
 Thermal correction to Enthalpy=                  0.199382
 Thermal correction to Gibbs Free Energy=         0.146565
 Sum of electronic and zero-point Energies=          -1028.498304
 Sum of electronic and thermal Energies=             -1028.486203
 Sum of electronic and thermal Enthalpies=           -1028.485259
 Sum of electronic and thermal Free Energies=        -1028.538076

                     E (Thermal)             CV                S
                      KCal/Mol        Cal/Mol-Kelvin    Cal/Mol-Kelvin
 Total                  124.522             48.868            111.164
 Electronic               0.000              0.000              0.000
 Translational            0.889              2.981             42.162
 Rotational               0.889              2.981             32.549
 Vibrational            122.744             42.906             36.453
 Vibration     1          0.593              1.986              7.363
 Vibration     2          0.600              1.962              3.869
 Vibration     3          0.605              1.946              3.372
 Vibration     4          0.621              1.894              2.573
 Vibration     5          0.642              1.825              2.042
 Vibration     6          0.665              1.756              1.702
 Vibration     7          0.668              1.746              1.661
 Vibration     8          0.695              1.666              1.395
 Vibration     9          0.718              1.602              1.227
 Vibration    10          0.741              1.537              1.086
 Vibration    11          0.743              1.532              1.076
 Vibration    12          0.796              1.394              0.842
 Vibration    13          0.810              1.359              0.794
 Vibration    14          0.852              1.259              0.668
 Vibration    15          0.870              1.217              0.622
 Vibration    16          0.893              1.166              0.570
 Vibration    17          0.904              1.142              0.547
 Vibration    18          0.915              1.120              0.526
 Vibration    19          0.921              1.106              0.513

                           ! Non-Optimized Parameters !
 Normal termination of Gaussian 16 at Mon Jul 13 22:01:10 2020.
