 Gaussian 16, Revision C.01,
 Gaussian 16:  ES64L-G16RevC.01  3-Jul-2019

 ----------------------------------------------------------------------
 #p opt=addgic freq td wb97xd/cc-pvdz nosymm int=ultrafine scrf=(solven
 t=CarbonTetraChloride)
 ----------------------------------------------------------------------

 ------------------------------------------------
 NM 2D-scan of HBT TD-WB97XD pVDZ in CTC Relaxed.
 ------------------------------------------------
 Symbolic Z-matrix:
 Charge =  0 Multiplicity = 1

 SCF Done:  E(RwB97XD) =  -1028.80863034     A.U. after   15 cycles
 Total Energy, E(TD-HF/TD-DFT) =  -1028.67873496
 SCF Done:  E(RwB97XD) =  -1028.81774984     A.U. after   13 cycles
 Total Energy, E(TD-HF/TD-DFT) =  -1028.68934097
 SCF Done:  E(RwB97XD) =  -1028.81656110     A.U. after   12 cycles
 Total Energy, E(TD-HF/TD-DFT) =  -1028.69016953
 SCF Done:  E(RwB97XD) =  -1028.81737593     A.U. after   11 cycles
 Total Energy, E(TD-HF/TD-DFT) =  -1028.69066798
 SCF Done:  E(RwB97XD) =  -1028.81750963     A.U. after   10 cycles
 Total Energy, E(TD-HF/TD-DFT) =  -1028.69068671
 SCF Done:  E(RwB97XD) =  -1028.81752100     A.U. after    9 cycles
 Total Energy, E(TD-HF/TD-DFT) =  -1028.69068866
 Optimization completed.
    -- Stationary point found.
 Normal termination of Gaussian 16 at Mon Jul 13 14:11:04 2020.

 ----------------------------------------------------------------------
 #P Geom=AllCheck Guess=TCheck SCRF=Check GenChk RwB97XD TD(FC,Read)/CC
 -pVDZ Freq
 ----------------------------------------------------------------------

 Structure from the checkpoint file:  "config_4_5.chk"
 ------------------------------------------------
 NM 2D-scan of HBT TD-WB97XD pVDZ in CTC Relaxed.
 ------------------------------------------------
 Charge =  0 Multiplicity = 1

                          Input orientation:
 ---------------------------------------------------------------------
 Center     Atomic      Atomic             Coordinates (Angstroms)
 Number     Number       Type             X           Y           Z
 ---------------------------------------------------------------------
      1          6           0        1.706131   -3.285697   -0.000032
      2          6           0        0.985389   -2.092109   -0.000011
      3          6           0        1.669780   -0.835017   -0.000002
      4          6           0        3.086311   -0.798196   -0.000011
      5          6           0        3.782385   -1.987370   -0.000032
      6          6           0        3.102593   -3.223824   -0.000043
      7          1           0        1.197386   -4.250549   -0.000039
      8          1           0        3.589037    0.169498   -0.000004
      9          1           0        4.873801   -1.976433   -0.000041
     10          1           0        3.676207   -4.151891   -0.000059
     11          7           0        0.893385    0.249761    0.000014
     12         16           0       -0.754198   -1.812028    0.000005
     13          6           0       -1.382848    1.016452    0.000015
     14          6           0       -2.794902    0.864659    0.000001
     15          6           0       -0.885873    2.416896    0.000028
     16          6           0       -3.641593    1.967786    0.000016
     17          1           0       -3.219606   -0.140711   -0.000019
     18          6           0       -1.774815    3.502357    0.000047
     19          6           0       -3.144765    3.292258    0.000043
     20          1           0       -4.720630    1.804761    0.000008
     21          1           0       -1.337267    4.501073    0.000062
     22          1           0       -3.833242    4.137491    0.000058
     23          6           0       -0.435019   -0.036591    0.000016
     24          8           0        0.394508    2.699198    0.000027
     25          1           0        0.894751    1.802673    0.000049
 ---------------------------------------------------------------------

 SCF Done:  E(RwB97XD) =  -1028.81752100     A.U. after    1 cycles

 Excitation energies and oscillator strengths:

 Excited state symmetry could not be determined.
 Excited State   1:      Singlet-?Sym    3.4513 eV  359.24 nm  f=0.6561  <S**2>=0.000
      59 -> 60         0.69006
 This state for optimization and/or second-order correction.
 Total Energy, E(TD-HF/TD-DFT) =  -1028.69068867
 Copying the excited state density for this state as the 1-particle RhoCI density.

 Excited state symmetry could not be determined.
 Excited State   2:      Singlet-?Sym    4.3872 eV  282.61 nm  f=0.2685  <S**2>=0.000
      57 -> 60         0.20184
      58 -> 60         0.63320
      59 -> 62         0.12456
      59 -> 64         0.11179

 Excited state symmetry could not be determined.
 Excited State   3:      Singlet-?Sym    4.6079 eV  269.07 nm  f=0.0453  <S**2>=0.000
      57 -> 60         0.57903
      57 -> 62        -0.14028
      58 -> 60        -0.19315
      58 -> 61        -0.14100
      59 -> 61         0.24211

 Alpha  occ. eigenvalues --  -89.09299 -19.27875 -14.47082 -10.40086 -10.38060
 Alpha  occ. eigenvalues --  -10.35014 -10.34975 -10.32767 -10.32356 -10.32271
 Alpha  occ. eigenvalues --  -10.31843 -10.31511 -10.31453 -10.31361 -10.30359
 Alpha  occ. eigenvalues --  -10.30118  -8.11172  -6.06033  -6.05690  -6.05222
 Alpha  occ. eigenvalues --   -1.16844  -1.08502  -0.96683  -0.95563  -0.91628
 Alpha  occ. eigenvalues --   -0.88821  -0.84884  -0.84348  -0.82376  -0.75963
 Alpha  occ. eigenvalues --   -0.71006  -0.70188  -0.69067  -0.68321  -0.63348
 Alpha  occ. eigenvalues --   -0.60416  -0.58825  -0.58571  -0.55773  -0.54382
 Alpha  occ. eigenvalues --   -0.53818  -0.53035  -0.52813  -0.51043  -0.50297
 Alpha  occ. eigenvalues --   -0.49435  -0.47776  -0.45913  -0.45541  -0.44733
 Alpha  occ. eigenvalues --   -0.43782  -0.42793  -0.42419  -0.40051  -0.37029
 Alpha  occ. eigenvalues --   -0.36461  -0.32274  -0.31335  -0.27920
 Alpha virt. eigenvalues --   -0.01803   0.05037   0.07017   0.07178   0.07234
 Alpha virt. eigenvalues --    0.11048   0.13165   0.15107   0.15959   0.17935
 Alpha virt. eigenvalues --    0.18632   0.20906   0.21704   0.22352   0.22649

 Mulliken charges:
               1
     1  C    0.009572
     2  C   -0.226320
     3  C    0.245188
     4  C   -0.015894
     5  C    0.009574
     6  C   -0.007534
     7  H    0.019404
     8  H    0.017922
     9  H    0.019230
    10  H    0.021000
    11  N   -0.353924
    12  S    0.157504
    13  C   -0.100081
    14  C   -0.016516
    15  C    0.093112
    16  C   -0.016971
    17  H    0.010657
    18  C    0.008740
    19  C    0.023226
    20  H    0.010916
    21  H    0.017602
    22  H    0.021944
    23  C    0.082688
    24  O   -0.212091
    25  H    0.181050
 Sum of Mulliken charges =  -0.00000

 Dipole moment (field-independent basis, Debye):
    X=             -0.1934    Y=             -2.1207    Z=              0.0000  Tot=              2.1295
 Quadrupole moment (field-independent basis, Debye-Ang):
   XX=            -83.2772   YY=            -89.3239   ZZ=           -104.4432
   XY=             -6.9349   XZ=             -0.0001   YZ=              0.0003

  Exact polarizability:     398.816    -185.688     376.366      -0.002       0.003      63.481
 Approx polarizability:     279.207     -36.264     262.209      -0.001       0.002      82.459

                      1                      2                      3
                      A                      A                      A
 Frequencies --     38.9483                50.8618               106.7231
 Red. masses --      5.8249                 6.7485                 4.6120
 Frc consts  --      0.0052                 0.0103                 0.0309
 IR Inten    --      1.4750                 0.0388                 0.2211

                      4                      5                      6
                      A                      A                      A
 Frequencies --    112.4086               179.0515               223.2959
 Red. masses --      5.6065                 6.3217                 5.3626
 Frc consts  --      0.0417                 0.1194                 0.1575
 IR Inten    --      1.7184                 0.9034                 0.0071

                      7                      8                      9
                      A                      A                      A
 Frequencies --    265.9273               268.6782               308.1336
 Red. masses --      7.6251                 4.8105                 6.6535
 Frc consts  --      0.3177                 0.2046                 0.3722
 IR Inten    --     23.9648                 0.1634                 6.0490

                     10                     11                     12
                      A                      A                      A
 Frequencies --    389.2490               395.9225               438.1164
 Red. masses --      4.7060                 9.1308                 3.2509
 Frc consts  --      0.4201                 0.8433                 0.3676
 IR Inten    --      0.2297                11.9227                 4.5747

                     13                     14                     15
                      A                      A                      A
 Frequencies --    490.0486               498.6071               500.7648
 Red. masses --      4.5790                 7.1146                 3.1497
 Frc consts  --      0.6479                 1.0421                 0.4654
 IR Inten    --      0.1934                 9.4303                 0.0000

                     16                     17                     18
                      A                      A                      A
 Frequencies --    511.4507               526.5931               551.7600
 Red. masses --      5.1566                 8.2238                 3.9713
 Frc consts  --      0.7947                 1.3436                 0.7123
 IR Inten    --     23.0565                20.7088                 0.1211

                     19                     20                     21
                      A                      A                      A
 Frequencies --    579.6718               639.3278               686.3383
 Red. masses --      7.6300                 6.7628                 8.2433
 Frc consts  --      1.5106                 1.6286                 2.2878
 IR Inten    --     28.0171                56.1980                13.2775

                     22                     23                     24
                      A                      A                      A
 Frequencies --    711.2421               714.2482               736.0853
 Red. masses --      1.7694                 7.7925                 1.9255
 Frc consts  --      0.5274                 2.3422                 0.6147
 IR Inten    --     42.2933                15.9164                27.2710

                     25                     26                     27
                      A                      A                      A
 Frequencies --    753.1372               770.4876               807.6503
 Red. masses --      1.8787                 2.0067                 6.4104
 Frc consts  --      0.6279                 0.7019                 2.4637
 IR Inten    --     29.7729                53.7187                13.0846

                     28                     29                     30
                      A                      A                      A
 Frequencies --    822.5286               859.2989               895.2757
 Red. masses --      1.6238                 1.4221                 6.4368
 Frc consts  --      0.6473                 0.6187                 3.0397
 IR Inten    --      0.4202                 0.8312                47.7622

                     31                     32                     33
                      A                      A                      A
 Frequencies --    918.1608               953.3084               960.2380
 Red. masses --      1.3509                 1.3429                 7.1147
 Frc consts  --      0.6710                 0.7190                 3.8651
 IR Inten    --      6.5526                 1.7295                 7.1290

                     34                     35                     36
                      A                      A                      A
 Frequencies --    963.7795               999.6524              1030.1449
 Red. masses --      1.3621                 1.2975                 1.0652
 Frc consts  --      0.7455                 0.7639                 0.6660
 IR Inten    --      0.2803                 0.1786                65.9987

                     37                     38                     39
                      A                      A                      A
 Frequencies --   1037.2239              1041.7976              1072.5884
 Red. masses --      2.2104                 2.1578                 4.5957
 Frc consts  --      1.4011                 1.3798                 3.1151
 IR Inten    --      2.1905                 0.8739                46.5789

                     40                     41                     42
                      A                      A                      A
 Frequencies --   1132.4254              1147.0819              1174.0169
 Red. masses --      1.4786                 1.3138                 1.1298
 Frc consts  --      1.1172                 1.0185                 0.9175
 IR Inten    --     63.9850                14.0229                11.0293

                     43                     44                     45
                      A                      A                      A
 Frequencies --   1177.3402              1235.9981              1240.8431
 Red. masses --      1.1805                 5.5992                 1.7143
 Frc consts  --      0.9641                 5.0398                 1.5551
 IR Inten    --     39.5275                73.0200               146.4149

                     46                     47                     48
                      A                      A                      A
 Frequencies --   1281.3032              1302.5005              1365.2977
 Red. masses --      1.6665                 3.3789                 2.8488
 Frc consts  --      1.6120                 3.3774                 3.1287
 IR Inten    --     10.7397               302.7751                31.5377

                     49                     50                     51
                      A                      A                      A
 Frequencies --   1376.1477              1402.4215              1441.7175
 Red. masses --      5.1190                 2.0243                 2.5742
 Frc consts  --      5.7117                 2.3458                 3.1525
 IR Inten    --     51.3729                 2.5614               155.2470

                     52                     53                     54
                      A                      A                      A
 Frequencies --   1476.7725              1505.6982              1523.5618
 Red. masses --      3.3522                 4.2251                 3.6015
 Frc consts  --      4.3074                 5.6437                 4.9255
 IR Inten    --    102.1110               116.4630               144.0934

                     55                     56                     57
                      A                      A                      A
 Frequencies --   1529.1181              1553.4998              1595.0499
 Red. masses --      4.7603                 5.3741                 3.5599
 Frc consts  --      6.5579                 7.6414                 5.3363
 IR Inten    --    185.0047               528.6399               191.7442

                     58                     59                     60
                      A                      A                      A
 Frequencies --   1620.1707              1629.7943              1654.5959
 Red. masses --      3.9262                 2.6405                 4.6328
 Frc consts  --      6.0721                 4.1323                 7.4727
 IR Inten    --    190.6914               588.1270                85.8572

                     61                     62                     63
                      A                      A                      A
 Frequencies --   2582.1625              3204.7859              3207.4405
 Red. masses --      1.0860                 1.0871                 1.0862
 Frc consts  --      4.2662                 6.5783                 6.5837
 IR Inten    --    206.3334                 5.7098                 8.9972

                     64                     65                     66
                      A                      A                      A
 Frequencies --   3217.7392              3218.1091              3226.2612
 Red. masses --      1.0890                 1.0898                 1.0935
 Frc consts  --      6.6432                 6.6496                 6.7060
 IR Inten    --      1.5521                 3.0279                19.1152

                     67                     68                     69
                      A                      A                      A
 Frequencies --   3229.4830              3235.9418              3238.5702
 Red. masses --      1.0953                 1.0992                 1.0989
 Frc consts  --      6.7307                 6.7815                 6.7905
 IR Inten    --     10.8190                41.0883                21.5132

 - Thermochemistry -
 -------------------
 Temperature   298.150 Kelvin.  Pressure   1.00000 Atm.
 Atom     1 has atomic number  6 and mass  12.00000

 Molecular mass:   227.04049 amu.
 Principal axes and moments of inertia in atomic units:
                           1         2         3
     Eigenvalues --  1344.212796338.104597682.31738
           X           -0.69899   0.71513   0.00000
           Y            0.71513   0.69899  -0.00001
           Z            0.00001   0.00000   1.00000
 This molecule is an asymmetric top.
 Rotational symmetry number  1.
 Warning -- assumption of classical behavior for rotation
           may cause significant error
 Rotational temperatures (Kelvin)      0.06443     0.01367     0.01127
 Rotational constants (GHZ):           1.34260     0.28474     0.23492
 Zero-point vibrational energy     487685.1 (Joules/Mol)
                                  116.55953 (Kcal/Mol)
 Warning -- explicit consideration of  19 degrees of freedom as
           vibrations may cause significant error
 Vibrational temperatures:     56.04    73.18   153.55   161.73   257.62
          (Kelvin)            321.27   382.61   386.57   443.34   560.04
                              569.64   630.35   705.07   717.38   720.49
                              735.86   757.65   793.86   834.02   919.85
                              987.49  1023.32  1027.64  1059.06  1083.60
                             1108.56  1162.03  1183.44  1236.34  1288.10
                             1321.03  1371.60  1381.57  1386.66  1438.28
                             1482.15  1492.33  1498.91  1543.22  1629.31
                             1650.40  1689.15  1693.93  1778.33  1785.30
                             1843.51  1874.01  1964.36  1979.97  2017.77
                             2074.31  2124.75  2166.36  2192.07  2200.06
                             2235.14  2294.92  2331.06  2344.91  2380.59
                             3715.16  4610.97  4614.79  4629.61  4630.14
                             4641.87  4646.51  4655.80  4659.58

 Zero-point correction=                           0.185749 (Hartree/Particle)
 Thermal correction to Energy=                    0.198085
 Thermal correction to Enthalpy=                  0.199030
 Thermal correction to Gibbs Free Energy=         0.146109
 Sum of electronic and zero-point Energies=          -1028.504939
 Sum of electronic and thermal Energies=             -1028.492603
 Sum of electronic and thermal Enthalpies=           -1028.491659
 Sum of electronic and thermal Free Energies=        -1028.544580

                     E (Thermal)             CV                S
                      KCal/Mol        Cal/Mol-Kelvin    Cal/Mol-Kelvin
 Total                  124.300             49.317            111.381
 Electronic               0.000              0.000              0.000
 Translational            0.889              2.981             42.162
 Rotational               0.889              2.981             32.548
 Vibrational            122.523             43.355             36.671
 Vibration     1          0.594              1.981              5.312
 Vibration     2          0.595              1.977              4.784
 Vibration     3          0.606              1.944              3.328
 Vibration     4          0.607              1.939              3.227
 Vibration     5          0.629              1.868              2.338
 Vibration     6          0.649              1.806              1.932
 Vibration     7          0.672              1.736              1.623
 Vibration     8          0.673              1.731              1.605
 Vibration     9          0.698              1.658              1.372
 Vibration    10          0.757              1.493              1.003
 Vibration    11          0.763              1.479              0.978
 Vibration    12          0.798              1.387              0.833
 Vibration    13          0.846              1.272              0.683
 Vibration    14          0.854              1.253              0.662
 Vibration    15          0.856              1.248              0.656
 Vibration    16          0.867              1.225              0.630
 Vibration    17          0.882              1.191              0.595
 Vibration    18          0.907              1.136              0.541
 Vibration    19          0.936              1.075              0.486

 Optimization completed.
    -- Stationary point found.
 Normal termination of Gaussian 16 at Mon Jul 13 14:28:43 2020.
