 Gaussian 16, Revision C.01,
 Gaussian 16:  ES64L-G16RevC.01  3-Jul-2019

 ----------------------------------------------------------------------
 #p opt=addgic freq td wb97xd/cc-pvdz nosymm int=ultrafine scrf=(solven
 t=CarbonTetraChloride)
 ----------------------------------------------------------------------

 ------------------------------------------------
 NM 2D-scan of HBT TD-WB97XD pVDZ in CTC Relaxed.
 ------------------------------------------------
 Symbolic Z-matrix:
 Charge =  0 Multiplicity = 1

 SCF Done:  E(RwB97XD) =  -1028.62732369     A.U. after   16 cycles
 Total Energy, E(TD-HF/TD-DFT) =  -1028.52278979
 SCF Done:  E(RwB97XD) =  -1028.75375718     A.U. after   14 cycles
 Total Energy, E(TD-HF/TD-DFT) =  -1028.65173821
 SCF Done:  E(RwB97XD) =  -1028.76266343     A.U. after   14 cycles
 Total Energy, E(TD-HF/TD-DFT) =  -1028.66536541
 SCF Done:  E(RwB97XD) =  -1028.78340166     A.U. after   14 cycles
 Total Energy, E(TD-HF/TD-DFT) =  -1028.68240759
 SCF Done:  E(RwB97XD) =  -1028.78167908     A.U. after   13 cycles
 Total Energy, E(TD-HF/TD-DFT) =  -1028.68241454
 SCF Done:  E(RwB97XD) =  -1028.78365812     A.U. after   12 cycles
 Total Energy, E(TD-HF/TD-DFT) =  -1028.68333690
 SCF Done:  E(RwB97XD) =  -1028.78393417     A.U. after   11 cycles
 Total Energy, E(TD-HF/TD-DFT) =  -1028.68335580
 SCF Done:  E(RwB97XD) =  -1028.78392592     A.U. after    9 cycles
 Total Energy, E(TD-HF/TD-DFT) =  -1028.68335783
 Optimization completed.
    -- Stationary point found.
 Normal termination of Gaussian 16 at Tue Jul 14 11:48:09 2020.

 ----------------------------------------------------------------------
 #P Geom=AllCheck Guess=TCheck SCRF=Check GenChk RwB97XD TD(FC,Read)/CC
 -pVDZ Freq
 ----------------------------------------------------------------------

 Structure from the checkpoint file:  "config_12_4_fixed.chk"
 ------------------------------------------------
 NM 2D-scan of HBT TD-WB97XD pVDZ in CTC Relaxed.
 ------------------------------------------------
 Charge =  0 Multiplicity = 1

                          Input orientation:
 ---------------------------------------------------------------------
 Center     Atomic      Atomic             Coordinates (Angstroms)
 Number     Number       Type             X           Y           Z
 ---------------------------------------------------------------------
      1          6           0        1.749725   -3.294689    0.000020
      2          6           0        1.033349   -2.103266   -0.000003
      3          6           0        1.716542   -0.894615   -0.000044
      4          6           0        3.113869   -0.810682   -0.000046
      5          6           0        3.819169   -2.007239   -0.000017
      6          6           0        3.147307   -3.234277    0.000012
      7          1           0        1.238722   -4.257348    0.000043
      8          1           0        3.617403    0.156852   -0.000071
      9          1           0        4.909958   -1.986182   -0.000020
     10          1           0        3.719277   -4.162532    0.000028
     11          7           0        0.849854    0.147094   -0.000086
     12         16           0       -0.726372   -1.786922   -0.000007
     13          6           0       -1.444679    1.063683   -0.000006
     14          6           0       -2.815465    0.919861   -0.000043
     15          6           0       -0.867891    2.439025    0.000062
     16          6           0       -3.708911    2.047500    0.000017
     17          1           0       -3.255106   -0.081134   -0.000125
     18          6           0       -1.816214    3.525241    0.000109
     19          6           0       -3.209424    3.337206    0.000098
     20          1           0       -4.783783    1.860485   -0.000009
     21          1           0       -1.386923    4.529155    0.000173
     22          1           0       -3.884516    4.194426    0.000144
     23          6           0       -0.498772   -0.047354   -0.000070
     24          8           0        0.365950    2.603766    0.000052
     25          1           0        1.327273    1.010798   -0.000141
 ---------------------------------------------------------------------

 SCF Done:  E(RwB97XD) =  -1028.78392592     A.U. after    1 cycles

 Excitation energies and oscillator strengths:

 Excited state symmetry could not be determined.
 Excited State   1:      Singlet-?Sym    2.7366 eV  453.06 nm  f=0.4250  <S**2>=0.000
      59 -> 60         0.69665
 This state for optimization and/or second-order correction.
 Total Energy, E(TD-HF/TD-DFT) =  -1028.68335781
 Copying the excited state density for this state as the 1-particle RhoCI density.

 Excited state symmetry could not be determined.
 Excited State   2:      Singlet-?Sym    3.3826 eV  366.53 nm  f=0.0000  <S**2>=0.000
      58 -> 60         0.68401
      58 -> 62         0.11591
      58 -> 64         0.10547

 Excited state symmetry could not be determined.
 Excited State   3:      Singlet-?Sym    4.3286 eV  286.43 nm  f=0.5037  <S**2>=0.000
      57 -> 60         0.68172

 Alpha  occ. eigenvalues --  -89.10880 -19.20370 -14.52331 -10.42883 -10.37117
 Alpha  occ. eigenvalues --  -10.36358 -10.35576 -10.33734 -10.33327 -10.32920
 Alpha  occ. eigenvalues --  -10.32639 -10.31374 -10.31281 -10.30442 -10.28975
 Alpha  occ. eigenvalues --  -10.28021  -8.12809  -6.07703  -6.07305  -6.06824
 Alpha  occ. eigenvalues --   -1.13624  -1.09561  -0.98680  -0.95227  -0.93219
 Alpha  occ. eigenvalues --   -0.89184  -0.86656  -0.84280  -0.80528  -0.76123
 Alpha  occ. eigenvalues --   -0.74504  -0.71685  -0.69387  -0.67349  -0.64742
 Alpha  occ. eigenvalues --   -0.61002  -0.59881  -0.56533  -0.56286  -0.55985
 Alpha  occ. eigenvalues --   -0.55078  -0.53507  -0.52987  -0.50726  -0.48795
 Alpha  occ. eigenvalues --   -0.48725  -0.48124  -0.47008  -0.45594  -0.44780
 Alpha  occ. eigenvalues --   -0.44232  -0.42748  -0.42061  -0.40016  -0.36968
 Alpha  occ. eigenvalues --   -0.33882  -0.31613  -0.30829  -0.25334
 Alpha virt. eigenvalues --   -0.02284   0.03481   0.05895   0.06380   0.09725
 Alpha virt. eigenvalues --    0.10768   0.11597   0.14428   0.16014   0.16820
 Alpha virt. eigenvalues --    0.18395   0.19829   0.20921   0.21291   0.22912

 Mulliken charges:
               1
     1  C    0.010684
     2  C   -0.253795
     3  C    0.226246
     4  C   -0.012248
     5  C    0.015402
     6  C    0.001895
     7  H    0.027461
     8  H    0.036014
     9  H    0.029757
    10  H    0.028250
    11  N   -0.063609
    12  S    0.197525
    13  C   -0.104508
    14  C   -0.026113
    15  C    0.117321
    16  C   -0.042204
    17  H   -0.000104
    18  C   -0.051300
    19  C    0.035667
    20  H    0.001438
    21  H   -0.002141
    22  H    0.012963
    23  C    0.085023
    24  O   -0.384872
    25  H    0.115248
 Sum of Mulliken charges =  -0.00000

 Dipole moment (field-independent basis, Debye):
    X=              2.5618    Y=             -5.9678    Z=             -0.0003  Tot=              6.4944
 Quadrupole moment (field-independent basis, Debye-Ang):
   XX=            -81.8087   YY=            -95.7173   ZZ=           -104.2399
   XY=             -6.2671   XZ=             -0.0003   YZ=             -0.0003

  Exact polarizability:     348.089    -119.152     292.105      -0.001       0.003      63.372
 Approx polarizability:     277.501     -41.169     266.512      -0.001       0.002      82.115

 ******    1 imaginary frequencies (negative Signs) ******

                      1                      2                      3
                      A                      A                      A
 Frequencies --   -121.8178                22.5911                82.0379
 Red. masses --      5.5313                 5.6747                 4.9370
 Frc consts  --      0.0484                 0.0017                 0.0196
 IR Inten    --      5.0437                 0.1300                 0.9778

                      4                      5                      6
                      A                      A                      A
 Frequencies --    106.6540               158.1802               215.9375
 Red. masses --      5.7484                 4.0162                 5.1627
 Frc consts  --      0.0385                 0.0592                 0.1418
 IR Inten    --      7.3439                 2.1477                 8.2188

                      7                      8                      9
                      A                      A                      A
 Frequencies --    256.3110               260.7131               311.6943
 Red. masses --      3.7294                 7.5043                 8.2985
 Frc consts  --      0.1444                 0.3005                 0.4750
 IR Inten    --      6.4221                 1.4537                 2.1818

                     10                     11                     12
                      A                      A                      A
 Frequencies --    338.2770               367.1291               388.7897
 Red. masses --      4.1326                 7.2829                 2.0357
 Frc consts  --      0.2786                 0.5784                 0.1813
 IR Inten    --      1.7280                 8.6555                35.5145

                     13                     14                     15
                      A                      A                      A
 Frequencies --    435.8269               458.6555               494.9366
 Red. masses --      4.1808                 1.9946                 7.9363
 Frc consts  --      0.4679                 0.2472                 1.1454
 IR Inten    --      6.9423                 9.7783                11.2804

                     16                     17                     18
                      A                      A                      A
 Frequencies --    513.8239               537.8124               552.4989
 Red. masses --      3.2286                 8.4586                 7.0710
 Frc consts  --      0.5022                 1.4415                 1.2717
 IR Inten    --      1.0716                11.5037                47.5462

                     19                     20                     21
                      A                      A                      A
 Frequencies --    559.2803               566.1804               644.2075
 Red. masses --      3.6068                 7.4006                 6.2589
 Frc consts  --      0.6647                 1.3977                 1.5304
 IR Inten    --      0.2935                 7.6163                24.9121

                     22                     23                     24
                      A                      A                      A
 Frequencies --    685.4160               691.2450               732.1964
 Red. masses --      1.5513                 6.1051                 7.7807
 Frc consts  --      0.4294                 1.7187                 2.4577
 IR Inten    --     28.3512                 1.6483                 4.7148

                     25                     26                     27
                      A                      A                      A
 Frequencies --    741.6305               758.9941               766.9704
 Red. masses --      2.4435                 1.7068                 1.6955
 Frc consts  --      0.7918                 0.5793                 0.5876
 IR Inten    --     15.8024                 8.9371                95.3662

                     28                     29                     30
                      A                      A                      A
 Frequencies --    807.9813               843.0908               860.1531
 Red. masses --      6.4466                 1.8865                 1.3869
 Frc consts  --      2.4796                 0.7900                 0.6046
 IR Inten    --     17.8320                 1.3635                 1.4708

                     31                     32                     33
                      A                      A                      A
 Frequencies --    902.6805               906.5231               954.0743
 Red. masses --      5.9289                 1.4361                 1.3562
 Frc consts  --      2.8464                 0.6954                 0.7273
 IR Inten    --      0.6358                 9.4028                 0.4983

                     34                     35                     36
                      A                      A                      A
 Frequencies --    956.4370               961.4142              1003.3602
 Red. masses --      1.3495                 4.9217                 1.2938
 Frc consts  --      0.7273                 2.6803                 0.7674
 IR Inten    --      1.6719                 1.6348                 0.0002

                     37                     38                     39
                      A                      A                      A
 Frequencies --   1032.4182              1055.2886              1079.4932
 Red. masses --      2.3883                 2.3892                 3.3804
 Frc consts  --      1.4998                 1.5676                 2.3209
 IR Inten    --      3.4032                14.4316                 0.9867

                     40                     41                     42
                      A                      A                      A
 Frequencies --   1095.1571              1150.9825              1152.4275
 Red. masses --      1.7218                 1.4935                 1.2301
 Frc consts  --      1.2167                 1.1657                 0.9625
 IR Inten    --     43.3323                79.1437                97.2630

                     43                     44                     45
                      A                      A                      A
 Frequencies --   1164.7700              1181.2634              1228.4654
 Red. masses --      1.2684                 1.1362                 3.2763
 Frc consts  --      1.0139                 0.9341                 2.9132
 IR Inten    --      9.6510                 4.3589                20.2288

                     46                     47                     48
                      A                      A                      A
 Frequencies --   1242.6783              1298.7387              1335.4325
 Red. masses --      2.3608                 1.5836                 2.9436
 Frc consts  --      2.1479                 1.5737                 3.0930
 IR Inten    --     45.5724                 8.6332                31.8765

                     49                     50                     51
                      A                      A                      A
 Frequencies --   1362.9688              1389.5277              1405.8699
 Red. masses --      2.4206                 2.1858                 5.7793
 Frc consts  --      2.6494                 2.4865                 6.7300
 IR Inten    --     34.0349                40.8148                70.1504

                     52                     53                     54
                      A                      A                      A
 Frequencies --   1450.7465              1465.0900              1516.1207
 Red. masses --      2.9057                 2.9633                 3.6188
 Frc consts  --      3.6031                 3.7476                 4.9009
 IR Inten    --     95.6313                 7.0400               106.5960

                     55                     56                     57
                      A                      A                      A
 Frequencies --   1527.2210              1562.9959              1619.5825
 Red. masses --      2.7813                 6.2607                 5.2506
 Frc consts  --      3.8221                 9.0113                 8.1146
 IR Inten    --      2.8787               172.1369               111.1019

                     58                     59                     60
                      A                      A                      A
 Frequencies --   1655.4496              1664.8207              1690.0187
 Red. masses --      9.3051                 6.9950                 7.3213
 Frc consts  --     15.0246                11.4228                12.3203
 IR Inten    --    139.8694               111.7706                39.8120

                     61                     62                     63
                      A                      A                      A
 Frequencies --   3185.8641              3205.6567              3213.8169
 Red. masses --      1.0896                 1.0862                 1.0865
 Frc consts  --      6.5157                 6.5764                 6.6120
 IR Inten    --     22.3511                 2.1343                 6.3822

                     64                     65                     66
                      A                      A                      A
 Frequencies --   3218.6539              3225.7184              3232.3645
 Red. masses --      1.0915                 1.0901                 1.0988
 Frc consts  --      6.6621                 6.6833                 6.7643
 IR Inten    --     11.6484                 1.5587                26.8258

                     67                     68                     69
                      A                      A                      A
 Frequencies --   3232.5857              3242.5246              3912.0996
 Red. masses --      1.0963                 1.0989                 1.0789
 Frc consts  --      6.7496                 6.8075                 9.7288
 IR Inten    --      5.6622                13.6921               336.9353

 - Thermochemistry -
 -------------------
 Temperature   298.150 Kelvin.  Pressure   1.00000 Atm.
 Atom     1 has atomic number  6 and mass  12.00000

 Molecular mass:   227.04049 amu.
 Principal axes and moments of inertia in atomic units:
                           1         2         3
     Eigenvalues --  1293.983206515.177857809.16105
           X           -0.70564   0.70857   0.00000
           Y            0.70857   0.70564  -0.00001
           Z            0.00001   0.00001   1.00000
 This molecule is an asymmetric top.
 Rotational symmetry number  1.
 Warning -- assumption of classical behavior for rotation
           may cause significant error
 Rotational temperatures (Kelvin)      0.06694     0.01329     0.01109
 Rotational constants (GHZ):           1.39472     0.27701     0.23111
    1 imaginary frequencies ignored.
 Zero-point vibrational energy     489515.0 (Joules/Mol)
                                  116.99689 (Kcal/Mol)
 Warning -- explicit consideration of  19 degrees of freedom as
           vibrations may cause significant error
 Vibrational temperatures:     32.50   118.03   153.45   227.59   310.69
          (Kelvin)            368.77   375.11   448.46   486.71   528.22
                              559.38   627.06   659.90   712.10   739.28
                              773.79   794.92   804.68   814.61   926.87
                              986.16   994.55  1053.47  1067.04  1092.02
                             1103.50  1162.50  1213.02  1237.57  1298.76
                             1304.28  1372.70  1376.10  1383.26  1443.61
                             1485.42  1518.32  1553.15  1575.69  1656.01
                             1658.09  1675.84  1699.57  1767.49  1787.94
                             1868.60  1921.39  1961.01  1999.22  2022.73
                             2087.30  2107.94  2181.36  2197.33  2248.80
                             2330.22  2381.82  2395.31  2431.56  4583.75
                             4612.23  4623.97  4630.93  4641.09  4650.65
                             4650.97  4665.27  5628.64

 Zero-point correction=                           0.186446 (Hartree/Particle)
 Thermal correction to Energy=                    0.198474
 Thermal correction to Enthalpy=                  0.199419
 Thermal correction to Gibbs Free Energy=         0.147191
 Sum of electronic and zero-point Energies=          -1028.496911
 Sum of electronic and thermal Energies=             -1028.484883
 Sum of electronic and thermal Enthalpies=           -1028.483939
 Sum of electronic and thermal Free Energies=        -1028.536166

                     E (Thermal)             CV                S
                      KCal/Mol        Cal/Mol-Kelvin    Cal/Mol-Kelvin
 Total                  124.545             48.784            109.921
 Electronic               0.000              0.000              0.000
 Translational            0.889              2.981             42.162
 Rotational               0.889              2.981             32.554
 Vibrational            122.767             42.822             35.205
 Vibration     1          0.593              1.985              6.392
 Vibration     2          0.600              1.961              3.842
 Vibration     3          0.606              1.944              3.329
 Vibration     4          0.621              1.893              2.571
 Vibration     5          0.645              1.817              1.993
 Vibration     6          0.666              1.752              1.687
 Vibration     7          0.669              1.745              1.657
 Vibration     8          0.700              1.651              1.353
 Vibration     9          0.719              1.599              1.220
 Vibration    10          0.740              1.540              1.092
 Vibration    11          0.757              1.494              1.005
 Vibration    12          0.796              1.392              0.840
 Vibration    13          0.817              1.342              0.770
 Vibration    14          0.851              1.261              0.671
 Vibration    15          0.869              1.219              0.624
 Vibration    16          0.893              1.166              0.570
 Vibration    17          0.908              1.134              0.539
 Vibration    18          0.915              1.119              0.525
 Vibration    19          0.922              1.104              0.512

 Optimization completed.
    -- Stationary point found.
 Normal termination of Gaussian 16 at Tue Jul 14 12:05:44 2020.
