 Gaussian 16, Revision C.01,
 Gaussian 16:  ES64L-G16RevC.01  3-Jul-2019

 ----------------------------------------------------------------------
 #p opt=addgic freq td wb97xd/cc-pvdz nosymm int=ultrafine scrf=(solven
 t=CarbonTetraChloride)
 ----------------------------------------------------------------------

 ------------------------------------------------
 NM 2D-scan of HBT TD-WB97XD pVDZ in CTC Relaxed.
 ------------------------------------------------
 Symbolic Z-matrix:
 Charge =  0 Multiplicity = 1

 SCF Done:  E(RwB97XD) =  -1028.55249068     A.U. after   15 cycles
 Total Energy, E(TD-HF/TD-DFT) =  -1028.42181994
 SCF Done:  E(RwB97XD) =  -1028.75747446     A.U. after   13 cycles
 Total Energy, E(TD-HF/TD-DFT) =  -1028.62852585
 SCF Done:  E(RwB97XD) =  -1028.79070188     A.U. after   15 cycles
 Total Energy, E(TD-HF/TD-DFT) =  -1028.66590834
 SCF Done:  E(RwB97XD) =  -1028.80344312     A.U. after   13 cycles
 Total Energy, E(TD-HF/TD-DFT) =  -1028.67763614
 SCF Done:  E(RwB97XD) =  -1028.80469048     A.U. after   12 cycles
 Total Energy, E(TD-HF/TD-DFT) =  -1028.67818885
 SCF Done:  E(RwB97XD) =  -1028.80480138     A.U. after   10 cycles
 Total Energy, E(TD-HF/TD-DFT) =  -1028.67824144
 SCF Done:  E(RwB97XD) =  -1028.80487242     A.U. after    9 cycles
 Total Energy, E(TD-HF/TD-DFT) =  -1028.67824788
 Optimization completed.
    -- Stationary point found.
 Normal termination of Gaussian 16 at Mon Jul 13 17:48:42 2020.

 ----------------------------------------------------------------------
 #P Geom=AllCheck Guess=TCheck SCRF=Check GenChk RwB97XD TD(FC,Read)/CC
 -pVDZ Freq
 ----------------------------------------------------------------------

 Structure from the checkpoint file:  "config_2_1.chk"
 ------------------------------------------------
 NM 2D-scan of HBT TD-WB97XD pVDZ in CTC Relaxed.
 ------------------------------------------------
 Charge =  0 Multiplicity = 1

                          Input orientation:
 ---------------------------------------------------------------------
 Center     Atomic      Atomic             Coordinates (Angstroms)
 Number     Number       Type             X           Y           Z
 ---------------------------------------------------------------------
      1          6           0        1.767497   -3.314141   -0.000028
      2          6           0        0.967714   -2.166086   -0.000020
      3          6           0        1.612819   -0.880075   -0.000007
      4          6           0        3.028455   -0.761767    0.000004
      5          6           0        3.790712   -1.900389   -0.000003
      6          6           0        3.163178   -3.168895   -0.000021
      7          1           0        1.328444   -4.312904   -0.000038
      8          1           0        3.460091    0.239640    0.000017
      9          1           0        4.880124   -1.836333    0.000005
     10          1           0        3.782475   -4.067592   -0.000027
     11          7           0        0.845508    0.194815   -0.000008
     12         16           0       -0.786260   -1.918926   -0.000021
     13          6           0       -1.393854    1.007242   -0.000023
     14          6           0       -2.826525    0.919727   -0.000032
     15          6           0       -0.883393    2.414799    0.000002
     16          6           0       -3.635474    2.043355    0.000030
     17          1           0       -3.287017   -0.069947   -0.000075
     18          6           0       -1.738454    3.519166    0.000080
     19          6           0       -3.106795    3.358956    0.000100
     20          1           0       -4.718706    1.910479    0.000029
     21          1           0       -1.260684    4.499068    0.000110
     22          1           0       -3.768763    4.225006    0.000158
     23          6           0       -0.481192   -0.082015   -0.000021
     24          8           0        0.392746    2.789946   -0.000050
     25          1           0        0.950364    1.988955   -0.000065
 ---------------------------------------------------------------------

 SCF Done:  E(RwB97XD) =  -1028.80487242     A.U. after    1 cycles

 Excitation energies and oscillator strengths:

 Excited state symmetry could not be determined.
 Excited State   1:      Singlet-?Sym    3.4456 eV  359.83 nm  f=0.7254  <S**2>=0.000
      59 -> 60         0.69060
 This state for optimization and/or second-order correction.
 Total Energy, E(TD-HF/TD-DFT) =  -1028.67824786
 Copying the excited state density for this state as the 1-particle RhoCI density.

 Excited state symmetry could not be determined.
 Excited State   2:      Singlet-?Sym    4.3702 eV  283.71 nm  f=0.2040  <S**2>=0.000
      57 -> 60        -0.25086
      58 -> 60        -0.60906
      59 -> 63        -0.15796

 Excited state symmetry could not be determined.
 Excited State   3:      Singlet-?Sym    4.5220 eV  274.18 nm  f=0.0486  <S**2>=0.000
      57 -> 60         0.56654
      57 -> 64        -0.13924
      58 -> 60        -0.23681
      58 -> 61        -0.11529
      59 -> 61         0.24901

 Alpha  occ. eigenvalues --  -89.09239 -19.29024 -14.46616 -10.40076 -10.38449
 Alpha  occ. eigenvalues --  -10.35068 -10.34520 -10.33569 -10.32366 -10.32361
 Alpha  occ. eigenvalues --  -10.31808 -10.31470 -10.31188 -10.31113 -10.30488
 Alpha  occ. eigenvalues --  -10.30140  -8.10979  -6.05854  -6.05519  -6.05019
 Alpha  occ. eigenvalues --   -1.17484  -1.08104  -0.96528  -0.95418  -0.90978
 Alpha  occ. eigenvalues --   -0.88734  -0.84980  -0.84153  -0.82199  -0.76020
 Alpha  occ. eigenvalues --   -0.71038  -0.70126  -0.69077  -0.68066  -0.63168
 Alpha  occ. eigenvalues --   -0.59959  -0.58859  -0.58312  -0.55803  -0.54360
 Alpha  occ. eigenvalues --   -0.53330  -0.52994  -0.52467  -0.50976  -0.50407
 Alpha  occ. eigenvalues --   -0.48972  -0.48103  -0.45739  -0.45416  -0.44629
 Alpha  occ. eigenvalues --   -0.43535  -0.42848  -0.42121  -0.39779  -0.37396
 Alpha  occ. eigenvalues --   -0.36366  -0.32120  -0.31479  -0.27798
 Alpha virt. eigenvalues --   -0.01920   0.05205   0.06644   0.06916   0.07107
 Alpha virt. eigenvalues --    0.11303   0.11985   0.15078   0.15640   0.17589
 Alpha virt. eigenvalues --    0.18591   0.20412   0.21690   0.22225   0.22747

 Mulliken charges:
               1
     1  C    0.000436
     2  C   -0.214792
     3  C    0.230743
     4  C   -0.014933
     5  C    0.010948
     6  C   -0.011498
     7  H    0.020444
     8  H    0.014393
     9  H    0.017724
    10  H    0.020572
    11  N   -0.331191
    12  S    0.139574
    13  C   -0.097321
    14  C   -0.011964
    15  C    0.083997
    16  C   -0.013405
    17  H    0.010595
    18  C    0.021459
    19  C    0.019534
    20  H    0.012487
    21  H    0.019609
    22  H    0.021978
    23  C    0.069606
    24  O   -0.177433
    25  H    0.158436
 Sum of Mulliken charges =  -0.00000

 Dipole moment (field-independent basis, Debye):
    X=             -0.1816    Y=             -1.4209    Z=              0.0000  Tot=              1.4324
 Quadrupole moment (field-independent basis, Debye-Ang):
   XX=            -83.0909   YY=            -88.8055   ZZ=           -104.6561
   XY=             -6.6124   XZ=             -0.0001   YZ=              0.0005

  Exact polarizability:     411.755    -200.563     402.528      -0.002       0.004      63.717
 Approx polarizability:     283.629     -37.382     266.693      -0.001       0.003      82.620

                      1                      2                      3
                      A                      A                      A
 Frequencies --     17.3946                62.5049               105.7856
 Red. masses --      5.8299                 6.1103                 5.6124
 Frc consts  --      0.0010                 0.0141                 0.0370
 IR Inten    --      1.0205                 0.0153                 2.1738

                      4                      5                      6
                      A                      A                      A
 Frequencies --    106.8400               182.9524               224.5097
 Red. masses --      4.5183                 6.6911                 5.4114
 Frc consts  --      0.0304                 0.1320                 0.1607
 IR Inten    --      0.5542                 0.5568                 0.0002

                      7                      8                      9
                      A                      A                      A
 Frequencies --    252.8190               263.9373               275.6103
 Red. masses --      8.5362                 4.7818                 6.2896
 Frc consts  --      0.3215                 0.1963                 0.2815
 IR Inten    --     12.8575                 0.3401                14.8824

                     10                     11                     12
                      A                      A                      A
 Frequencies --    382.2702               397.5767               437.1964
 Red. masses --      8.4061                 4.7610                 3.2748
 Frc consts  --      0.7237                 0.4434                 0.3688
 IR Inten    --     13.5461                 0.2319                 4.8315

                     13                     14                     15
                      A                      A                      A
 Frequencies --    471.7298               492.8769               494.8546
 Red. masses --      4.5786                 4.4194                 9.3035
 Frc consts  --      0.6003                 0.6325                 1.3423
 IR Inten    --     17.7697                 0.0033                 1.9345

                     16                     17                     18
                      A                      A                      A
 Frequencies --    505.2622               523.1845               543.0934
 Red. masses --      3.1356                 8.2226                 3.7865
 Frc consts  --      0.4716                 1.3261                 0.6580
 IR Inten    --      0.5606                27.1136                 0.8019

                     19                     20                     21
                      A                      A                      A
 Frequencies --    577.6105               626.0540               649.1069
 Red. masses --      7.8137                 7.5997                 7.0896
 Frc consts  --      1.5359                 1.7550                 1.7600
 IR Inten    --     90.5743                51.9848                 0.7674

                     22                     23                     24
                      A                      A                      A
 Frequencies --    696.9751               702.7669               729.7308
 Red. masses --      6.8525                 1.4696                 1.8789
 Frc consts  --      1.9612                 0.4276                 0.5895
 IR Inten    --      8.2243                88.3220                29.4336

                     25                     26                     27
                      A                      A                      A
 Frequencies --    748.2457               754.4975               771.4351
 Red. masses --      2.0225                 1.2991                 2.0264
 Frc consts  --      0.6672                 0.4357                 0.7105
 IR Inten    --     40.5553                 1.7380                70.0498

                     28                     29                     30
                      A                      A                      A
 Frequencies --    788.0452               833.5640               856.5917
 Red. masses --      6.9375                 1.4945                 1.4402
 Frc consts  --      2.5384                 0.6118                 0.6226
 IR Inten    --     19.4859                 0.0615                 1.9257

                     31                     32                     33
                      A                      A                      A
 Frequencies --    884.8658               932.2381               935.9106
 Red. masses --      6.3357                 1.3390                 7.0402
 Frc consts  --      2.9228                 0.6856                 3.6333
 IR Inten    --     46.6785                 3.0063                11.9429

                     34                     35                     36
                      A                      A                      A
 Frequencies --    951.5912               969.6806               997.5151
 Red. masses --      1.3460                 1.3393                 1.3027
 Frc consts  --      0.7181                 0.7420                 0.7637
 IR Inten    --      1.9919                 0.0341                 0.0153

                     37                     38                     39
                      A                      A                      A
 Frequencies --   1033.1522              1038.7820              1059.1867
 Red. masses --      2.2206                 2.3252                 4.9368
 Frc consts  --      1.3965                 1.4783                 3.2632
 IR Inten    --      2.3180                 5.1691                22.3824

                     40                     41                     42
                      A                      A                      A
 Frequencies --   1130.4265              1145.8326              1173.4948
 Red. masses --      1.5942                 1.2950                 1.1791
 Frc consts  --      1.2003                 1.0018                 0.9567
 IR Inten    --     26.2277                16.9374                29.2055

                     43                     44                     45
                      A                      A                      A
 Frequencies --   1176.7068              1210.8710              1227.3157
 Red. masses --      1.1729                 2.4220                 2.0891
 Frc consts  --      0.9568                 2.0923                 1.8540
 IR Inten    --      3.2099               232.7174                27.3136

                     46                     47                     48
                      A                      A                      A
 Frequencies --   1250.9373              1272.8303              1353.3781
 Red. masses --      2.4373                 1.6202                 2.8546
 Frc consts  --      2.2471                 1.5466                 3.0806
 IR Inten    --    248.7084                 2.2235               102.5946

                     49                     50                     51
                      A                      A                      A
 Frequencies --   1362.6166              1394.3747              1415.7595
 Red. masses --      5.2930                 2.0457                 2.1882
 Frc consts  --      5.7903                 2.3435                 2.5841
 IR Inten    --     21.1242               204.3692               174.7639

                     52                     53                     54
                      A                      A                      A
 Frequencies --   1451.9074              1470.1240              1519.0191
 Red. masses --      2.1857                 2.9555                 5.0999
 Frc consts  --      2.7147                 3.7635                 6.9333
 IR Inten    --     48.1159                22.7668               129.9242

                     55                     56                     57
                      A                      A                      A
 Frequencies --   1525.4789              1546.8067              1562.8904
 Red. masses --      5.9425                 5.3674                 3.8733
 Frc consts  --      8.1476                 7.5664                 5.5743
 IR Inten    --    737.6687                 0.7036                56.2157

                     58                     59                     60
                      A                      A                      A
 Frequencies --   1596.8952              1641.9489              1656.8146
 Red. masses --      5.8504                 5.5714                 6.0371
 Frc consts  --      8.7899                 8.8498                 9.7639
 IR Inten    --     56.8497               349.2533               197.9832

                     61                     62                     63
                      A                      A                      A
 Frequencies --   3202.5585              3206.1968              3215.1578
 Red. masses --      1.0866                 1.0858                 1.0894
 Frc consts  --      6.5661                 6.5762                 6.6351
 IR Inten    --      3.3657                 3.8248                 4.3887

                     64                     65                     66
                      A                      A                      A
 Frequencies --   3217.3875              3225.1449              3226.1770
 Red. masses --      1.0907                 1.0952                 1.0923
 Frc consts  --      6.6520                 6.7117                 6.6984
 IR Inten    --      5.2000                17.5451                20.2674

                     67                     68                     69
                      A                      A                      A
 Frequencies --   3234.1037              3240.0918              3516.9106
 Red. masses --      1.1001                 1.0993                 1.0667
 Frc consts  --      6.7792                 6.7996                 7.7733
 IR Inten    --     36.8428                24.4224                 7.7463

 - Thermochemistry -
 -------------------
 Temperature   298.150 Kelvin.  Pressure   1.00000 Atm.
 Atom     1 has atomic number  6 and mass  12.00000

 Molecular mass:   227.04049 amu.
 Principal axes and moments of inertia in atomic units:
                           1         2         3
     Eigenvalues --  1400.221096390.249997790.47108
           X           -0.69092   0.72293   0.00000
           Y            0.72293   0.69092  -0.00001
           Z            0.00001   0.00000   1.00000
 This molecule is an asymmetric top.
 Rotational symmetry number  1.
 Warning -- assumption of classical behavior for rotation
           may cause significant error
 Rotational temperatures (Kelvin)      0.06186     0.01355     0.01112
 Rotational constants (GHZ):           1.28890     0.28242     0.23166
 Zero-point vibrational energy     488364.1 (Joules/Mol)
                                  116.72182 (Kcal/Mol)
 Warning -- explicit consideration of  19 degrees of freedom as
           vibrations may cause significant error
 Vibrational temperatures:     25.03    89.93   152.20   153.72   263.23
          (Kelvin)            323.02   363.75   379.75   396.54   550.00
                              572.02   629.03   678.71   709.14   711.99
                              726.96   752.75   781.39   831.05   900.75
                              933.92  1002.79  1011.12  1049.92  1076.56
                             1085.55  1109.92  1133.82  1199.31  1232.44
                             1273.12  1341.28  1346.57  1369.13  1395.15
                             1435.20  1486.48  1494.58  1523.93  1626.43
                             1648.60  1688.40  1693.02  1742.17  1765.83
                             1799.82  1831.32  1947.21  1960.50  2006.19
                             2036.96  2088.97  2115.18  2185.53  2194.82
                             2225.51  2248.65  2297.58  2362.40  2383.79
                             4607.77  4613.00  4625.89  4629.10  4640.26
                             4641.75  4653.15  4661.77  5060.05

 Zero-point correction=                           0.186008 (Hartree/Particle)
 Thermal correction to Energy=                    0.198595
 Thermal correction to Enthalpy=                  0.199540
 Thermal correction to Gibbs Free Energy=         0.145621
 Sum of electronic and zero-point Energies=          -1028.492240
 Sum of electronic and thermal Energies=             -1028.479652
 Sum of electronic and thermal Enthalpies=           -1028.478708
 Sum of electronic and thermal Free Energies=        -1028.532627

                     E (Thermal)             CV                S
                      KCal/Mol        Cal/Mol-Kelvin    Cal/Mol-Kelvin
 Total                  124.620             50.253            113.481
 Electronic               0.000              0.000              0.000
 Translational            0.889              2.981             42.162
 Rotational               0.889              2.981             32.611
 Vibrational            122.843             44.291             38.709
 Vibration     1          0.593              1.986              6.911
 Vibration     2          0.597              1.972              4.377
 Vibration     3          0.605              1.945              3.345
 Vibration     4          0.606              1.944              3.326
 Vibration     5          0.630              1.863              2.298
 Vibration     6          0.649              1.804              1.922
 Vibration     7          0.664              1.758              1.711
 Vibration     8          0.670              1.739              1.636
 Vibration     9          0.677              1.718              1.561
 Vibration    10          0.752              1.508              1.030
 Vibration    11          0.764              1.475              0.972
 Vibration    12          0.798              1.389              0.835
 Vibration    13          0.829              1.313              0.733
 Vibration    14          0.849              1.266              0.676
 Vibration    15          0.850              1.261              0.671
 Vibration    16          0.861              1.238              0.645
 Vibration    17          0.878              1.199              0.603
 Vibration    18          0.898              1.155              0.559
 Vibration    19          0.934              1.080              0.490

                           ! Non-Optimized Parameters !
 Normal termination of Gaussian 16 at Mon Jul 13 18:06:08 2020.
