 Gaussian 16, Revision C.01,
 Gaussian 16:  ES64L-G16RevC.01  3-Jul-2019

 ----------------------------------------------------------------------
 #p opt=addgic freq td wb97xd/cc-pvdz nosymm int=ultrafine scrf=(solven
 t=CarbonTetraChloride)
 ----------------------------------------------------------------------

 ------------------------------------------------
 NM 2D-scan of HBT TD-WB97XD pVDZ in CTC Relaxed.
 ------------------------------------------------
 Symbolic Z-matrix:
 Charge =  0 Multiplicity = 1

 SCF Done:  E(RwB97XD) =  -1028.81032107     A.U. after   15 cycles
 Total Energy, E(TD-HF/TD-DFT) =  -1028.69312544
 SCF Done:  E(RwB97XD) =  -1028.80994099     A.U. after   11 cycles
 Total Energy, E(TD-HF/TD-DFT) =  -1028.69333929
 SCF Done:  E(RwB97XD) =  -1028.80940615     A.U. after   12 cycles
 Total Energy, E(TD-HF/TD-DFT) =  -1028.69347679
 SCF Done:  E(RwB97XD) =  -1028.80885208     A.U. after   12 cycles
 Total Energy, E(TD-HF/TD-DFT) =  -1028.69354912
 SCF Done:  E(RwB97XD) =  -1028.80870814     A.U. after   10 cycles
 Total Energy, E(TD-HF/TD-DFT) =  -1028.69355828
 SCF Done:  E(RwB97XD) =  -1028.80870910     A.U. after    9 cycles
 Total Energy, E(TD-HF/TD-DFT) =  -1028.69355921
 Optimization completed.
    -- Stationary point found.
 Normal termination of Gaussian 16 at Mon Jul 13 15:36:57 2020.

 ----------------------------------------------------------------------
 #P Geom=AllCheck Guess=TCheck SCRF=Check GenChk RwB97XD TD(FC,Read)/CC
 -pVDZ Freq
 ----------------------------------------------------------------------

 Structure from the checkpoint file:  "config_7_9.chk"
 ------------------------------------------------
 NM 2D-scan of HBT TD-WB97XD pVDZ in CTC Relaxed.
 ------------------------------------------------
 Charge =  0 Multiplicity = 1

                          Input orientation:
 ---------------------------------------------------------------------
 Center     Atomic      Atomic             Coordinates (Angstroms)
 Number     Number       Type             X           Y           Z
 ---------------------------------------------------------------------
      1          6           0        1.649846   -3.271244   -0.000024
      2          6           0        0.995656   -2.041066   -0.000017
      3          6           0        1.721074   -0.814667   -0.000015
      4          6           0        3.128010   -0.845298   -0.000021
      5          6           0        3.768530   -2.074454   -0.000028
      6          6           0        3.044268   -3.279021   -0.000030
      7          1           0        1.085558   -4.204664   -0.000026
      8          1           0        3.688136    0.090236   -0.000019
      9          1           0        4.859390   -2.106812   -0.000033
     10          1           0        3.576590   -4.231017   -0.000036
     11          7           0        0.936135    0.295605   -0.000007
     12         16           0       -0.732776   -1.729645   -0.000010
     13          6           0       -1.366454    1.039278    0.000013
     14          6           0       -2.750368    0.817541    0.000009
     15          6           0       -0.884261    2.441583    0.000036
     16          6           0       -3.649074    1.894873    0.000023
     17          1           0       -3.137199   -0.203589   -0.000007
     18          6           0       -1.830291    3.493343    0.000047
     19          6           0       -3.196992    3.225875    0.000042
     20          1           0       -4.720562    1.688840    0.000019
     21          1           0       -1.438249    4.511100    0.000063
     22          1           0       -3.916010    4.045469    0.000053
     23          6           0       -0.392516    0.006928   -0.000002
     24          8           0        0.376853    2.696474    0.000046
     25          1           0        0.984262    1.489377    0.000019
 ---------------------------------------------------------------------

 SCF Done:  E(RwB97XD) =  -1028.80870910     A.U. after    1 cycles

 Excitation energies and oscillator strengths:

 Excited state symmetry could not be determined.
 Excited State   1:      Singlet-?Sym    3.1334 eV  395.69 nm  f=0.4673  <S**2>=0.000
      59 -> 60         0.69454
 This state for optimization and/or second-order correction.
 Total Energy, E(TD-HF/TD-DFT) =  -1028.69355920
 Copying the excited state density for this state as the 1-particle RhoCI density.

 Excited state symmetry could not be determined.
 Excited State   2:      Singlet-?Sym    4.3440 eV  285.42 nm  f=0.0000  <S**2>=0.000
      56 -> 60         0.68695
      56 -> 62         0.10264
      56 -> 64        -0.11153

 Excited state symmetry could not be determined.
 Excited State   3:      Singlet-?Sym    4.3472 eV  285.21 nm  f=0.3688  <S**2>=0.000
      58 -> 60         0.67379

 Alpha  occ. eigenvalues --  -89.10045 -19.23531 -14.50325 -10.41158 -10.36778
 Alpha  occ. eigenvalues --  -10.36730 -10.35809 -10.32962 -10.32337 -10.32077
 Alpha  occ. eigenvalues --  -10.32010 -10.31858 -10.31499 -10.31316 -10.29665
 Alpha  occ. eigenvalues --  -10.29115  -8.12012  -6.06875  -6.06522  -6.06046
 Alpha  occ. eigenvalues --   -1.12795  -1.09813  -0.97589  -0.95351  -0.92819
 Alpha  occ. eigenvalues --   -0.89002  -0.85977  -0.83779  -0.81933  -0.75872
 Alpha  occ. eigenvalues --   -0.71654  -0.71345  -0.68524  -0.67822  -0.63946
 Alpha  occ. eigenvalues --   -0.60900  -0.59391  -0.57365  -0.55283  -0.55006
 Alpha  occ. eigenvalues --   -0.54432  -0.53537  -0.52833  -0.50873  -0.49892
 Alpha  occ. eigenvalues --   -0.49227  -0.47637  -0.46534  -0.45354  -0.45125
 Alpha  occ. eigenvalues --   -0.44117  -0.43169  -0.41934  -0.40717  -0.36646
 Alpha  occ. eigenvalues --   -0.34159  -0.33035  -0.31260  -0.26995
 Alpha virt. eigenvalues --   -0.01884   0.04249   0.06300   0.06652   0.08424
 Alpha virt. eigenvalues --    0.10578   0.13657   0.14857   0.16240   0.17668
 Alpha virt. eigenvalues --    0.18797   0.20615   0.21271   0.21797   0.22804

 Mulliken charges:
               1
     1  C    0.016357
     2  C   -0.231805
     3  C    0.269039
     4  C   -0.013929
     5  C    0.010272
     6  C   -0.001544
     7  H    0.023255
     8  H    0.027027
     9  H    0.024167
    10  H    0.024372
    11  N   -0.262332
    12  S    0.189015
    13  C   -0.110307
    14  C   -0.023986
    15  C    0.126754
    16  C   -0.028791
    17  H    0.009257
    18  C   -0.010808
    19  C    0.029885
    20  H    0.005187
    21  H    0.008336
    22  H    0.017940
    23  C    0.068058
    24  O   -0.389218
    25  H    0.223800
 Sum of Mulliken charges =  -0.00000

 Dipole moment (field-independent basis, Debye):
    X=              0.7885    Y=             -4.3025    Z=             -0.0001  Tot=              4.3741
 Quadrupole moment (field-independent basis, Debye-Ang):
   XX=            -82.9464   YY=            -92.8943   ZZ=           -104.2831
   XY=             -6.9155   XZ=             -0.0001   YZ=              0.0000

  Exact polarizability:     354.493    -133.763     312.562      -0.002       0.003      63.280
 Approx polarizability:     273.894     -35.244     264.084      -0.001       0.002      82.232

 ******    1 imaginary frequencies (negative Signs) ******

                      1                      2                      3
                      A                      A                      A
 Frequencies --   -933.1459                39.0466                67.8790
 Red. masses --      1.1339                 6.0775                 5.8545
 Frc consts  --      0.5817                 0.0055                 0.0159
 IR Inten    --   2001.1353                 1.4339                 0.4239

                      4                      5                      6
                      A                      A                      A
 Frequencies --    116.3695               138.3555               180.9431
 Red. masses --      5.3617                 5.6797                 6.0845
 Frc consts  --      0.0428                 0.0641                 0.1174
 IR Inten    --      0.0786                 0.6306                 0.3613

                      7                      8                      9
                      A                      A                      A
 Frequencies --    218.9365               269.9662               277.7511
 Red. masses --      5.4282                 4.6911                 7.2777
 Frc consts  --      0.1533                 0.2014                 0.3308
 IR Inten    --      0.1073                 0.1431                 9.3061

                     10                     11                     12
                      A                      A                      A
 Frequencies --    367.0060               379.3993               406.0874
 Red. masses --      5.0274                 6.3649                10.6022
 Frc consts  --      0.3990                 0.5398                 1.0301
 IR Inten    --      0.5958                23.0628                 3.9538

                     13                     14                     15
                      A                      A                      A
 Frequencies --    437.5955               469.5959               500.2772
 Red. masses --      3.2527                 4.7807                 3.1676
 Frc consts  --      0.3670                 0.6211                 0.4671
 IR Inten    --      4.6043                 0.6372                 0.4993

                     16                     17                     18
                      A                      A                      A
 Frequencies --    506.1996               544.6276               557.9901
 Red. masses --      8.8883                 8.6032                 3.8694
 Frc consts  --      1.3419                 1.5035                 0.7098
 IR Inten    --      2.2959                 0.7444                 0.3572

                     19                     20                     21
                      A                      A                      A
 Frequencies --    577.6669               591.6223               660.1729
 Red. masses --      7.6678                 6.8542                 6.7068
 Frc consts  --      1.5076                 1.4135                 1.7222
 IR Inten    --     29.8199                 4.0200                49.0475

                     22                     23                     24
                      A                      A                      A
 Frequencies --    695.7984               715.4241               742.2313
 Red. masses --      1.5943                 6.3934                 2.4937
 Frc consts  --      0.4548                 1.9280                 0.8094
 IR Inten    --     40.2453                 7.3699                15.1460

                     25                     26                     27
                      A                      A                      A
 Frequencies --    758.4486               764.3368               768.4503
 Red. masses --      7.3260                 1.8348                 1.7175
 Frc consts  --      2.4829                 0.6315                 0.5975
 IR Inten    --     36.2107                 3.6001                87.6716

                     28                     29                     30
                      A                      A                      A
 Frequencies --    824.3571               826.3315               866.8210
 Red. masses --      6.2333                 1.6677                 1.3896
 Frc consts  --      2.4958                 0.6709                 0.6152
 IR Inten    --     17.0748                 0.0116                 0.9574

                     31                     32                     33
                      A                      A                      A
 Frequencies --    906.4067               923.4368               955.9485
 Red. masses --      1.3874                 6.5291                 1.3765
 Frc consts  --      0.6716                 3.2803                 0.7411
 IR Inten    --      5.5472                37.0331                 1.0354

                     34                     35                     36
                      A                      A                      A
 Frequencies --    956.4507              1002.8438              1002.9012
 Red. masses --      1.3483                 1.2950                 7.0640
 Frc consts  --      0.7267                 0.7674                 4.1861
 IR Inten    --      1.3589                 0.0000                88.9417

                     37                     38                     39
                      A                      A                      A
 Frequencies --   1043.6846              1049.9870              1091.9470
 Red. masses --      2.1166                 2.0761                 4.1502
 Frc consts  --      1.3584                 1.3485                 2.9156
 IR Inten    --      1.3962                 2.6966                73.1629

                     40                     41                     42
                      A                      A                      A
 Frequencies --   1128.6173              1152.6840              1168.4885
 Red. masses --      1.4649                 1.3376                 1.1846
 Frc consts  --      1.0994                 1.0471                 0.9529
 IR Inten    --     11.7897                11.3878               104.0529

                     43                     44                     45
                      A                      A                      A
 Frequencies --   1180.1690              1206.6024              1256.1842
 Red. masses --      1.1641                 1.0531                 1.7906
 Frc consts  --      0.9553                 0.9033                 1.6648
 IR Inten    --     15.7718                67.1043                81.9339

                     46                     47                     48
                      A                      A                      A
 Frequencies --   1267.7468              1303.2980              1346.3196
 Red. masses --      2.5105                 2.3241                 4.5720
 Frc consts  --      2.3773                 2.3259                 4.8826
 IR Inten    --     28.6980                15.6199                98.0865

                     49                     50                     51
                      A                      A                      A
 Frequencies --   1361.2943              1387.0868              1405.9062
 Red. masses --      6.3491                 2.6446                 2.3147
 Frc consts  --      6.9321                 2.9979                 2.6956
 IR Inten    --    204.5853                15.7027                10.2681

                     52                     53                     54
                      A                      A                      A
 Frequencies --   1446.2171              1478.9168              1498.7190
 Red. masses --      2.9429                 3.7298                 4.1327
 Frc consts  --      3.6266                 4.8064                 5.4692
 IR Inten    --    556.3636                40.1519               191.0402

                     55                     56                     57
                      A                      A                      A
 Frequencies --   1518.9866              1542.6827              1567.2627
 Red. masses --      4.4263                 4.8053                 4.4091
 Frc consts  --      6.0173                 6.7379                 6.3809
 IR Inten    --    122.7047                66.5364                92.3868

                     58                     59                     60
                      A                      A                      A
 Frequencies --   1624.0886              1634.4142              1659.0472
 Red. masses --      5.9488                 5.8128                 6.4784
 Frc consts  --      9.2448                 9.1488                10.5059
 IR Inten    --      9.2292               764.9461               106.5227

                     61                     62                     63
                      A                      A                      A
 Frequencies --   1937.1735              3202.6885              3210.1863
 Red. masses --      1.1128                 1.0879                 1.0862
 Frc consts  --      2.4603                 6.5747                 6.5953
 IR Inten    --    370.9752                19.2686                 6.0567

                     64                     65                     66
                      A                      A                      A
 Frequencies --   3216.7469              3220.7167              3226.3237
 Red. masses --      1.0875                 1.0903                 1.0930
 Frc consts  --      6.6300                 6.6636                 6.7034
 IR Inten    --      2.6899                 3.4353                16.7574

                     67                     68                     69
                      A                      A                      A
 Frequencies --   3232.0659              3238.1976              3238.5259
 Red. masses --      1.0954                 1.0988                 1.0991
 Frc consts  --      6.7417                 6.7888                 6.7918
 IR Inten    --      9.6168                37.7202                 0.1855

 - Thermochemistry -
 -------------------
 Temperature   298.150 Kelvin.  Pressure   1.00000 Atm.
 Atom     1 has atomic number  6 and mass  12.00000

 Molecular mass:   227.04049 amu.
 Principal axes and moments of inertia in atomic units:
                           1         2         3
     Eigenvalues --  1310.262036326.770077637.03210
           X           -0.70261   0.71157   0.00000
           Y            0.71157   0.70261  -0.00001
           Z            0.00001   0.00001   1.00000
 This molecule is an asymmetric top.
 Rotational symmetry number  1.
 Warning -- assumption of classical behavior for rotation
           may cause significant error
 Rotational temperatures (Kelvin)      0.06610     0.01369     0.01134
 Rotational constants (GHZ):           1.37739     0.28525     0.23631
    1 imaginary frequencies ignored.
 Zero-point vibrational energy     478869.0 (Joules/Mol)
                                  114.45245 (Kcal/Mol)
 Warning -- explicit consideration of  19 degrees of freedom as
           vibrations may cause significant error
 Vibrational temperatures:     56.18    97.66   167.43   199.06   260.34
          (Kelvin)            315.00   388.42   399.62   528.04   545.87
                              584.27   629.60   675.64   719.79   728.31
                              783.60   802.82   831.13   851.21   949.84
                             1001.10  1029.34  1067.91  1091.24  1099.71
                             1105.63  1186.07  1188.91  1247.16  1304.12
                             1328.62  1375.40  1376.12  1442.87  1442.95
                             1501.63  1510.70  1571.07  1623.83  1658.46
                             1681.19  1698.00  1736.03  1807.37  1824.00
                             1875.16  1937.05  1958.60  1995.71  2022.79
                             2080.78  2127.83  2156.32  2185.48  2219.58
                             2254.94  2336.70  2351.56  2387.00  2787.16
                             4607.95  4618.74  4628.18  4633.89  4641.96
                             4650.22  4659.04  4659.52

 Zero-point correction=                           0.182392 (Hartree/Particle)
 Thermal correction to Energy=                    0.194409
 Thermal correction to Enthalpy=                  0.195353
 Thermal correction to Gibbs Free Energy=         0.143346
 Sum of electronic and zero-point Energies=          -1028.511168
 Sum of electronic and thermal Energies=             -1028.499150
 Sum of electronic and thermal Enthalpies=           -1028.498206
 Sum of electronic and thermal Free Energies=        -1028.550213

                     E (Thermal)             CV                S
                      KCal/Mol        Cal/Mol-Kelvin    Cal/Mol-Kelvin
 Total                  121.993             48.373            109.457
 Electronic               0.000              0.000              0.000
 Translational            0.889              2.981             42.162
 Rotational               0.889              2.981             32.515
 Vibrational            120.216             42.411             34.780
 Vibration     1          0.594              1.981              5.307
 Vibration     2          0.598              1.970              4.214
 Vibration     3          0.608              1.936              3.160
 Vibration     4          0.614              1.915              2.826
 Vibration     5          0.630              1.866              2.319
 Vibration     6          0.647              1.812              1.968
 Vibration     7          0.674              1.728              1.596
 Vibration     8          0.679              1.715              1.547
 Vibration     9          0.740              1.540              1.092
 Vibration    10          0.749              1.514              1.042
 Vibration    11          0.771              1.457              0.941
 Vibration    12          0.798              1.388              0.834
 Vibration    13          0.827              1.318              0.739
 Vibration    14          0.856              1.249              0.657
 Vibration    15          0.861              1.236              0.643
 Vibration    16          0.900              1.151              0.555
 Vibration    17          0.914              1.122              0.528
 Vibration    18          0.934              1.080              0.490
 Vibration    19          0.949              1.050              0.464

 Optimization completed.
    -- Stationary point found.
 Normal termination of Gaussian 16 at Mon Jul 13 15:54:47 2020.
