 Gaussian 16, Revision C.01,
 Gaussian 16:  ES64L-G16RevC.01  3-Jul-2019

 ----------------------------------------------------------------------
 #p opt=addgic freq td wb97xd/cc-pvdz nosymm int=ultrafine scrf=(solven
 t=CarbonTetraChloride)
 ----------------------------------------------------------------------

 ------------------------------------------------
 NM 2D-scan of HBT TD-WB97XD pVDZ in CTC Relaxed.
 ------------------------------------------------
 Symbolic Z-matrix:
 Charge =  0 Multiplicity = 1

 SCF Done:  E(RwB97XD) =  -1028.81807982     A.U. after   15 cycles
 Total Energy, E(TD-HF/TD-DFT) =  -1028.69100125
 SCF Done:  E(RwB97XD) =  -1028.81819227     A.U. after   11 cycles
 Total Energy, E(TD-HF/TD-DFT) =  -1028.69153439
 SCF Done:  E(RwB97XD) =  -1028.81722946     A.U. after   12 cycles
 Total Energy, E(TD-HF/TD-DFT) =  -1028.69175007
 SCF Done:  E(RwB97XD) =  -1028.81745570     A.U. after   11 cycles
 Total Energy, E(TD-HF/TD-DFT) =  -1028.69182419
 SCF Done:  E(RwB97XD) =  -1028.81755000     A.U. after   10 cycles
 Total Energy, E(TD-HF/TD-DFT) =  -1028.69183064
 SCF Done:  E(RwB97XD) =  -1028.81756447     A.U. after    7 cycles
 Total Energy, E(TD-HF/TD-DFT) =  -1028.69183059
 SCF Done:  E(RwB97XD) =  -1028.81757947     A.U. after    7 cycles
 Total Energy, E(TD-HF/TD-DFT) =  -1028.69183085
 Optimization completed.
    -- Stationary point found.
 Normal termination of Gaussian 16 at Mon Jul 13 14:09:39 2020.

 ----------------------------------------------------------------------
 #P Geom=AllCheck Guess=TCheck SCRF=Check GenChk RwB97XD TD(FC,Read)/CC
 -pVDZ Freq
 ----------------------------------------------------------------------

 Structure from the checkpoint file:  "config_5_6.chk"
 ------------------------------------------------
 NM 2D-scan of HBT TD-WB97XD pVDZ in CTC Relaxed.
 ------------------------------------------------
 Charge =  0 Multiplicity = 1

                          Input orientation:
 ---------------------------------------------------------------------
 Center     Atomic      Atomic             Coordinates (Angstroms)
 Number     Number       Type             X           Y           Z
 ---------------------------------------------------------------------
      1          6           0        1.691001   -3.273581   -0.000015
      2          6           0        0.994443   -2.067377    0.000033
      3          6           0        1.688653   -0.820294   -0.000010
      4          6           0        3.103162   -0.806535   -0.000100
      5          6           0        3.780134   -2.010732   -0.000146
      6          6           0        3.086560   -3.236969   -0.000105
      7          1           0        1.161288   -4.227018    0.000014
      8          1           0        3.627250    0.149747   -0.000131
      9          1           0        4.871613   -2.014289   -0.000216
     10          1           0        3.646143   -4.173396   -0.000144
     11          7           0        0.901522    0.265524    0.000042
     12         16           0       -0.742236   -1.782842    0.000136
     13          6           0       -1.383989    1.018038    0.000114
     14          6           0       -2.786643    0.849606    0.000045
     15          6           0       -0.883149    2.414324    0.000110
     16          6           0       -3.644045    1.949974   -0.000059
     17          1           0       -3.203245   -0.159130    0.000042
     18          6           0       -1.783223    3.496492   -0.000015
     19          6           0       -3.154566    3.274775   -0.000101
     20          1           0       -4.721880    1.779270   -0.000124
     21          1           0       -1.356158    4.499823   -0.000017
     22          1           0       -3.849062    4.115037   -0.000188
     23          6           0       -0.425760   -0.026084    0.000130
     24          8           0        0.395947    2.660255    0.000271
     25          1           0        0.888495    1.709539    0.000526
 ---------------------------------------------------------------------

 SCF Done:  E(RwB97XD) =  -1028.81757947     A.U. after    1 cycles

 Excitation energies and oscillator strengths:

 Excited state symmetry could not be determined.
 Excited State   1:      Singlet-?Sym    3.4218 eV  362.34 nm  f=0.6018  <S**2>=0.000
      59 -> 60         0.69092
 This state for optimization and/or second-order correction.
 Total Energy, E(TD-HF/TD-DFT) =  -1028.69183085
 Copying the excited state density for this state as the 1-particle RhoCI density.

 Excited state symmetry could not be determined.
 Excited State   2:      Singlet-?Sym    4.3912 eV  282.35 nm  f=0.3095  <S**2>=0.000
      57 -> 60         0.17342
      58 -> 60         0.64624
      59 -> 62         0.10978
      59 -> 64         0.11352

 Excited state symmetry could not be determined.
 Excited State   3:      Singlet-?Sym    4.6574 eV  266.21 nm  f=0.0461  <S**2>=0.000
      56 -> 61        -0.10385
      57 -> 60         0.58239
      57 -> 62        -0.14648
      58 -> 60        -0.16918
      58 -> 61        -0.16183
      59 -> 61         0.23639

 Alpha  occ. eigenvalues --  -89.09398 -19.27006 -14.47507 -10.40216 -10.37817
 Alpha  occ. eigenvalues --  -10.35313 -10.35070 -10.32430 -10.32405 -10.32181
 Alpha  occ. eigenvalues --  -10.31769 -10.31659 -10.31593 -10.31511 -10.30223
 Alpha  occ. eigenvalues --  -10.29981  -8.11318  -6.06176  -6.05829  -6.05369
 Alpha  occ. eigenvalues --   -1.16135  -1.08804  -0.96823  -0.95558  -0.91917
 Alpha  occ. eigenvalues --   -0.88856  -0.85065  -0.84189  -0.82415  -0.75938
 Alpha  occ. eigenvalues --   -0.71072  -0.70307  -0.68996  -0.68298  -0.63418
 Alpha  occ. eigenvalues --   -0.60588  -0.58926  -0.58470  -0.55693  -0.54365
 Alpha  occ. eigenvalues --   -0.54079  -0.53119  -0.52833  -0.51081  -0.50126
 Alpha  occ. eigenvalues --   -0.49632  -0.47504  -0.46043  -0.45561  -0.44802
 Alpha  occ. eigenvalues --   -0.43899  -0.42650  -0.42610  -0.40220  -0.36550
 Alpha  occ. eigenvalues --   -0.36500  -0.32395  -0.31253  -0.27877
 Alpha virt. eigenvalues --   -0.01756   0.04891   0.06933   0.07212   0.07458
 Alpha virt. eigenvalues --    0.10917   0.13503   0.15084   0.16083   0.17937
 Alpha virt. eigenvalues --    0.18688   0.20948   0.21701   0.22422   0.22522

 Mulliken charges:
               1
     1  C    0.012606
     2  C   -0.230150
     3  C    0.254476
     4  C   -0.016033
     5  C    0.009289
     6  C   -0.005457
     7  H    0.019651
     8  H    0.020003
     9  H    0.020311
    10  H    0.021570
    11  N   -0.348077
    12  S    0.165266
    13  C   -0.102654
    14  C   -0.018447
    15  C    0.102022
    16  C   -0.020039
    17  H    0.010203
    18  C    0.001637
    19  C    0.025122
    20  H    0.009730
    21  H    0.015846
    22  H    0.021379
    23  C    0.081719
    24  O   -0.245518
    25  H    0.195544
 Sum of Mulliken charges =  -0.00000

 Dipole moment (field-independent basis, Debye):
    X=             -0.0366    Y=             -2.5603    Z=              0.0001  Tot=              2.5606
 Quadrupole moment (field-independent basis, Debye-Ang):
   XX=            -83.2960   YY=            -89.8458   ZZ=           -104.3672
   XY=             -6.9695   XZ=              0.0003   YZ=             -0.0003

  Exact polarizability:     388.022    -173.010     358.830      -0.003       0.001      63.403
 Approx polarizability:     277.325     -35.650     261.010      -0.002      -0.001      82.404

                      1                      2                      3
                      A                      A                      A
 Frequencies --     34.2008                48.8778                91.2361
 Red. masses --      6.1222                 6.8017                 5.2275
 Frc consts  --      0.0042                 0.0096                 0.0256
 IR Inten    --      0.6655                 0.9144                 0.6609

                      4                      5                      6
                      A                      A                      A
 Frequencies --    107.4108               177.3267               222.8436
 Red. masses --      4.6467                 6.0916                 5.3516
 Frc consts  --      0.0316                 0.1129                 0.1566
 IR Inten    --      0.1188                 0.8451                 0.0236

                      7                      8                      9
                      A                      A                      A
 Frequencies --    267.8495               270.2502               282.0785
 Red. masses --      7.5139                 4.7974                 5.3170
 Frc consts  --      0.3176                 0.2064                 0.2493
 IR Inten    --     22.5631                 0.1504                17.8209

                     10                     11                     12
                      A                      A                      A
 Frequencies --    383.4456               399.6796               438.1248
 Red. masses --      4.7603                 8.8889                 3.2399
 Frc consts  --      0.4124                 0.8366                 0.3664
 IR Inten    --      0.2553                 8.9352                 4.6236

                     13                     14                     15
                      A                      A                      A
 Frequencies --    485.6023               485.7320               498.2816
 Red. masses --      4.1662                 4.6775                 3.1656
 Frc consts  --      0.5788                 0.6502                 0.4631
 IR Inten    --     10.9355                 0.0520                 0.0999

                     16                     17                     18
                      A                      A                      A
 Frequencies --    504.0743               530.6128               554.6290
 Red. masses --      8.5864                 8.2770                 3.9450
 Frc consts  --      1.2854                 1.3730                 0.7150
 IR Inten    --      0.3273                27.9826                 0.1453

                     19                     20                     21
                      A                      A                      A
 Frequencies --    579.4979               636.9661               701.2255
 Red. masses --      7.5582                 6.7960                 7.0596
 Frc consts  --      1.4954                 1.6246                 2.0452
 IR Inten    --      7.3851                48.7142                 2.0848

                     22                     23                     24
                      A                      A                      A
 Frequencies --    705.1740               728.2003               738.7502
 Red. masses --      1.6945                 9.3603                 1.9985
 Frc consts  --      0.4964                 2.9244                 0.6426
 IR Inten    --     42.8664                19.4293                24.3375

                     25                     26                     27
                      A                      A                      A
 Frequencies --    757.1320               769.6957               814.0412
 Red. masses --      1.9210                 1.9412                 6.2396
 Frc consts  --      0.6488                 0.6776                 2.4361
 IR Inten    --     28.9893                55.9881                 8.8886

                     28                     29                     30
                      A                      A                      A
 Frequencies --    820.3760               861.0843               900.2030
 Red. masses --      1.6335                 1.4131                 6.4193
 Frc consts  --      0.6477                 0.6173                 3.0649
 IR Inten    --      0.0435                 0.9421                54.8605

                     31                     32                     33
                      A                      A                      A
 Frequencies --    913.1014               954.0405               960.9423
 Red. masses --      1.3590                 1.3430                 1.3733
 Frc consts  --      0.6676                 0.7202                 0.7471
 IR Inten    --      5.4593                 1.7884                 0.3581

                     34                     35                     36
                      A                      A                      A
 Frequencies --    967.2714              1000.1322              1036.2541
 Red. masses --      6.8604                 1.2960                 2.1760
 Frc consts  --      3.7818                 0.7638                 1.3767
 IR Inten    --     11.3954                 0.0147                 1.2530

                     37                     38                     39
                      A                      A                      A
 Frequencies --   1044.7421              1075.0917              1124.6391
 Red. masses --      2.2145                 3.8429                 1.6099
 Frc consts  --      1.4241                 2.6170                 1.1997
 IR Inten    --      0.6114                56.6112                52.4673

                     40                     41                     42
                      A                      A                      A
 Frequencies --   1141.1445              1145.9888              1169.7848
 Red. masses --      1.0574                 1.3291                 1.1608
 Frc consts  --      0.8113                 1.0284                 0.9359
 IR Inten    --     64.9989                12.3820                29.3214

                     43                     44                     45
                      A                      A                      A
 Frequencies --   1177.5029              1231.7306              1245.1565
 Red. masses --      1.1791                 2.4156                 1.9927
 Frc consts  --      0.9632                 2.1592                 1.8203
 IR Inten    --     18.6082                84.7031                84.2194

                     46                     47                     48
                      A                      A                      A
 Frequencies --   1266.9737              1287.0227              1364.7941
 Red. masses --      3.5072                 1.8049                 2.5909
 Frc consts  --      3.3170                 1.7614                 2.8434
 IR Inten    --    108.2617                14.9604                16.9897

                     49                     50                     51
                      A                      A                      A
 Frequencies --   1375.2018              1402.2681              1441.0063
 Red. masses --      5.2553                 2.1516                 2.3923
 Frc consts  --      5.8557                 2.4927                 2.9268
 IR Inten    --    141.0139                 2.7973               113.4452

                     52                     53                     54
                      A                      A                      A
 Frequencies --   1470.4408              1487.1504              1523.5663
 Red. masses --      4.7869                 2.8929                 5.1347
 Frc consts  --      6.0982                 3.7695                 7.0225
 IR Inten    --     22.6012               189.3655               374.9266

                     55                     56                     57
                      A                      A                      A
 Frequencies --   1537.3028              1559.1920              1570.8802
 Red. masses --      4.3342                 5.0924                 3.5548
 Frc consts  --      6.0350                 7.2941                 5.1684
 IR Inten    --    110.9094               579.9082                27.4012

                     58                     59                     60
                      A                      A                      A
 Frequencies --   1615.3094              1648.8390              1666.6757
 Red. masses --      5.9617                 5.2233                 2.4870
 Frc consts  --      9.1650                 8.3666                 4.0703
 IR Inten    --    307.8606               649.1024               306.0031

                     61                     62                     63
                      A                      A                      A
 Frequencies --   1976.1451              3205.2334              3207.5878
 Red. masses --      1.1419                 1.0874                 1.0864
 Frc consts  --      2.6274                 6.5820                 6.5854
 IR Inten    --    402.9895                 8.6130                 9.1617

                     64                     65                     66
                      A                      A                      A
 Frequencies --   3217.9189              3219.1167              3226.4772
 Red. masses --      1.0886                 1.0899                 1.0934
 Frc consts  --      6.6417                 6.6544                 6.7064
 IR Inten    --      1.9429                 3.0401                17.4863

                     67                     68                     69
                      A                      A                      A
 Frequencies --   3230.6413              3236.7980              3238.6895
 Red. masses --      1.0953                 1.0991                 1.0987
 Frc consts  --      6.7353                 6.7845                 6.7900
 IR Inten    --     10.8213                38.1443                17.4088

 - Thermochemistry -
 -------------------
 Temperature   298.150 Kelvin.  Pressure   1.00000 Atm.
 Atom     1 has atomic number  6 and mass  12.00000

 Molecular mass:   227.04049 amu.
 Principal axes and moments of inertia in atomic units:
                           1         2         3
     Eigenvalues --  1325.907656321.229127647.13676
           X           -0.70178   0.71240   0.00001
           Y            0.71240   0.70178  -0.00000
           Z            0.00001  -0.00000   1.00000
 This molecule is an asymmetric top.
 Rotational symmetry number  1.
 Warning -- assumption of classical behavior for rotation
           may cause significant error
 Rotational temperatures (Kelvin)      0.06532     0.01370     0.01133
 Rotational constants (GHZ):           1.36114     0.28550     0.23600
 Zero-point vibrational energy     484232.5 (Joules/Mol)
                                  115.73435 (Kcal/Mol)
 Warning -- explicit consideration of  19 degrees of freedom as
           vibrations may cause significant error
 Vibrational temperatures:     49.21    70.32   131.27   154.54   255.13
          (Kelvin)            320.62   385.38   388.83   405.85   551.69
                              575.05   630.36   698.67   698.86   716.92
                              725.25   763.43   797.99   833.77   916.45
                             1008.91  1014.59  1047.72  1062.90  1089.34
                             1107.42  1171.22  1180.34  1238.91  1295.19
                             1313.75  1372.65  1382.58  1391.69  1438.97
                             1490.94  1503.15  1546.82  1618.10  1641.85
                             1648.82  1683.06  1694.16  1772.19  1791.50
                             1822.89  1851.74  1963.63  1978.61  2017.55
                             2073.29  2115.64  2139.68  2192.07  2211.84
                             2243.33  2260.15  2324.07  2372.31  2397.97
                             2843.23  4611.62  4615.00  4629.87  4631.59
                             4642.18  4648.17  4657.03  4659.75

 Zero-point correction=                           0.184434 (Hartree/Particle)
 Thermal correction to Energy=                    0.196853
 Thermal correction to Enthalpy=                  0.197797
 Thermal correction to Gibbs Free Energy=         0.144467
 Sum of electronic and zero-point Energies=          -1028.507396
 Sum of electronic and thermal Energies=             -1028.494978
 Sum of electronic and thermal Enthalpies=           -1028.494034
 Sum of electronic and thermal Free Energies=        -1028.547364

                     E (Thermal)             CV                S
                      KCal/Mol        Cal/Mol-Kelvin    Cal/Mol-Kelvin
 Total                  123.527             49.304            112.243
 Electronic               0.000              0.000              0.000
 Translational            0.889              2.981             42.162
 Rotational               0.889              2.981             32.527
 Vibrational            121.749             43.343             37.553
 Vibration     1          0.594              1.983              5.570
 Vibration     2          0.595              1.978              4.862
 Vibration     3          0.602              1.955              3.633
 Vibration     4          0.606              1.943              3.315
 Vibration     5          0.628              1.870              2.356
 Vibration     6          0.649              1.806              1.936
 Vibration     7          0.673              1.732              1.610
 Vibration     8          0.674              1.728              1.595
 Vibration     9          0.681              1.707              1.521
 Vibration    10          0.753              1.506              1.026
 Vibration    11          0.766              1.471              0.964
 Vibration    12          0.798              1.387              0.833
 Vibration    13          0.842              1.282              0.695
 Vibration    14          0.842              1.282              0.695
 Vibration    15          0.854              1.254              0.662
 Vibration    16          0.859              1.241              0.648
 Vibration    17          0.886              1.182              0.586
 Vibration    18          0.910              1.130              0.535
 Vibration    19          0.936              1.076              0.486

 Optimization completed.
    -- Stationary point found.
 Normal termination of Gaussian 16 at Mon Jul 13 14:27:16 2020.
