 Gaussian 16, Revision C.01,
 Gaussian 16:  ES64L-G16RevC.01  3-Jul-2019

 ----------------------------------------------------------------------
 #p opt=addgic freq td wb97xd/cc-pvdz nosymm int=ultrafine scrf=(solven
 t=CarbonTetraChloride)
 ----------------------------------------------------------------------

 ------------------------------------------------
 NM 2D-scan of HBT TD-WB97XD pVDZ in CTC Relaxed.
 ------------------------------------------------
 Symbolic Z-matrix:
 Charge =  0 Multiplicity = 1

 SCF Done:  E(RwB97XD) =  -1028.81092152     A.U. after   15 cycles
 Total Energy, E(TD-HF/TD-DFT) =  -1028.68374486
 SCF Done:  E(RwB97XD) =  -1028.81302380     A.U. after   12 cycles
 Total Energy, E(TD-HF/TD-DFT) =  -1028.68597820
 SCF Done:  E(RwB97XD) =  -1028.81245553     A.U. after   12 cycles
 Total Energy, E(TD-HF/TD-DFT) =  -1028.68698137
 SCF Done:  E(RwB97XD) =  -1028.81253204     A.U. after   11 cycles
 Total Energy, E(TD-HF/TD-DFT) =  -1028.68713661
 SCF Done:  E(RwB97XD) =  -1028.81260736     A.U. after   10 cycles
 Total Energy, E(TD-HF/TD-DFT) =  -1028.68714388
 SCF Done:  E(RwB97XD) =  -1028.81262551     A.U. after    8 cycles
 Total Energy, E(TD-HF/TD-DFT) =  -1028.68714450
 SCF Done:  E(RwB97XD) =  -1028.81265199     A.U. after    8 cycles
 Total Energy, E(TD-HF/TD-DFT) =  -1028.68714436
 SCF Done:  E(RwB97XD) =  -1028.81263650     A.U. after    8 cycles
 Total Energy, E(TD-HF/TD-DFT) =  -1028.68714483
 Optimization completed.
    -- Stationary point found.
 Normal termination of Gaussian 16 at Mon Jul 13 14:15:05 2020.

 ----------------------------------------------------------------------
 #P Geom=AllCheck Guess=TCheck SCRF=Check GenChk RwB97XD TD(FC,Read)/CC
 -pVDZ Freq
 ----------------------------------------------------------------------

 Structure from the checkpoint file:  "config_5_1.chk"
 ------------------------------------------------
 NM 2D-scan of HBT TD-WB97XD pVDZ in CTC Relaxed.
 ------------------------------------------------
 Charge =  0 Multiplicity = 1

                          Input orientation:
 ---------------------------------------------------------------------
 Center     Atomic      Atomic             Coordinates (Angstroms)
 Number     Number       Type             X           Y           Z
 ---------------------------------------------------------------------
      1          6           0        1.762908   -3.280056   -0.000051
      2          6           0        0.993520   -2.115569   -0.000014
      3          6           0        1.640268   -0.843268    0.000021
      4          6           0        3.051656   -0.745584    0.000024
      5          6           0        3.794477   -1.905497   -0.000014
      6          6           0        3.157978   -3.163741   -0.000052
      7          1           0        1.295845   -4.265799   -0.000080
      8          1           0        3.511845    0.243064    0.000052
      9          1           0        4.884689   -1.854108   -0.000017
     10          1           0        3.764318   -4.070830   -0.000082
     11          7           0        0.832434    0.215526    0.000047
     12         16           0       -0.760664   -1.876209   -0.000008
     13          6           0       -1.417987    0.995044    0.000007
     14          6           0       -2.832466    0.908063   -0.000003
     15          6           0       -0.868628    2.384120    0.000004
     16          6           0       -3.635493    2.049437    0.000027
     17          1           0       -3.302928   -0.076709   -0.000020
     18          6           0       -1.715756    3.505730    0.000047
     19          6           0       -3.091988    3.354308    0.000060
     20          1           0       -4.719957    1.926563    0.000028
     21          1           0       -1.232941    4.483381    0.000054
     22          1           0       -3.747225    4.225382    0.000089
     23          6           0       -0.489764   -0.085329    0.000021
     24          8           0        0.414730    2.628058   -0.000043
     25          1           0        0.880399    1.690810   -0.000013
 ---------------------------------------------------------------------

 SCF Done:  E(RwB97XD) =  -1028.81263650     A.U. after    1 cycles

 Excitation energies and oscillator strengths:

 Excited state symmetry could not be determined.
 Excited State   1:      Singlet-?Sym    3.4148 eV  363.08 nm  f=0.6105  <S**2>=0.000
      59 -> 60         0.69101
 This state for optimization and/or second-order correction.
 Total Energy, E(TD-HF/TD-DFT) =  -1028.68714486
 Copying the excited state density for this state as the 1-particle RhoCI density.

 Excited state symmetry could not be determined.
 Excited State   2:      Singlet-?Sym    4.3831 eV  282.87 nm  f=0.3219  <S**2>=0.000
      57 -> 60         0.15857
      58 -> 60         0.64897
      59 -> 63         0.10897
      59 -> 64         0.12198

 Excited state symmetry could not be determined.
 Excited State   3:      Singlet-?Sym    4.6306 eV  267.75 nm  f=0.0348  <S**2>=0.000
      56 -> 61        -0.10576
      57 -> 60         0.58401
      57 -> 63        -0.14509
      58 -> 60        -0.15094
      58 -> 61        -0.16106
      59 -> 61         0.24668

 Alpha  occ. eigenvalues --  -89.09531 -19.27263 -14.47168 -10.40370 -10.37923
 Alpha  occ. eigenvalues --  -10.35190 -10.35054 -10.32830 -10.32527 -10.32194
 Alpha  occ. eigenvalues --  -10.31696 -10.31623 -10.31545 -10.31466 -10.30213
 Alpha  occ. eigenvalues --  -10.29895  -8.11360  -6.06231  -6.05882  -6.05404
 Alpha  occ. eigenvalues --   -1.16470  -1.08761  -0.96732  -0.95414  -0.91570
 Alpha  occ. eigenvalues --   -0.88835  -0.84884  -0.84206  -0.82372  -0.75952
 Alpha  occ. eigenvalues --   -0.70992  -0.70201  -0.68927  -0.68380  -0.63261
 Alpha  occ. eigenvalues --   -0.60498  -0.58802  -0.58494  -0.55646  -0.54335
 Alpha  occ. eigenvalues --   -0.53938  -0.53075  -0.52601  -0.51217  -0.50141
 Alpha  occ. eigenvalues --   -0.49546  -0.47737  -0.45968  -0.45506  -0.44740
 Alpha  occ. eigenvalues --   -0.43694  -0.42644  -0.42538  -0.40114  -0.36604
 Alpha  occ. eigenvalues --   -0.36470  -0.32426  -0.31212  -0.27809
 Alpha virt. eigenvalues --   -0.01789   0.04903   0.07006   0.07016   0.07391
 Alpha virt. eigenvalues --    0.10940   0.12537   0.15077   0.15829   0.17889
 Alpha virt. eigenvalues --    0.18708   0.20846   0.21704   0.22369   0.22551

 Mulliken charges:
               1
     1  C    0.006527
     2  C   -0.230717
     3  C    0.260311
     4  C   -0.015775
     5  C    0.010854
     6  C   -0.007541
     7  H    0.020740
     8  H    0.019936
     9  H    0.020068
    10  H    0.021726
    11  N   -0.345183
    12  S    0.159720
    13  C   -0.112629
    14  C   -0.014938
    15  C    0.100446
    16  C   -0.021163
    17  H    0.008055
    18  C    0.006527
    19  C    0.024573
    20  H    0.010249
    21  H    0.016077
    22  H    0.021018
    23  C    0.081529
    24  O   -0.227952
    25  H    0.187539
 Sum of Mulliken charges =  -0.00000

 Dipole moment (field-independent basis, Debye):
    X=              0.0566    Y=             -2.3182    Z=              0.0000  Tot=              2.3189
 Quadrupole moment (field-independent basis, Debye-Ang):
   XX=            -83.3239   YY=            -89.5150   ZZ=           -104.4728
   XY=             -6.8929   XZ=             -0.0001   YZ=              0.0006

  Exact polarizability:     393.553    -177.575     366.189      -0.002       0.004      63.528
 Approx polarizability:     279.098     -35.915     262.873      -0.001       0.003      82.507

 ******    1 imaginary frequencies (negative Signs) ******

                      1                      2                      3
                      A                      A                      A
 Frequencies --    -13.4869                40.0292               104.1379
 Red. masses --      6.7613                 6.4893                 4.4281
 Frc consts  --      0.0007                 0.0061                 0.0283
 IR Inten    --      0.4619                 1.0893                 0.2136

                      4                      5                      6
                      A                      A                      A
 Frequencies --    107.3223               177.1069               222.9469
 Red. masses --      5.5054                 6.0570                 5.3140
 Frc consts  --      0.0374                 0.1119                 0.1556
 IR Inten    --      0.9858                 0.7082                 0.0236

                      7                      8                      9
                      A                      A                      A
 Frequencies --    266.3480               267.3950               301.3560
 Red. masses --      7.6232                 4.8095                 6.1189
 Frc consts  --      0.3186                 0.2026                 0.3274
 IR Inten    --     21.7104                 0.2341                11.3237

                     10                     11                     12
                      A                      A                      A
 Frequencies --    386.4756               391.9465               436.8136
 Red. masses --      4.8135                 8.9059                 3.2144
 Frc consts  --      0.4236                 0.8061                 0.3614
 IR Inten    --      0.3440                 9.8369                 4.9598

                     13                     14                     15
                      A                      A                      A
 Frequencies --    487.4683               491.8370               496.8751
 Red. masses --      4.6820                 4.6310                 3.1546
 Frc consts  --      0.6555                 0.6600                 0.4589
 IR Inten    --      0.1278                13.3342                 0.0456

                     16                     17                     18
                      A                      A                      A
 Frequencies --    504.2595               526.5113               551.7287
 Red. masses --      7.2979                 8.5102                 3.9272
 Frc consts  --      1.0933                 1.3900                 0.7043
 IR Inten    --      2.3822                24.0780                 0.1639

                     19                     20                     21
                      A                      A                      A
 Frequencies --    580.2343               633.9495               685.9740
 Red. masses --      7.5734                 6.9478                 7.5372
 Frc consts  --      1.5023                 1.6452                 2.0897
 IR Inten    --     15.2576                63.2719                 3.6290

                     22                     23                     24
                      A                      A                      A
 Frequencies --    706.3833               716.1689               735.0799
 Red. masses --      1.7997                 8.3381                 1.9178
 Frc consts  --      0.5291                 2.5197                 0.6106
 IR Inten    --     38.2007                13.1066                25.5259

                     25                     26                     27
                      A                      A                      A
 Frequencies --    757.4236               768.3534               803.6937
 Red. masses --      1.8827                 1.9989                 6.4596
 Frc consts  --      0.6364                 0.6953                 2.4583
 IR Inten    --     31.3368                54.9214                 9.9518

                     28                     29                     30
                      A                      A                      A
 Frequencies --    826.1808               856.9220               898.6500
 Red. masses --      1.5784                 1.4266                 6.4330
 Frc consts  --      0.6348                 0.6172                 3.0609
 IR Inten    --      0.0706                 0.9170                40.2320

                     31                     32                     33
                      A                      A                      A
 Frequencies --    918.3639               950.9663               960.1379
 Red. masses --      1.3529                 1.3455                 6.9394
 Frc consts  --      0.6723                 0.7169                 3.7691
 IR Inten    --      5.8596                 1.6066                16.1345

                     34                     35                     36
                      A                      A                      A
 Frequencies --    961.9646               998.0154              1036.9120
 Red. masses --      1.3670                 1.2979                 2.2550
 Frc consts  --      0.7453                 0.7616                 1.4285
 IR Inten    --      0.4694                 0.0446                 2.0739

                     37                     38                     39
                      A                      A                      A
 Frequencies --   1040.8139              1067.3660              1092.9922
 Red. masses --      2.2090                 4.2783                 1.0629
 Frc consts  --      1.4099                 2.8717                 0.7481
 IR Inten    --      0.9152                43.0586                65.1178

                     40                     41                     42
                      A                      A                      A
 Frequencies --   1127.5031              1145.7217              1170.8254
 Red. masses --      1.5382                 1.3099                 1.1434
 Frc consts  --      1.1521                 1.0130                 0.9235
 IR Inten    --     59.7042                12.7724                31.4956

                     43                     44                     45
                      A                      A                      A
 Frequencies --   1175.5217              1235.2173              1247.0016
 Red. masses --      1.1675                 2.6546                 2.3017
 Frc consts  --      0.9505                 2.3863                 2.1087
 IR Inten    --     26.2216               145.4527                59.3701

                     46                     47                     48
                      A                      A                      A
 Frequencies --   1278.4387              1282.5332              1362.8552
 Red. masses --      2.9596                 1.8415                 2.7803
 Frc consts  --      2.8500                 1.7846                 3.0425
 IR Inten    --    189.4629                34.8083                14.7112

                     49                     50                     51
                      A                      A                      A
 Frequencies --   1375.8771              1401.5846              1441.7881
 Red. masses --      4.5860                 2.0597                 2.4543
 Frc consts  --      5.1150                 2.3840                 3.0059
 IR Inten    --     88.5656                 0.4195               141.3050

                     52                     53                     54
                      A                      A                      A
 Frequencies --   1475.7465              1494.2166              1514.1204
 Red. masses --      3.5189                 3.9060                 4.7864
 Frc consts  --      4.5153                 5.1381                 6.4652
 IR Inten    --    163.4120               104.9207               419.2456

                     55                     56                     57
                      A                      A                      A
 Frequencies --   1527.4148              1550.4739              1584.8768
 Red. masses --      3.8126                 4.6195                 3.3273
 Frc consts  --      5.2407                 6.5430                 4.9241
 IR Inten    --    153.9385               499.8697                88.4973

                     58                     59                     60
                      A                      A                      A
 Frequencies --   1617.2678              1640.8678              1657.9800
 Red. masses --      5.5710                 3.1881                 4.0478
 Frc consts  --      8.5851                 5.0574                 6.5558
 IR Inten    --    214.6948               689.9740                13.1626

                     61                     62                     63
                      A                      A                      A
 Frequencies --   2264.5782              3204.7069              3207.3419
 Red. masses --      1.1017                 1.0868                 1.0857
 Frc consts  --      3.3287                 6.5761                 6.5802
 IR Inten    --    392.6220                 8.5680                 6.0395

                     64                     65                     66
                      A                      A                      A
 Frequencies --   3216.1660              3218.0856              3226.4889
 Red. masses --      1.0898                 1.0903                 1.0922
 Frc consts  --      6.6416                 6.6527                 6.6993
 IR Inten    --      3.3146                 3.4845                19.7842

                     67                     68                     69
                      A                      A                      A
 Frequencies --   3226.8235              3234.4086              3240.0494
 Red. masses --      1.0954                 1.0996                 1.0988
 Frc consts  --      6.7202                 6.7775                 6.7963
 IR Inten    --     11.9984                34.7046                19.1724

 - Thermochemistry -
 -------------------
 Temperature   298.150 Kelvin.  Pressure   1.00000 Atm.
 Atom     1 has atomic number  6 and mass  12.00000

 Molecular mass:   227.04049 amu.
 Principal axes and moments of inertia in atomic units:
                           1         2         3
     Eigenvalues --  1355.822756328.085287683.90803
           X           -0.69897   0.71515   0.00000
           Y            0.71515   0.69897  -0.00001
           Z            0.00001   0.00000   1.00000
 This molecule is an asymmetric top.
 Rotational symmetry number  1.
 Warning -- assumption of classical behavior for rotation
           may cause significant error
 Rotational temperatures (Kelvin)      0.06388     0.01369     0.01127
 Rotational constants (GHZ):           1.33110     0.28520     0.23487
    1 imaginary frequencies ignored.
 Zero-point vibrational energy     485107.2 (Joules/Mol)
                                  115.94339 (Kcal/Mol)
 Warning -- explicit consideration of  18 degrees of freedom as
           vibrations may cause significant error
 Vibrational temperatures:     57.59   149.83   154.41   254.82   320.77
          (Kelvin)            383.22   384.72   433.58   556.05   563.92
                              628.48   701.36   707.64   714.89   725.52
                              757.53   793.81   834.83   912.11   986.96
                             1016.33  1030.41  1057.62  1089.76  1105.49
                             1156.34  1188.69  1232.92  1292.96  1321.32
                             1368.23  1381.42  1384.05  1435.92  1491.89
                             1497.50  1535.70  1572.57  1622.23  1648.44
                             1684.56  1691.31  1777.20  1794.16  1839.39
                             1845.28  1960.84  1979.58  2016.57  2074.41
                             2123.27  2149.84  2178.48  2197.61  2230.79
                             2280.28  2326.89  2360.84  2385.46  3258.22
                             4610.86  4614.65  4627.35  4630.11  4642.20
                             4642.68  4653.59  4661.71

 Zero-point correction=                           0.184768 (Hartree/Particle)
 Thermal correction to Energy=                    0.196319
 Thermal correction to Enthalpy=                  0.197263
 Thermal correction to Gibbs Free Energy=         0.146502
 Sum of electronic and zero-point Energies=          -1028.502377
 Sum of electronic and thermal Energies=             -1028.490826
 Sum of electronic and thermal Enthalpies=           -1028.489882
 Sum of electronic and thermal Free Energies=        -1028.540643

                     E (Thermal)             CV                S
                      KCal/Mol        Cal/Mol-Kelvin    Cal/Mol-Kelvin
 Total                  123.192             47.421            106.837
 Electronic               0.000              0.000              0.000
 Translational            0.889              2.981             42.162
 Rotational               0.889              2.981             32.555
 Vibrational            121.415             41.460             32.119
 Vibration     1          0.594              1.981              5.258
 Vibration     2          0.605              1.946              3.375
 Vibration     3          0.606              1.943              3.317
 Vibration     4          0.628              1.871              2.359
 Vibration     5          0.649              1.806              1.935
 Vibration     6          0.672              1.735              1.620
 Vibration     7          0.672              1.733              1.613
 Vibration     8          0.693              1.671              1.409
 Vibration     9          0.755              1.499              1.014
 Vibration    10          0.759              1.487              0.993
 Vibration    11          0.797              1.390              0.837
 Vibration    12          0.843              1.278              0.690
 Vibration    13          0.848              1.268              0.679
 Vibration    14          0.852              1.257              0.666
 Vibration    15          0.860              1.241              0.648
 Vibration    16          0.881              1.191              0.595
 Vibration    17          0.907              1.136              0.541
 Vibration    18          0.937              1.074              0.485

                           ! Non-Optimized Parameters !
 Normal termination of Gaussian 16 at Mon Jul 13 14:32:55 2020.
