 Gaussian 16, Revision C.01,
 Gaussian 16:  ES64L-G16RevC.01  3-Jul-2019

 ----------------------------------------------------------------------
 #p opt=addgic freq td wb97xd/cc-pvdz nosymm int=ultrafine scrf=(solven
 t=CarbonTetraChloride)
 ----------------------------------------------------------------------

 ------------------------------------------------
 NM 2D-scan of HBT TD-WB97XD pVDZ in CTC Relaxed.
 ------------------------------------------------
 Symbolic Z-matrix:
 Charge =  0 Multiplicity = 1

 SCF Done:  E(RwB97XD) =  -1028.67503409     A.U. after   15 cycles
 Total Energy, E(TD-HF/TD-DFT) =  -1028.54339008
 SCF Done:  E(RwB97XD) =  -1028.79820470     A.U. after   13 cycles
 Total Energy, E(TD-HF/TD-DFT) =  -1028.66829921
 SCF Done:  E(RwB97XD) =  -1028.79999537     A.U. after   15 cycles
 Total Energy, E(TD-HF/TD-DFT) =  -1028.67463042
 SCF Done:  E(RwB97XD) =  -1028.81850180     A.U. after   13 cycles
 Total Energy, E(TD-HF/TD-DFT) =  -1028.69101874
 SCF Done:  E(RwB97XD) =  -1028.81932199     A.U. after   11 cycles
 Total Energy, E(TD-HF/TD-DFT) =  -1028.69117174
 SCF Done:  E(RwB97XD) =  -1028.81955240     A.U. after    9 cycles
 Total Energy, E(TD-HF/TD-DFT) =  -1028.69118645
 SCF Done:  E(RwB97XD) =  -1028.81951187     A.U. after    9 cycles
 Total Energy, E(TD-HF/TD-DFT) =  -1028.69118931
 Optimization completed.
    -- Stationary point found.
 Normal termination of Gaussian 16 at Tue Jul 14 11:02:32 2020.

 ----------------------------------------------------------------------
 #P Geom=AllCheck Guess=TCheck SCRF=Check GenChk RwB97XD TD(FC,Read)/CC
 -pVDZ Freq
 ----------------------------------------------------------------------

 Structure from the checkpoint file:  "config_1_16.chk"
 ------------------------------------------------
 NM 2D-scan of HBT TD-WB97XD pVDZ in CTC Relaxed.
 ------------------------------------------------
 Charge =  0 Multiplicity = 1

                          Input orientation:
 ---------------------------------------------------------------------
 Center     Atomic      Atomic             Coordinates (Angstroms)
 Number     Number       Type             X           Y           Z
 ---------------------------------------------------------------------
      1          6           0        1.553851   -3.297428   -0.000017
      2          6           0        0.965153   -2.034702   -0.000009
      3          6           0        1.750254   -0.825219   -0.000018
      4          6           0        3.168237   -0.949705   -0.000037
      5          6           0        3.735094   -2.207109   -0.000045
      6          6           0        2.943149   -3.379175   -0.000034
      7          1           0        0.940008   -4.198950   -0.000009
      8          1           0        3.778804   -0.046250   -0.000044
      9          1           0        4.822379   -2.303807   -0.000059
     10          1           0        3.426653   -4.357097   -0.000040
     11          7           0        1.063111    0.326627   -0.000004
     12         16           0       -0.728337   -1.643059    0.000010
     13          6           0       -1.280553    1.084594    0.000031
     14          6           0       -2.673360    0.758683    0.000028
     15          6           0       -0.939152    2.512888    0.000039
     16          6           0       -3.638815    1.744370    0.000018
     17          1           0       -2.972894   -0.290244    0.000027
     18          6           0       -1.942845    3.484822    0.000028
     19          6           0       -3.282850    3.113386    0.000015
     20          1           0       -4.692981    1.463221    0.000012
     21          1           0       -1.635072    4.530834    0.000033
     22          1           0       -4.059811    3.878612    0.000006
     23          6           0       -0.281667    0.097996    0.000016
     24          8           0        0.320923    2.919521    0.000074
     25          1           0        0.913930    2.123140    0.000099
 ---------------------------------------------------------------------

 SCF Done:  E(RwB97XD) =  -1028.81951187     A.U. after    1 cycles

 Excitation energies and oscillator strengths:

 Excited state symmetry could not be determined.
 Excited State   1:      Singlet-?Sym    3.4918 eV  355.07 nm  f=0.7429  <S**2>=0.000
      59 -> 60         0.68908
 This state for optimization and/or second-order correction.
 Total Energy, E(TD-HF/TD-DFT) =  -1028.69118933
 Copying the excited state density for this state as the 1-particle RhoCI density.

 Excited state symmetry could not be determined.
 Excited State   2:      Singlet-?Sym    4.3807 eV  283.02 nm  f=0.0958  <S**2>=0.000
      57 -> 60         0.56883
      58 -> 60        -0.33090
      59 -> 61         0.10045
      59 -> 62        -0.15273

 Excited state symmetry could not be determined.
 Excited State   3:      Singlet-?Sym    4.5423 eV  272.95 nm  f=0.1143  <S**2>=0.000
      57 -> 60         0.30563
      58 -> 60         0.54923
      59 -> 61         0.20082
      59 -> 62         0.11035

 Alpha  occ. eigenvalues --  -89.08634 -19.29310 -14.47122 -10.39576 -10.38398
 Alpha  occ. eigenvalues --  -10.34916 -10.34531 -10.32778 -10.32422 -10.32152
 Alpha  occ. eigenvalues --  -10.31961 -10.31291 -10.31272 -10.31128 -10.30676
 Alpha  occ. eigenvalues --  -10.30632  -8.10618  -6.05458  -6.05125  -6.04682
 Alpha  occ. eigenvalues --   -1.17623  -1.07900  -0.96832  -0.95659  -0.91798
 Alpha  occ. eigenvalues --   -0.88764  -0.85219  -0.84480  -0.82126  -0.76009
 Alpha  occ. eigenvalues --   -0.71342  -0.70142  -0.69129  -0.68236  -0.63570
 Alpha  occ. eigenvalues --   -0.60205  -0.59058  -0.58533  -0.56157  -0.54493
 Alpha  occ. eigenvalues --   -0.53569  -0.53382  -0.52806  -0.50604  -0.50512
 Alpha  occ. eigenvalues --   -0.49141  -0.47855  -0.45934  -0.45539  -0.44807
 Alpha  occ. eigenvalues --   -0.43999  -0.43030  -0.41958  -0.39887  -0.37703
 Alpha  occ. eigenvalues --   -0.36424  -0.31895  -0.31727  -0.28052
 Alpha virt. eigenvalues --   -0.01901   0.05298   0.06838   0.07050   0.07692
 Alpha virt. eigenvalues --    0.11283   0.14093   0.15211   0.16646   0.18090
 Alpha virt. eigenvalues --    0.18443   0.20682   0.21542   0.22300   0.22771

 Mulliken charges:
               1
     1  C    0.016869
     2  C   -0.212069
     3  C    0.201339
     4  C   -0.018386
     5  C    0.005702
     6  C   -0.007319
     7  H    0.016367
     8  H    0.014766
     9  H    0.017486
    10  H    0.019490
    11  N   -0.351905
    12  S    0.146632
    13  C   -0.064456
    14  C   -0.026037
    15  C    0.072879
    16  C   -0.005932
    17  H    0.023155
    18  C    0.013794
    19  C    0.021261
    20  H    0.012414
    21  H    0.021096
    22  H    0.023779
    23  C    0.077845
    24  O   -0.185848
    25  H    0.167079
 Sum of Mulliken charges =  -0.00000

 Dipole moment (field-independent basis, Debye):
    X=             -0.7979    Y=             -1.6771    Z=              0.0000  Tot=              1.8573
 Quadrupole moment (field-independent basis, Debye-Ang):
   XX=            -83.1124   YY=            -89.1676   ZZ=           -104.4034
   XY=             -6.8886   XZ=             -0.0000   YZ=              0.0000

  Exact polarizability:     403.287    -198.181     396.757      -0.003       0.003      63.386
 Approx polarizability:     279.682     -37.319     262.221      -0.001       0.001      82.374

                      1                      2                      3
                      A                      A                      A
 Frequencies --     41.3655                72.2177               107.0656
 Red. masses --      6.0941                 5.0126                 5.6620
 Frc consts  --      0.0061                 0.0154                 0.0382
 IR Inten    --      1.2364                 0.0017                 1.9274

                      4                      5                      6
                      A                      A                      A
 Frequencies --    110.2278               182.4977               225.6063
 Red. masses --      5.1310                 6.8498                 5.4238
 Frc consts  --      0.0367                 0.1344                 0.1627
 IR Inten    --      0.2665                 1.3642                 0.0190

                      7                      8                      9
                      A                      A                      A
 Frequencies --    259.8264               271.9519               286.6110
 Red. masses --      8.0042                 4.8478                 6.5840
 Frc consts  --      0.3184                 0.2112                 0.3187
 IR Inten    --     14.8080                 0.0343                17.1544

                     10                     11                     12
                      A                      A                      A
 Frequencies --    394.3519               403.6866               441.2484
 Red. masses --      4.5030                 8.9263                 3.2829
 Frc consts  --      0.4126                 0.8571                 0.3766
 IR Inten    --      0.0537                13.0737                 3.9135

                     13                     14                     15
                      A                      A                      A
 Frequencies --    493.3054               496.6735               509.3737
 Red. masses --      4.3846                 7.0679                 5.4874
 Frc consts  --      0.6287                 1.0273                 0.8389
 IR Inten    --      0.1895                 8.4988                18.2566

                     16                     17                     18
                      A                      A                      A
 Frequencies --    510.8530               524.2701               550.5539
 Red. masses --      3.1538                 8.3456                 3.9946
 Frc consts  --      0.4849                 1.3515                 0.7134
 IR Inten    --      0.2374                24.4826                 0.2474

                     19                     20                     21
                      A                      A                      A
 Frequencies --    576.8310               644.5011               678.7467
 Red. masses --      7.7082                 6.5952                10.3316
 Frc consts  --      1.5111                 1.6141                 2.8044
 IR Inten    --     55.9088                 5.8370                65.4932

                     22                     23                     24
                      A                      A                      A
 Frequencies --    713.3450               723.7707               734.9903
 Red. masses --      6.5189                 1.5674                 1.7864
 Frc consts  --      1.9544                 0.4838                 0.5686
 IR Inten    --     10.9587                69.1092                49.6073

                     25                     26                     27
                      A                      A                      A
 Frequencies --    739.6545               771.8529               814.0088
 Red. masses --      2.0192                 2.2739                 6.4315
 Frc consts  --      0.6509                 0.7982                 2.5108
 IR Inten    --      0.5636                46.6093                22.3981

                     28                     29                     30
                      A                      A                      A
 Frequencies --    815.1415               845.9282               860.1231
 Red. masses --      1.6905                 1.0896                 1.4347
 Frc consts  --      0.6618                 0.4594                 0.6254
 IR Inten    --     17.9858                50.8019                 3.6665

                     31                     32                     33
                      A                      A                      A
 Frequencies --    880.9906               923.8311               952.5360
 Red. masses --      6.3603                 1.3443                 7.2901
 Frc consts  --      2.9085                 0.6760                 3.8972
 IR Inten    --     67.1790                 1.6280                10.6335

                     34                     35                     36
                      A                      A                      A
 Frequencies --    953.7728               969.5865               998.9388
 Red. masses --      1.3436                 1.3412                 1.3061
 Frc consts  --      0.7201                 0.7429                 0.7679
 IR Inten    --      2.1163                 0.0966                 0.0005

                     37                     38                     39
                      A                      A                      A
 Frequencies --   1038.8007              1043.7357              1083.2959
 Red. masses --      2.0992                 2.1652                 4.6345
 Frc consts  --      1.3347                 1.3897                 3.2044
 IR Inten    --      0.7864                 5.3383                39.2363

                     40                     41                     42
                      A                      A                      A
 Frequencies --   1138.3828              1150.9644              1175.6221
 Red. masses --      1.4756                 1.3299                 1.2031
 Frc consts  --      1.1267                 1.0380                 0.9797
 IR Inten    --     43.7891                14.5413                37.2376

                     43                     44                     45
                      A                      A                      A
 Frequencies --   1179.9131              1206.9924              1238.4713
 Red. masses --      1.2426                 4.5644                 1.5772
 Frc consts  --      1.0192                 3.9178                 1.4253
 IR Inten    --      5.8265                42.5113               152.0423

                     46                     47                     48
                      A                      A                      A
 Frequencies --   1275.8900              1313.6575              1355.4804
 Red. masses --      1.6659                 3.0074                 3.0120
 Frc consts  --      1.5978                 3.0578                 3.2606
 IR Inten    --      0.1121               225.8597                65.5786

                     49                     50                     51
                      A                      A                      A
 Frequencies --   1369.4865              1395.5472              1435.6608
 Red. masses --      5.4083                 1.9501                 2.5666
 Frc consts  --      5.9763                 2.2377                 3.1168
 IR Inten    --     32.7818                 8.2198               232.3898

                     52                     53                     54
                      A                      A                      A
 Frequencies --   1471.6391              1491.3579              1505.5960
 Red. masses --      3.5051                 2.1926                 3.3559
 Frc consts  --      4.4725                 2.8733                 4.4820
 IR Inten    --     83.4047               171.9303                32.9672

                     55                     56                     57
                      A                      A                      A
 Frequencies --   1543.2519              1574.2943              1584.6759
 Red. masses --      4.9620                 5.8007                 3.0873
 Frc consts  --      6.9628                 8.4704                 4.5679
 IR Inten    --     66.1719                90.9032               563.8200

                     58                     59                     60
                      A                      A                      A
 Frequencies --   1599.7120              1631.8106              1645.7714
 Red. masses --      5.1102                 5.1474                 5.5833
 Frc consts  --      7.7050                 8.0757                 8.9100
 IR Inten    --     69.0324               289.3626               255.2576

                     61                     62                     63
                      A                      A                      A
 Frequencies --   3206.5047              3210.9663              3217.4789
 Red. masses --      1.0862                 1.0859                 1.0897
 Frc consts  --      6.5802                 6.5963                 6.6464
 IR Inten    --      9.5608                 5.1407                 3.3395

                     64                     65                     66
                      A                      A                      A
 Frequencies --   3222.1695              3229.6161              3230.4213
 Red. masses --      1.0888                 1.0955                 1.0950
 Frc consts  --      6.6602                 6.7325                 6.7325
 IR Inten    --      2.8486                11.6880                13.5700

                     67                     68                     69
                      A                      A                      A
 Frequencies --   3235.0736              3240.6881              3253.2127
 Red. masses --      1.0985                 1.0982                 1.0720
 Frc consts  --      6.7736                 6.7953                 6.6846
 IR Inten    --     38.7878                23.3244                12.3002

 - Thermochemistry -
 -------------------
 Temperature   298.150 Kelvin.  Pressure   1.00000 Atm.
 Atom     1 has atomic number  6 and mass  12.00000

 Molecular mass:   227.04049 amu.
 Principal axes and moments of inertia in atomic units:
                           1         2         3
     Eigenvalues --  1323.985076370.119777694.10484
           X           -0.69609   0.71796   0.00000
           Y            0.71796   0.69609  -0.00001
           Z            0.00001   0.00000   1.00000
 This molecule is an asymmetric top.
 Rotational symmetry number  1.
 Warning -- assumption of classical behavior for rotation
           may cause significant error
 Rotational temperatures (Kelvin)      0.06542     0.01360     0.01126
 Rotational constants (GHZ):           1.36311     0.28331     0.23456
 Zero-point vibrational energy     490327.6 (Joules/Mol)
                                  117.19111 (Kcal/Mol)
 Warning -- explicit consideration of  19 degrees of freedom as
           vibrations may cause significant error
 Vibrational temperatures:     59.52   103.91   154.04   158.59   262.57
          (Kelvin)            324.60   373.83   391.28   412.37   567.38
                              580.81   634.86   709.76   714.60   732.88
                              735.00   754.31   792.12   829.93   927.29
                              976.57  1026.34  1041.34  1057.49  1064.20
                             1110.52  1171.18  1172.81  1217.10  1237.53
                             1267.55  1329.19  1370.49  1372.27  1395.02
                             1437.25  1494.60  1501.70  1558.62  1637.88
                             1655.98  1691.46  1697.63  1736.59  1781.88
                             1835.72  1890.06  1950.23  1970.39  2007.88
                             2065.60  2117.36  2145.73  2166.22  2220.40
                             2265.06  2280.00  2301.63  2347.81  2367.90
                             4613.45  4619.86  4629.23  4635.98  4646.70
                             4647.86  4654.55  4662.63  4680.65

 Zero-point correction=                           0.186756 (Hartree/Particle)
 Thermal correction to Energy=                    0.199087
 Thermal correction to Enthalpy=                  0.200031
 Thermal correction to Gibbs Free Energy=         0.147428
 Sum of electronic and zero-point Energies=          -1028.504433
 Sum of electronic and thermal Energies=             -1028.492102
 Sum of electronic and thermal Enthalpies=           -1028.491158
 Sum of electronic and thermal Free Energies=        -1028.543761

                     E (Thermal)             CV                S
                      KCal/Mol        Cal/Mol-Kelvin    Cal/Mol-Kelvin
 Total                  124.929             49.570            110.713
 Electronic               0.000              0.000              0.000
 Translational            0.889              2.981             42.162
 Rotational               0.889              2.981             32.540
 Vibrational            123.152             43.608             36.011
 Vibration     1          0.594              1.981              5.193
 Vibration     2          0.598              1.967              4.092
 Vibration     3          0.606              1.944              3.321
 Vibration     4          0.606              1.941              3.265
 Vibration     5          0.630              1.864              2.303
 Vibration     6          0.650              1.802              1.914
 Vibration     7          0.668              1.746              1.663
 Vibration     8          0.675              1.725              1.584
 Vibration     9          0.684              1.699              1.494
 Vibration    10          0.761              1.482              0.984
 Vibration    11          0.769              1.462              0.949
 Vibration    12          0.801              1.380              0.823
 Vibration    13          0.849              1.265              0.675
 Vibration    14          0.852              1.257              0.666
 Vibration    15          0.865              1.229              0.635
 Vibration    16          0.866              1.226              0.632
 Vibration    17          0.879              1.196              0.600
 Vibration    18          0.906              1.138              0.543
 Vibration    19          0.933              1.081              0.491

 Optimization completed.
    -- Stationary point found.
 Normal termination of Gaussian 16 at Tue Jul 14 11:20:13 2020.
