 Gaussian 16, Revision C.01,
 Gaussian 16:  ES64L-G16RevC.01  3-Jul-2019

 ----------------------------------------------------------------------
 #p opt=addgic freq td wb97xd/cc-pvdz nosymm int=ultrafine scrf=(solven
 t=CarbonTetraChloride)
 ----------------------------------------------------------------------

 ------------------------------------------------
 NM 2D-scan of HBT TD-WB97XD pVDZ in CTC Relaxed.
 ------------------------------------------------
 Symbolic Z-matrix:
 Charge =  0 Multiplicity = 1

 SCF Done:  E(RwB97XD) =  -1028.80796627     A.U. after   15 cycles
 Total Energy, E(TD-HF/TD-DFT) =  -1028.69503386
 SCF Done:  E(RwB97XD) =  -1028.79956892     A.U. after   14 cycles
 Total Energy, E(TD-HF/TD-DFT) =  -1028.69430700
 SCF Done:  E(RwB97XD) =  -1028.80703197     A.U. after   11 cycles
 Total Energy, E(TD-HF/TD-DFT) =  -1028.69772154
 SCF Done:  E(RwB97XD) =  -1028.80743274     A.U. after   11 cycles
 Total Energy, E(TD-HF/TD-DFT) =  -1028.69775728
 SCF Done:  E(RwB97XD) =  -1028.80748585     A.U. after    9 cycles
 Total Energy, E(TD-HF/TD-DFT) =  -1028.69775859
 SCF Done:  E(RwB97XD) =  -1028.80749889     A.U. after    8 cycles
 Total Energy, E(TD-HF/TD-DFT) =  -1028.69775860
 SCF Done:  E(RwB97XD) =  -1028.80749675     A.U. after    8 cycles
 Total Energy, E(TD-HF/TD-DFT) =  -1028.69775872
 Optimization completed.
    -- Stationary point found.
 Normal termination of Gaussian 16 at Mon Jul 13 16:10:49 2020.

 ----------------------------------------------------------------------
 #P Geom=AllCheck Guess=TCheck SCRF=Check GenChk RwB97XD TD(FC,Read)/CC
 -pVDZ Freq
 ----------------------------------------------------------------------

 Structure from the checkpoint file:  "config_8_9.chk"
 ------------------------------------------------
 NM 2D-scan of HBT TD-WB97XD pVDZ in CTC Relaxed.
 ------------------------------------------------
 Charge =  0 Multiplicity = 1

                          Input orientation:
 ---------------------------------------------------------------------
 Center     Atomic      Atomic             Coordinates (Angstroms)
 Number     Number       Type             X           Y           Z
 ---------------------------------------------------------------------
      1          6           0        1.655523   -3.281806   -0.000053
      2          6           0        0.995954   -2.053858   -0.000029
      3          6           0        1.723929   -0.833514   -0.000002
      4          6           0        3.127959   -0.852273    0.000006
      5          6           0        3.773325   -2.078989   -0.000017
      6          6           0        3.050953   -3.283592   -0.000048
      7          1           0        1.096433   -4.218289   -0.000072
      8          1           0        3.682172    0.086682    0.000030
      9          1           0        4.864120   -2.108178   -0.000012
     10          1           0        3.585433   -4.234338   -0.000065
     11          7           0        0.933055    0.273626    0.000017
     12         16           0       -0.735255   -1.733985   -0.000017
     13          6           0       -1.366373    1.051985    0.000018
     14          6           0       -2.746466    0.828999    0.000026
     15          6           0       -0.883399    2.458598    0.000013
     16          6           0       -3.657234    1.903334    0.000042
     17          1           0       -3.132141   -0.193139    0.000025
     18          6           0       -1.844805    3.501481    0.000022
     19          6           0       -3.211954    3.231540    0.000042
     20          1           0       -4.726776    1.687971    0.000052
     21          1           0       -1.456109    4.520785    0.000013
     22          1           0       -3.932511    4.050064    0.000051
     23          6           0       -0.399432    0.004590    0.000004
     24          8           0        0.364544    2.734524   -0.000036
     25          1           0        1.067364    1.371064    0.000079
 ---------------------------------------------------------------------

 SCF Done:  E(RwB97XD) =  -1028.80749675     A.U. after    1 cycles

 Excitation energies and oscillator strengths:

 Excited state symmetry could not be determined.
 Excited State   1:      Singlet-?Sym    2.9861 eV  415.20 nm  f=0.4459  <S**2>=0.000
      59 -> 60         0.69578
 This state for optimization and/or second-order correction.
 Total Energy, E(TD-HF/TD-DFT) =  -1028.69775869
 Copying the excited state density for this state as the 1-particle RhoCI density.

 Excited state symmetry could not be determined.
 Excited State   2:      Singlet-?Sym    3.9572 eV  313.31 nm  f=0.0000  <S**2>=0.000
      57 -> 60         0.68462
      57 -> 62         0.11401
      57 -> 64         0.11751

 Excited state symmetry could not be determined.
 Excited State   3:      Singlet-?Sym    4.3255 eV  286.63 nm  f=0.3933  <S**2>=0.000
      58 -> 60         0.67897

 Alpha  occ. eigenvalues --  -89.10398 -19.22110 -14.51578 -10.41693 -10.37237
 Alpha  occ. eigenvalues --  -10.36306 -10.36178 -10.33265 -10.32651 -10.32349
 Alpha  occ. eigenvalues --  -10.32242 -10.31687 -10.31328 -10.31019 -10.29412
 Alpha  occ. eigenvalues --  -10.28664  -8.12349  -6.07222  -6.06861  -6.06372
 Alpha  occ. eigenvalues --   -1.12539  -1.09606  -0.98017  -0.95234  -0.93084
 Alpha  occ. eigenvalues --   -0.89096  -0.86339  -0.83806  -0.81549  -0.75930
 Alpha  occ. eigenvalues --   -0.72256  -0.71820  -0.68601  -0.67713  -0.64614
 Alpha  occ. eigenvalues --   -0.60940  -0.59570  -0.56919  -0.55510  -0.55260
 Alpha  occ. eigenvalues --   -0.54768  -0.53678  -0.53016  -0.50770  -0.49466
 Alpha  occ. eigenvalues --   -0.48907  -0.48160  -0.46762  -0.45325  -0.45034
 Alpha  occ. eigenvalues --   -0.44219  -0.43114  -0.41999  -0.40460  -0.36746
 Alpha  occ. eigenvalues --   -0.33398  -0.32820  -0.31341  -0.26399
 Alpha virt. eigenvalues --   -0.01997   0.03938   0.05996   0.06371   0.08880
 Alpha virt. eigenvalues --    0.10573   0.13260   0.14732   0.16175   0.17469
 Alpha virt. eigenvalues --    0.18792   0.20350   0.21007   0.21489   0.23019

 Mulliken charges:
               1
     1  C    0.015789
     2  C   -0.235738
     3  C    0.268697
     4  C   -0.011596
     5  C    0.011798
     6  C   -0.000745
     7  H    0.025271
     8  H    0.030034
     9  H    0.026032
    10  H    0.025815
    11  N   -0.190556
    12  S    0.196820
    13  C   -0.108444
    14  C   -0.025234
    15  C    0.122931
    16  C   -0.032500
    17  H    0.007259
    18  C   -0.015092
    19  C    0.031511
    20  H    0.003452
    21  H    0.004654
    22  H    0.015966
    23  C    0.059908
    24  O   -0.413205
    25  H    0.187171
 Sum of Mulliken charges =  -0.00000

 Dipole moment (field-independent basis, Debye):
    X=              1.3074    Y=             -5.0706    Z=              0.0001  Tot=              5.2365
 Quadrupole moment (field-independent basis, Debye-Ang):
   XX=            -82.6254   YY=            -94.4744   ZZ=           -104.2744
   XY=             -6.8376   XZ=              0.0001   YZ=              0.0006

  Exact polarizability:     349.844    -126.223     304.314      -0.002       0.003      63.279
 Approx polarizability:     273.512     -35.747     265.814      -0.001       0.002      82.145

                      1                      2                      3
                      A                      A                      A
 Frequencies --     35.4387                56.6329               115.4896
 Red. masses --      6.1086                 5.9891                 5.3018
 Frc consts  --      0.0045                 0.0113                 0.0417
 IR Inten    --      1.4567                 1.0185                 0.2585

                      4                      5                      6
                      A                      A                      A
 Frequencies --    116.0164               181.0122               219.3462
 Red. masses --      5.6906                 5.8052                 5.4340
 Frc consts  --      0.0451                 0.1121                 0.1540
 IR Inten    --     21.3843                 0.1689                 0.1774

                      7                      8                      9
                      A                      A                      A
 Frequencies --    261.1295               269.6335               306.6256
 Red. masses --      7.6436                 4.6689                 6.3069
 Frc consts  --      0.3071                 0.2000                 0.3494
 IR Inten    --     14.3223                 0.2429                33.0447

                     10                     11                     12
                      A                      A                      A
 Frequencies --    360.9814               398.5912               436.1257
 Red. masses --      5.0345                 9.8286                 3.3013
 Frc consts  --      0.3865                 0.9200                 0.3700
 IR Inten    --      0.8640                 3.1412                 4.2353

                     13                     14                     15
                      A                      A                      A
 Frequencies --    463.2255               504.5198               505.5063
 Red. masses --      4.6999                 3.1836                 8.8920
 Frc consts  --      0.5942                 0.4774                 1.3388
 IR Inten    --      1.5641                 0.5208                 8.4684

                     16                     17                     18
                      A                      A                      A
 Frequencies --    541.1599               556.9111               557.6592
 Red. masses --      8.2205                 5.6463                 3.8582
 Frc consts  --      1.4184                 1.0318                 0.7069
 IR Inten    --      8.0641                71.4826                 0.4909

                     19                     20                     21
                      A                      A                      A
 Frequencies --    573.9177               617.8979               694.2953
 Red. masses --      7.5421                 5.3200                 1.5775
 Frc consts  --      1.4637                 1.1967                 0.4480
 IR Inten    --     38.4410               144.8941                38.0264

                     22                     23                     24
                      A                      A                      A
 Frequencies --    695.7587               713.7979               742.5458
 Red. masses --      7.3918                 6.1128                 2.6844
 Frc consts  --      2.1082                 1.8350                 0.8721
 IR Inten    --      4.6892                 5.2643                12.8629

                     25                     26                     27
                      A                      A                      A
 Frequencies --    764.1372               768.8206               817.8788
 Red. masses --      1.7589                 1.6746                 6.2018
 Frc consts  --      0.6051                 0.5832                 2.4442
 IR Inten    --      1.2569                91.0826                 7.4833

                     28                     29                     30
                      A                      A                      A
 Frequencies --    833.5855               843.2993               868.1445
 Red. masses --      1.6975                 3.6408                 1.3837
 Frc consts  --      0.6950                 1.5255                 0.6144
 IR Inten    --      0.0062                68.1144                 0.8511

                     31                     32                     33
                      A                      A                      A
 Frequencies --    906.0809               948.4002               954.4583
 Red. masses --      1.4052                 5.5831                 1.3693
 Frc consts  --      0.6797                 2.9587                 0.7350
 IR Inten    --      6.2435                14.4869                 0.4896

                     34                     35                     36
                      A                      A                      A
 Frequencies --    957.8969              1004.2025              1047.6520
 Red. masses --      1.3482                 1.2954                 2.1458
 Frc consts  --      0.7289                 0.7697                 1.3876
 IR Inten    --      1.7977                 0.0091                 3.3805

                     37                     38                     39
                      A                      A                      A
 Frequencies --   1051.0436              1077.1518              1088.3023
 Red. masses --      2.1173                 4.2234                 1.0607
 Frc consts  --      1.3781                 2.8871                 0.7402
 IR Inten    --      8.4915                18.4850                69.9672

                     40                     41                     42
                      A                      A                      A
 Frequencies --   1120.7163              1151.2742              1164.5845
 Red. masses --      1.5052                 1.3791                 1.2255
 Frc consts  --      1.1139                 1.0770                 0.9793
 IR Inten    --     63.1595                51.4288                38.7174

                     43                     44                     45
                      A                      A                      A
 Frequencies --   1175.9181              1190.3758              1260.5037
 Red. masses --      1.2426                 1.5448                 1.8184
 Frc consts  --      1.0123                 1.2897                 1.7023
 IR Inten    --    194.8826               146.3082               103.2979

                     46                     47                     48
                      A                      A                      A
 Frequencies --   1266.7238              1309.9656              1343.5194
 Red. masses --      2.3720                 2.1157                 5.4698
 Frc consts  --      2.2425                 2.1391                 5.8172
 IR Inten    --     35.8442                38.1500                28.5684

                     49                     50                     51
                      A                      A                      A
 Frequencies --   1360.9090              1391.2385              1405.7848
 Red. masses --      6.4285                 2.7976                 2.1260
 Frc consts  --      7.0149                 3.1903                 2.4754
 IR Inten    --    173.7240                 7.6713                 5.4236

                     52                     53                     54
                      A                      A                      A
 Frequencies --   1438.4463              1485.1354              1496.9922
 Red. masses --      3.3509                 2.8561                 3.3177
 Frc consts  --      4.0850                 3.7115                 4.3806
 IR Inten    --    552.6772                 0.8829                47.8885

                     55                     56                     57
                      A                      A                      A
 Frequencies --   1536.2982              1543.4387              1576.8649
 Red. masses --      4.1075                 5.5656                 4.2976
 Frc consts  --      5.7119                 7.8117                 6.2960
 IR Inten    --     62.2286               160.2656                56.0594

                     58                     59                     60
                      A                      A                      A
 Frequencies --   1622.5749              1636.1858              1663.4857
 Red. masses --      5.7155                 5.9323                 6.7385
 Frc consts  --      8.8658                 9.3571                10.9863
 IR Inten    --    291.1214               200.5908               141.0317

                     61                     62                     63
                      A                      A                      A
 Frequencies --   2421.5874              3197.5981              3211.8100
 Red. masses --      1.1087                 1.0884                 1.0863
 Frc consts  --      3.8306                 6.5566                 6.6021
 IR Inten    --   1256.9356                22.9491                 4.8883

                     64                     65                     66
                      A                      A                      A
 Frequencies --   3214.0999              3222.0307              3224.6662
 Red. masses --      1.0868                 1.0905                 1.0927
 Frc consts  --      6.6146                 6.6700                 6.6944
 IR Inten    --      2.1133                 3.7018                15.8881

                     67                     68                     69
                      A                      A                      A
 Frequencies --   3233.1437              3236.5737              3239.4589
 Red. masses --      1.0955                 1.0988                 1.0994
 Frc consts  --      6.7470                 6.7820                 6.7976
 IR Inten    --      9.0222                24.4023                12.0807

 - Thermochemistry -
 -------------------
 Temperature   298.150 Kelvin.  Pressure   1.00000 Atm.
 Atom     1 has atomic number  6 and mass  12.00000

 Molecular mass:   227.04049 amu.
 Principal axes and moments of inertia in atomic units:
                           1         2         3
     Eigenvalues --  1313.486806370.225097683.71189
           X           -0.70133   0.71283   0.00000
           Y            0.71283   0.70133  -0.00001
           Z            0.00001   0.00000   1.00000
 This molecule is an asymmetric top.
 Rotational symmetry number  1.
 Warning -- assumption of classical behavior for rotation
           may cause significant error
 Rotational temperatures (Kelvin)      0.06594     0.01360     0.01127
 Rotational constants (GHZ):           1.37401     0.28331     0.23488
 Zero-point vibrational energy     485667.0 (Joules/Mol)
                                  116.07719 (Kcal/Mol)
 Warning -- explicit consideration of  20 degrees of freedom as
           vibrations may cause significant error
 Vibrational temperatures:     50.99    81.48   166.16   166.92   260.44
          (Kelvin)            315.59   375.71   387.94   441.17   519.37
                              573.48   627.49   666.48   725.89   727.31
                              778.61   801.27   802.35   825.74   889.02
                              998.94  1001.04  1027.00  1068.36  1099.42
                             1106.16  1176.75  1199.34  1213.32  1249.07
                             1303.65  1364.54  1373.25  1378.20  1444.82
                             1507.34  1512.22  1549.78  1565.82  1612.46
                             1656.43  1675.58  1691.88  1712.69  1813.58
                             1822.53  1884.75  1933.02  1958.04  2001.68
                             2022.61  2069.60  2136.78  2153.84  2210.39
                             2220.66  2268.76  2334.52  2354.11  2393.38
                             3484.12  4600.63  4621.08  4624.37  4635.78
                             4639.58  4651.77  4656.71  4660.86

 Zero-point correction=                           0.184981 (Hartree/Particle)
 Thermal correction to Energy=                    0.197316
 Thermal correction to Enthalpy=                  0.198260
 Thermal correction to Gibbs Free Energy=         0.145407
 Sum of electronic and zero-point Energies=          -1028.512778
 Sum of electronic and thermal Energies=             -1028.500443
 Sum of electronic and thermal Enthalpies=           -1028.499498
 Sum of electronic and thermal Free Energies=        -1028.552352

                     E (Thermal)             CV                S
                      KCal/Mol        Cal/Mol-Kelvin    Cal/Mol-Kelvin
 Total                  123.818             49.385            111.240
 Electronic               0.000              0.000              0.000
 Translational            0.889              2.981             42.162
 Rotational               0.889              2.981             32.530
 Vibrational            122.040             43.423             36.547
 Vibration     1          0.594              1.982              5.499
 Vibration     2          0.596              1.975              4.571
 Vibration     3          0.608              1.937              3.174
 Vibration     4          0.608              1.936              3.166
 Vibration     5          0.630              1.866              2.318
 Vibration     6          0.647              1.812              1.964
 Vibration     7          0.669              1.744              1.654
 Vibration     8          0.674              1.729              1.599
 Vibration     9          0.697              1.661              1.380
 Vibration    10          0.735              1.553              1.118
 Vibration    11          0.765              1.473              0.968
 Vibration    12          0.797              1.391              0.839
 Vibration    13          0.821              1.332              0.757
 Vibration    14          0.860              1.240              0.647
 Vibration    15          0.861              1.238              0.644
 Vibration    16          0.896              1.159              0.563
 Vibration    17          0.912              1.125              0.530
 Vibration    18          0.913              1.123              0.529
 Vibration    19          0.930              1.088              0.497
 Vibration    20          0.978              0.994              0.420

 Optimization completed.
    -- Stationary point found.
 Normal termination of Gaussian 16 at Mon Jul 13 16:29:52 2020.
