 Gaussian 16, Revision C.01,
 Gaussian 16:  ES64L-G16RevC.01  3-Jul-2019

 ----------------------------------------------------------------------
 #p opt=addgic freq td wb97xd/cc-pvdz nosymm int=ultrafine scrf=(solven
 t=CarbonTetraChloride)
 ----------------------------------------------------------------------

 ------------------------------------------------
 NM 2D-scan of HBT TD-WB97XD pVDZ in CTC Relaxed.
 ------------------------------------------------
 Symbolic Z-matrix:
 Charge =  0 Multiplicity = 1

 SCF Done:  E(RwB97XD) =  -1028.62732369     A.U. after   16 cycles
 Total Energy, E(TD-HF/TD-DFT) =  -1028.52278979
 SCF Done:  E(RwB97XD) =  -1028.75375717     A.U. after   14 cycles
 Total Energy, E(TD-HF/TD-DFT) =  -1028.65173821
 SCF Done:  E(RwB97XD) =  -1028.76266354     A.U. after   14 cycles
 Total Energy, E(TD-HF/TD-DFT) =  -1028.66536552
 SCF Done:  E(RwB97XD) =  -1028.78340166     A.U. after   14 cycles
 Total Energy, E(TD-HF/TD-DFT) =  -1028.68240759
 SCF Done:  E(RwB97XD) =  -1028.78167909     A.U. after   13 cycles
 Total Energy, E(TD-HF/TD-DFT) =  -1028.68241454
 SCF Done:  E(RwB97XD) =  -1028.78365812     A.U. after   12 cycles
 Total Energy, E(TD-HF/TD-DFT) =  -1028.68333690
 SCF Done:  E(RwB97XD) =  -1028.78393417     A.U. after   11 cycles
 Total Energy, E(TD-HF/TD-DFT) =  -1028.68335581
 SCF Done:  E(RwB97XD) =  -1028.78392600     A.U. after    9 cycles
 Total Energy, E(TD-HF/TD-DFT) =  -1028.68335785
 SCF Done:  E(RwB97XD) =  -1028.78392142     A.U. after    9 cycles
 Total Energy, E(TD-HF/TD-DFT) =  -1028.68335806
 SCF Done:  E(RwB97XD) =  -1028.78034573     A.U. after   15 cycles
 Total Energy, E(TD-HF/TD-DFT) =  -1028.68305618
 Total Energy, E(TD-HF/TD-DFT) =  -1028.68343837
 Total Energy, E(TD-HF/TD-DFT) =  -1028.68124483
 Total Energy, E(TD-HF/TD-DFT) =  -1028.64997876
 Total Energy, E(TD-HF/TD-DFT) =  -1028.65008726
 Total Energy, E(TD-HF/TD-DFT) =  -1028.67429224
 Total Energy, E(TD-HF/TD-DFT) =  -1028.68039567
 Total Energy, E(TD-HF/TD-DFT) =  -1028.68059532
 Total Energy, E(TD-HF/TD-DFT) =  -1028.68345138
 Total Energy, E(TD-HF/TD-DFT) =  -1028.68535025
 Total Energy, E(TD-HF/TD-DFT) =  -1028.68432900
 Total Energy, E(TD-HF/TD-DFT) =  -1028.68762474
 Total Energy, E(TD-HF/TD-DFT) =  -1028.69211170
 Total Energy, E(TD-HF/TD-DFT) =  -1028.69205646
 Total Energy, E(TD-HF/TD-DFT) =  -1028.69404464
 SCF Done:  E(RwB97XD) =  -1028.78080806     A.U. after   14 cycles
 Total Energy, E(TD-HF/TD-DFT) =  -1028.69604931
 SCF Done:  E(RwB97XD) =  -1028.77887331     A.U. after   14 cycles
 Total Energy, E(TD-HF/TD-DFT) =  -1028.69764173
 SCF Done:  E(RwB97XD) =  -1028.77654915     A.U. after   15 cycles
 Total Energy, E(TD-HF/TD-DFT) =  -1028.69815712
 SCF Done:  E(RwB97XD) =  -1028.77405596     A.U. after   14 cycles
 Total Energy, E(TD-HF/TD-DFT) =  -1028.69835009
 SCF Done:  E(RwB97XD) =  -1028.77444508     A.U. after   13 cycles
 Total Energy, E(TD-HF/TD-DFT) =  -1028.69847410
 SCF Done:  E(RwB97XD) =  -1028.77545188     A.U. after   13 cycles
 Total Energy, E(TD-HF/TD-DFT) =  -1028.69854164
 SCF Done:  E(RwB97XD) =  -1028.77576736     A.U. after   12 cycles
 Total Energy, E(TD-HF/TD-DFT) =  -1028.69855442
 SCF Done:  E(RwB97XD) =  -1028.77586691     A.U. after   10 cycles
 Total Energy, E(TD-HF/TD-DFT) =  -1028.69855930
 SCF Done:  E(RwB97XD) =  -1028.77594342     A.U. after   10 cycles
 Total Energy, E(TD-HF/TD-DFT) =  -1028.69856078
 Optimization completed.
    -- Stationary point found.
 Normal termination of Gaussian 16 at Tue Jul 14 00:32:51 2020.

 ----------------------------------------------------------------------
 #P Geom=AllCheck Guess=TCheck SCRF=Check GenChk RwB97XD TD(FC,Read)/CC
 -pVDZ Freq
 ----------------------------------------------------------------------

 Structure from the checkpoint file:  "config_12_4.chk"
 ------------------------------------------------
 NM 2D-scan of HBT TD-WB97XD pVDZ in CTC Relaxed.
 ------------------------------------------------
 Charge =  0 Multiplicity = 1

                          Input orientation:
 ---------------------------------------------------------------------
 Center     Atomic      Atomic             Coordinates (Angstroms)
 Number     Number       Type             X           Y           Z
 ---------------------------------------------------------------------
      1          6           0        1.772746   -3.130104    0.578090
      2          6           0        1.041345   -1.993057    0.238340
      3          6           0        1.670191   -0.881189   -0.348524
      4          6           0        3.045620   -0.892204   -0.595438
      5          6           0        3.772873   -2.023947   -0.245490
      6          6           0        3.144278   -3.135360    0.330483
      7          1           0        1.285174   -3.990484    1.037626
      8          1           0        3.527652   -0.024116   -1.046387
      9          1           0        4.848769   -2.045350   -0.424607
     10          1           0        3.733005   -4.015103    0.593467
     11          7           0        0.801214    0.159505   -0.623640
     12         16           0       -0.677741   -1.682456    0.483292
     13          6           0       -1.438891    1.019926   -0.098124
     14          6           0       -2.750368    0.973588   -0.536539
     15          6           0       -0.906130    2.269972    0.458660
     16          6           0       -3.613299    2.073461   -0.361904
     17          1           0       -3.125908    0.063559   -1.008581
     18          6           0       -1.807707    3.375186    0.572187
     19          6           0       -3.137785    3.266179    0.194093
     20          1           0       -4.657845    1.988762   -0.664490
     21          1           0       -1.419610    4.281618    1.040036
     22          1           0       -3.814860    4.111159    0.329426
     23          6           0       -0.496805   -0.087277   -0.241221
     24          8           0        0.314860    2.352721    0.781454
     25          1           0        1.099564    1.133865   -0.442138
 ---------------------------------------------------------------------

 SCF Done:  E(RwB97XD) =  -1028.77594342     A.U. after    1 cycles

 Excitation energies and oscillator strengths:

 Excited state symmetry could not be determined.
 Excited State   1:      Singlet-?Sym    2.1057 eV  588.81 nm  f=0.1310  <S**2>=0.000
      58 -> 60         0.13090
      59 -> 60         0.68285
 This state for optimization and/or second-order correction.
 Total Energy, E(TD-HF/TD-DFT) =  -1028.69856073
 Copying the excited state density for this state as the 1-particle RhoCI density.

 Excited state symmetry could not be determined.
 Excited State   2:      Singlet-?Sym    3.2333 eV  383.46 nm  f=0.0634  <S**2>=0.000
      58 -> 60         0.67479
      59 -> 60        -0.13325

 Excited state symmetry could not be determined.
 Excited State   3:      Singlet-?Sym    4.0744 eV  304.30 nm  f=0.2078  <S**2>=0.000
      57 -> 60         0.65734
      59 -> 63         0.17449

 Alpha  occ. eigenvalues --  -89.11760 -19.19245 -14.53506 -10.43198 -10.37811
 Alpha  occ. eigenvalues --  -10.36924 -10.34724 -10.33910 -10.33479 -10.33082
 Alpha  occ. eigenvalues --  -10.32972 -10.30716 -10.30259 -10.29801 -10.28094
 Alpha  occ. eigenvalues --  -10.27450  -8.13666  -6.08533  -6.08157  -6.07717
 Alpha  occ. eigenvalues --   -1.13006  -1.07776  -0.98951  -0.95239  -0.93277
 Alpha  occ. eigenvalues --   -0.88959  -0.86964  -0.83850  -0.80429  -0.75525
 Alpha  occ. eigenvalues --   -0.73656  -0.72250  -0.68733  -0.67023  -0.64987
 Alpha  occ. eigenvalues --   -0.60782  -0.59860  -0.57965  -0.56173  -0.55259
 Alpha  occ. eigenvalues --   -0.54700  -0.53103  -0.52652  -0.50198  -0.49653
 Alpha  occ. eigenvalues --   -0.47953  -0.47527  -0.47018  -0.45706  -0.45090
 Alpha  occ. eigenvalues --   -0.43598  -0.42497  -0.42094  -0.39226  -0.35863
 Alpha  occ. eigenvalues --   -0.34356  -0.32083  -0.30182  -0.24900
 Alpha virt. eigenvalues --   -0.02916   0.03210   0.04600   0.05124   0.07925
 Alpha virt. eigenvalues --    0.10282   0.14096   0.15113   0.16122   0.17199
 Alpha virt. eigenvalues --    0.18514   0.19606   0.20232   0.20917   0.22083

 Mulliken charges:
               1
     1  C    0.021026
     2  C   -0.223889
     3  C    0.233433
     4  C   -0.005785
     5  C    0.013253
     6  C    0.006084
     7  H    0.030103
     8  H    0.034454
     9  H    0.031270
    10  H    0.030820
    11  N   -0.125068
    12  S    0.261894
    13  C   -0.131047
    14  C    0.027033
    15  C    0.095330
    16  C   -0.051856
    17  H   -0.006335
    18  C   -0.046134
    19  C    0.027654
    20  H   -0.004392
    21  H   -0.002357
    22  H    0.008127
    23  C    0.032309
    24  O   -0.420455
    25  H    0.164528
 Sum of Mulliken charges =  -0.00000

 Dipole moment (field-independent basis, Debye):
    X=              2.9139    Y=             -6.6212    Z=             -1.5164  Tot=              7.3912
 Quadrupole moment (field-independent basis, Debye-Ang):
   XX=            -84.0185   YY=            -95.4178   ZZ=           -102.6262
   XY=             -5.9480   XZ=             -2.0428   YZ=             -6.4998

  Exact polarizability:     267.057     -53.073     203.072       7.021     -11.885      87.068
 Approx polarizability:     259.642     -36.866     238.280       0.596      -6.928     110.185

 ******    1 imaginary frequencies (negative Signs) ******

                      1                      2                      3
                      A                      A                      A
 Frequencies --    -53.8365                42.3321                78.1555
 Red. masses --      5.8299                 6.2625                 5.3346
 Frc consts  --      0.0100                 0.0066                 0.0192
 IR Inten    --      6.6318                 2.3168                 5.0667

                      4                      5                      6
                      A                      A                      A
 Frequencies --    162.2455               173.2606               207.1871
 Red. masses --      5.4464                 6.8918                 5.2870
 Frc consts  --      0.0845                 0.1219                 0.1337
 IR Inten    --     12.6077                 0.2380                 5.5973

                      7                      8                      9
                      A                      A                      A
 Frequencies --    264.3783               280.4018               315.9868
 Red. masses --      6.9029                 4.5069                 4.2182
 Frc consts  --      0.2843                 0.2088                 0.2482
 IR Inten    --      7.1143                 0.9635                30.7381

                     10                     11                     12
                      A                      A                      A
 Frequencies --    326.7347               377.8329               438.4432
 Red. masses --      6.5419                 5.8065                 3.1155
 Frc consts  --      0.4115                 0.4884                 0.3529
 IR Inten    --     12.8564                 7.7957                 8.1074

                     13                     14                     15
                      A                      A                      A
 Frequencies --    455.4738               505.4418               522.5520
 Red. masses --      4.0030                 7.1944                 3.4400
 Frc consts  --      0.4893                 1.0829                 0.5534
 IR Inten    --     28.1543                 4.5131                 4.2598

                     16                     17                     18
                      A                      A                      A
 Frequencies --    525.3896               539.0155               562.9446
 Red. masses --      2.4938                 6.2054                 5.8961
 Frc consts  --      0.4056                 1.0622                 1.1009
 IR Inten    --     61.7922                53.7292                36.2715

                     19                     20                     21
                      A                      A                      A
 Frequencies --    569.8064               587.9968               665.6251
 Red. masses --      4.6130                 5.0398                 4.6021
 Frc consts  --      0.8824                 1.0266                 1.2013
 IR Inten    --     10.1767                32.8928                 5.6638

                     22                     23                     24
                      A                      A                      A
 Frequencies --    699.5816               719.3516               738.5561
 Red. masses --      3.2054                 4.3556                 2.0434
 Frc consts  --      0.9243                 1.3280                 0.6567
 IR Inten    --     44.5237                17.6542                 7.4681

                     25                     26                     27
                      A                      A                      A
 Frequencies --    748.2952               772.2971               790.3846
 Red. masses --      2.4889                 1.5673                 2.2591
 Frc consts  --      0.8211                 0.5508                 0.8315
 IR Inten    --     14.2039                62.7597                38.5864

                     28                     29                     30
                      A                      A                      A
 Frequencies --    823.3949               874.1537               886.0267
 Red. masses --      5.2824                 1.4723                 1.6330
 Frc consts  --      2.1101                 0.6628                 0.7553
 IR Inten    --     10.4816                 0.2319                 6.9032

                     31                     32                     33
                      A                      A                      A
 Frequencies --    888.6979               959.8158               962.7139
 Red. masses --      4.0509                 1.5224                 1.3668
 Frc consts  --      1.8850                 0.8263                 0.7463
 IR Inten    --      3.8283                 7.3317                 0.8412

                     34                     35                     36
                      A                      A                      A
 Frequencies --    976.9797               993.7917              1007.9288
 Red. masses --      3.9876                 1.3486                 1.2974
 Frc consts  --      2.2425                 0.7847                 0.7766
 IR Inten    --     19.1593                 7.5570                 0.0131

                     37                     38                     39
                      A                      A                      A
 Frequencies --   1050.9106              1056.3408              1092.9252
 Red. masses --      2.0694                 2.0948                 4.0281
 Frc consts  --      1.3466                 1.3772                 2.8348
 IR Inten    --      0.4689                 6.4524                 3.6719

                     40                     41                     42
                      A                      A                      A
 Frequencies --   1125.0371              1155.8056              1163.8682
 Red. masses --      1.5383                 1.3596                 1.1696
 Frc consts  --      1.1471                 1.0701                 0.9335
 IR Inten    --     22.4937                 3.5470                53.0368

                     43                     44                     45
                      A                      A                      A
 Frequencies --   1180.0295              1225.3127              1252.0721
 Red. masses --      1.1532                 3.1321                 2.2089
 Frc consts  --      0.9461                 2.7706                 2.0403
 IR Inten    --      9.9920                32.8165                19.3824

                     46                     47                     48
                      A                      A                      A
 Frequencies --   1291.4404              1298.8728              1325.8413
 Red. masses --      1.7528                 4.0774                 1.9136
 Frc consts  --      1.7224                 4.0529                 1.9819
 IR Inten    --      1.3944                 4.4718                47.2672

                     49                     50                     51
                      A                      A                      A
 Frequencies --   1354.8516              1395.6886              1403.7509
 Red. masses --      4.1916                 2.3481                 2.0706
 Frc consts  --      4.5333                 2.6949                 2.4040
 IR Inten    --    190.6145                12.0675                87.8812

                     52                     53                     54
                      A                      A                      A
 Frequencies --   1448.7669              1465.8248              1510.5742
 Red. masses --      3.0298                 3.2193                 2.7466
 Frc consts  --      3.7468                 4.0755                 3.6926
 IR Inten    --    504.7207                45.6589                64.8469

                     55                     56                     57
                      A                      A                      A
 Frequencies --   1524.8651              1540.0160              1575.6521
 Red. masses --      3.2905                 5.5136                 4.1992
 Frc consts  --      4.5079                 7.7043                 6.1424
 IR Inten    --     92.2754                53.7629                32.3228

                     58                     59                     60
                      A                      A                      A
 Frequencies --   1630.6315              1657.0534              1674.5188
 Red. masses --      6.0406                 6.6185                 6.8540
 Frc consts  --      9.4632                10.7074                11.3233
 IR Inten    --    205.9833                 3.9678                17.3047

                     61                     62                     63
                      A                      A                      A
 Frequencies --   3207.0812              3211.9895              3213.6698
 Red. masses --      1.0867                 1.0858                 1.0896
 Frc consts  --      6.5856                 6.6001                 6.6302
 IR Inten    --      3.4786                 0.6443                 6.2445

                     64                     65                     66
                      A                      A                      A
 Frequencies --   3220.1564              3225.7093              3228.9952
 Red. masses --      1.0903                 1.0938                 1.0959
 Frc consts  --      6.6611                 6.7054                 6.7323
 IR Inten    --      2.6477                13.4030                10.4501

                     67                     68                     69
                      A                      A                      A
 Frequencies --   3235.6219              3238.1756              3345.8634
 Red. masses --      1.0995                 1.0999                 1.0810
 Frc consts  --      6.7819                 6.7950                 7.1303
 IR Inten    --     16.6768                15.8432              1515.4920

 - Thermochemistry -
 -------------------
 Temperature   298.150 Kelvin.  Pressure   1.00000 Atm.
 Atom     1 has atomic number  6 and mass  12.00000

 Molecular mass:   227.04049 amu.
 Principal axes and moments of inertia in atomic units:
                           1         2         3
     Eigenvalues --  1291.169056451.230977372.46925
           X            0.71786   0.69584   0.02218
           Y           -0.69615   0.71778   0.01284
           Z           -0.00698  -0.02465   0.99967
 This molecule is an asymmetric top.
 Rotational symmetry number  1.
 Warning -- assumption of classical behavior for rotation
           may cause significant error
 Rotational temperatures (Kelvin)      0.06708     0.01343     0.01175
 Rotational constants (GHZ):           1.39776     0.27975     0.24479
    1 imaginary frequencies ignored.
 Zero-point vibrational energy     490296.0 (Joules/Mol)
                                  117.18355 (Kcal/Mol)
 Warning -- explicit consideration of  19 degrees of freedom as
           vibrations may cause significant error
 Vibrational temperatures:     60.91   112.45   233.44   249.28   298.10
          (Kelvin)            380.38   403.44   454.63   470.10   543.62
                              630.82   655.33   727.22   751.84   755.92
                              775.52   809.95   819.82   846.00   957.69
                             1006.54  1034.99  1062.62  1076.63  1111.16
                             1137.19  1184.68  1257.71  1274.79  1278.64
                             1380.96  1385.13  1405.66  1429.84  1450.18
                             1512.03  1519.84  1572.48  1618.68  1662.95
                             1674.55  1697.80  1762.95  1801.45  1858.09
                             1868.79  1907.59  1949.33  2008.08  2019.68
                             2084.45  2108.99  2173.38  2193.94  2215.74
                             2267.01  2346.12  2384.13  2409.26  4614.27
                             4621.34  4623.75  4633.09  4641.08  4645.80
                             4655.34  4659.01  4813.95

 Zero-point correction=                           0.186744 (Hartree/Particle)
 Thermal correction to Energy=                    0.198339
 Thermal correction to Enthalpy=                  0.199283
 Thermal correction to Gibbs Free Energy=         0.148531
 Sum of electronic and zero-point Energies=          -1028.511817
 Sum of electronic and thermal Energies=             -1028.500222
 Sum of electronic and thermal Enthalpies=           -1028.499278
 Sum of electronic and thermal Free Energies=        -1028.550030

                     E (Thermal)             CV                S
                      KCal/Mol        Cal/Mol-Kelvin    Cal/Mol-Kelvin
 Total                  124.460             47.665            106.817
 Electronic               0.000              0.000              0.000
 Translational            0.889              2.981             42.162
 Rotational               0.889              2.981             32.485
 Vibrational            122.682             41.703             32.170
 Vibration     1          0.595              1.980              5.147
 Vibration     2          0.599              1.964              3.937
 Vibration     3          0.622              1.889              2.523
 Vibration     4          0.627              1.875              2.400
 Vibration     5          0.641              1.830              2.068
 Vibration     6          0.671              1.738              1.633
 Vibration     7          0.680              1.710              1.531
 Vibration     8          0.703              1.643              1.331
 Vibration     9          0.710              1.622              1.276
 Vibration    10          0.748              1.517              1.048
 Vibration    11          0.799              1.386              0.832
 Vibration    12          0.814              1.349              0.779
 Vibration    13          0.861              1.238              0.645
 Vibration    14          0.878              1.200              0.604
 Vibration    15          0.880              1.194              0.598
 Vibration    16          0.894              1.164              0.567
 Vibration    17          0.919              1.111              0.518
 Vibration    18          0.926              1.097              0.505
 Vibration    19          0.945              1.057              0.471

                           ! Non-Optimized Parameters !
 Normal termination of Gaussian 16 at Tue Jul 14 00:50:35 2020.
