 Gaussian 16, Revision C.01,
 Gaussian 16:  ES64L-G16RevC.01  3-Jul-2019

 ----------------------------------------------------------------------
 #p opt=addgic freq td wb97xd/cc-pvdz nosymm int=ultrafine scrf=(solven
 t=CarbonTetraChloride)
 ----------------------------------------------------------------------

 ------------------------------------------------
 NM 2D-scan of HBT TD-WB97XD pVDZ in CTC Relaxed.
 ------------------------------------------------
 Symbolic Z-matrix:
 Charge =  0 Multiplicity = 1

 SCF Done:  E(RwB97XD) =  -1028.26943664     A.U. after   16 cycles
 Total Energy, E(TD-HF/TD-DFT) =  -1028.16630961
 SCF Done:  E(RwB97XD) =  -1028.60940805     A.U. after   14 cycles
 Total Energy, E(TD-HF/TD-DFT) =  -1028.50914712
 SCF Done:  E(RwB97XD) =  -1028.75830047     A.U. after   14 cycles
 Total Energy, E(TD-HF/TD-DFT) =  -1028.66352089
 SCF Done:  E(RwB97XD) =  -1028.77434106     A.U. after   14 cycles
 Total Energy, E(TD-HF/TD-DFT) =  -1028.67992517
 SCF Done:  E(RwB97XD) =  -1028.77926164     A.U. after   13 cycles
 Total Energy, E(TD-HF/TD-DFT) =  -1028.68243554
 SCF Done:  E(RwB97XD) =  -1028.77967362     A.U. after   12 cycles
 Total Energy, E(TD-HF/TD-DFT) =  -1028.68262604
 SCF Done:  E(RwB97XD) =  -1028.77985408     A.U. after   11 cycles
 Total Energy, E(TD-HF/TD-DFT) =  -1028.68264839
 Optimization completed.
    -- Stationary point found.
 Normal termination of Gaussian 16 at Tue Jul 14 16:53:50 2020.

 ----------------------------------------------------------------------
 #P Geom=AllCheck Guess=TCheck SCRF=Check GenChk RwB97XD TD(FC,Read)/CC
 -pVDZ Freq
 ----------------------------------------------------------------------

 Structure from the checkpoint file:  "config_12_20.chk"
 ------------------------------------------------
 NM 2D-scan of HBT TD-WB97XD pVDZ in CTC Relaxed.
 ------------------------------------------------
 Charge =  0 Multiplicity = 1

                          Input orientation:
 ---------------------------------------------------------------------
 Center     Atomic      Atomic             Coordinates (Angstroms)
 Number     Number       Type             X           Y           Z
 ---------------------------------------------------------------------
      1          6           0        1.530040   -3.295498   -0.000012
      2          6           0        1.014582   -2.008522   -0.000012
      3          6           0        1.841062   -0.891294   -0.000024
      4          6           0        3.235472   -1.035634   -0.000035
      5          6           0        3.751043   -2.332350   -0.000035
      6          6           0        2.914122   -3.452895   -0.000023
      7          1           0        0.864714   -4.158648   -0.000002
      8          1           0        3.895313   -0.166362   -0.000044
      9          1           0        4.833704   -2.467702   -0.000043
     10          1           0        3.345454   -4.454093   -0.000022
     11          7           0        1.088240    0.261544   -0.000022
     12         16           0       -0.672430   -1.524343    0.000004
     13          6           0       -1.336444    1.152922    0.000022
     14          6           0       -2.660344    0.766983    0.000022
     15          6           0       -0.970011    2.572394    0.000051
     16          6           0       -3.720875    1.729921    0.000026
     17          1           0       -2.932407   -0.291300    0.000017
     18          6           0       -2.078185    3.500655    0.000037
     19          6           0       -3.427019    3.081079    0.000025
     20          1           0       -4.752543    1.374509    0.000023
     21          1           0       -1.834067    4.565130    0.000046
     22          1           0       -4.232379    3.817927    0.000020
     23          6           0       -0.280960    0.157600    0.000008
     24          8           0        0.244648    2.847722    0.000077
     25          1           0        1.695162    1.042685   -0.000010
 ---------------------------------------------------------------------

 SCF Done:  E(RwB97XD) =  -1028.77985408     A.U. after    1 cycles

 Excitation energies and oscillator strengths:

 Excited state symmetry could not be determined.
 Excited State   1:      Singlet-?Sym    2.6451 eV  468.73 nm  f=0.4343  <S**2>=0.000
      59 -> 60         0.69818
 This state for optimization and/or second-order correction.
 Total Energy, E(TD-HF/TD-DFT) =  -1028.68264835
 Copying the excited state density for this state as the 1-particle RhoCI density.

 Excited state symmetry could not be determined.
 Excited State   2:      Singlet-?Sym    3.2062 eV  386.70 nm  f=0.0000  <S**2>=0.000
      58 -> 60         0.68481
      58 -> 62         0.11087

 Excited state symmetry could not be determined.
 Excited State   3:      Singlet-?Sym    4.2284 eV  293.22 nm  f=0.3888  <S**2>=0.000
      57 -> 60         0.68582

 Alpha  occ. eigenvalues --  -89.10291 -19.19712 -14.53661 -10.42897 -10.37547
 Alpha  occ. eigenvalues --  -10.36031 -10.35008 -10.33634 -10.33528 -10.33003
 Alpha  occ. eigenvalues --  -10.32639 -10.31272 -10.30662 -10.30541 -10.28974
 Alpha  occ. eigenvalues --  -10.28124  -8.12400  -6.07273  -6.06875  -6.06423
 Alpha  occ. eigenvalues --   -1.13333  -1.08836  -0.98780  -0.96172  -0.93276
 Alpha  occ. eigenvalues --   -0.89009  -0.87007  -0.83968  -0.80591  -0.75953
 Alpha  occ. eigenvalues --   -0.74927  -0.72181  -0.69491  -0.67471  -0.64742
 Alpha  occ. eigenvalues --   -0.61110  -0.59747  -0.56547  -0.56331  -0.56170
 Alpha  occ. eigenvalues --   -0.55128  -0.53773  -0.53039  -0.50184  -0.48716
 Alpha  occ. eigenvalues --   -0.48691  -0.48060  -0.47129  -0.45652  -0.44927
 Alpha  occ. eigenvalues --   -0.43805  -0.42673  -0.42332  -0.39695  -0.36975
 Alpha  occ. eigenvalues --   -0.33904  -0.31549  -0.30268  -0.25139
 Alpha virt. eigenvalues --   -0.02354   0.03475   0.05464   0.06933   0.09856
 Alpha virt. eigenvalues --    0.11000   0.13843   0.14414   0.15709   0.16397
 Alpha virt. eigenvalues --    0.17640   0.19650   0.20718   0.21172   0.22517

 Mulliken charges:
               1
     1  C    0.019165
     2  C   -0.230603
     3  C    0.185618
     4  C   -0.012564
     5  C    0.010625
     6  C    0.006243
     7  H    0.024754
     8  H    0.032256
     9  H    0.029814
    10  H    0.028236
    11  N   -0.099079
    12  S    0.198693
    13  C   -0.051770
    14  C   -0.047062
    15  C    0.094700
    16  C   -0.037293
    17  H    0.014417
    18  C   -0.067004
    19  C    0.035374
    20  H    0.000006
    21  H   -0.001554
    22  H    0.013652
    23  C    0.099872
    24  O   -0.370308
    25  H    0.123813
 Sum of Mulliken charges =  -0.00000

 Dipole moment (field-independent basis, Debye):
    X=              2.9686    Y=             -6.5411    Z=             -0.0002  Tot=              7.1832
 Quadrupole moment (field-independent basis, Debye-Ang):
   XX=            -80.3853   YY=            -98.3202   ZZ=           -104.0980
   XY=             -5.5838   XZ=             -0.0002   YZ=             -0.0004

  Exact polarizability:     343.801    -114.551     285.760      -0.001       0.001      63.247
 Approx polarizability:     276.756     -40.392     264.043      -0.001       0.001      81.953

 ******    2 imaginary frequencies (negative Signs) ******

                      1                      2                      3
                      A                      A                      A
 Frequencies --   -182.7227               -57.4132                65.5588
 Red. masses --      1.5129                 6.1289                 6.2883
 Frc consts  --      0.0298                 0.0119                 0.0159
 IR Inten    --     47.8007                 0.1381                 1.6316

                      4                      5                      6
                      A                      A                      A
 Frequencies --     98.4668               136.7051               178.0059
 Red. masses --      5.7284                 3.4431                 5.6269
 Frc consts  --      0.0327                 0.0379                 0.1050
 IR Inten    --      5.2816                21.8614                 0.6073

                      7                      8                      9
                      A                      A                      A
 Frequencies --    240.7461               252.6302               270.9497
 Red. masses --      4.0752                 9.0106                 7.4267
 Frc consts  --      0.1392                 0.3388                 0.3212
 IR Inten    --      3.8606                 1.4967                 1.6454

                     10                     11                     12
                      A                      A                      A
 Frequencies --    307.1841               334.3971               380.7363
 Red. masses --      3.2871                 4.5485                 6.9644
 Frc consts  --      0.1827                 0.2997                 0.5948
 IR Inten    --      9.5247                 0.0245                 5.8759

                     13                     14                     15
                      A                      A                      A
 Frequencies --    429.5506               441.3300               503.9104
 Red. masses --      3.9549                 3.1595                 8.1902
 Frc consts  --      0.4299                 0.3626                 1.2253
 IR Inten    --      5.3992                 0.6054                11.5404

                     16                     17                     18
                      A                      A                      A
 Frequencies --    517.3273               529.3425               544.7948
 Red. masses --      3.2466                 6.2131                 8.5658
 Frc consts  --      0.5119                 1.0257                 1.4979
 IR Inten    --      0.3490                31.0236                20.8764

                     19                     20                     21
                      A                      A                      A
 Frequencies --    560.7007               565.1093               641.0920
 Red. masses --      3.8058                 7.4313                 6.6548
 Frc consts  --      0.7049                 1.3982                 1.6115
 IR Inten    --      0.1619                 3.6260                 6.1747

                     22                     23                     24
                      A                      A                      A
 Frequencies --    690.3738               715.7514               742.5551
 Red. masses --      1.4666                 5.6430                 7.2839
 Frc consts  --      0.4118                 1.7033                 2.3663
 IR Inten    --     35.7570                 1.1687                 5.6838

                     25                     26                     27
                      A                      A                      A
 Frequencies --    744.9694               754.2395               766.4277
 Red. masses --      2.3201                 1.6351                 1.7565
 Frc consts  --      0.7586                 0.5481                 0.6079
 IR Inten    --     25.0192                13.5078                74.8774

                     28                     29                     30
                      A                      A                      A
 Frequencies --    823.4344               833.8359               865.0146
 Red. masses --      5.9203                 2.2304                 1.3827
 Frc consts  --      2.3651                 0.9137                 0.6096
 IR Inten    --     13.0760                 1.9087                 0.9540

                     31                     32                     33
                      A                      A                      A
 Frequencies --    889.9420               895.2786               952.4568
 Red. masses --      5.9073                 1.4701                 1.3545
 Frc consts  --      2.7565                 0.6943                 0.7240
 IR Inten    --      4.9314                 9.3333                 0.1995

                     34                     35                     36
                      A                      A                      A
 Frequencies --    957.3094               976.1152              1003.2983
 Red. masses --      1.3552                 5.5611                 1.2986
 Frc consts  --      0.7317                 3.1219                 0.7701
 IR Inten    --      1.6493                 6.3056                 0.0004

                     37                     38                     39
                      A                      A                      A
 Frequencies --   1026.7707              1055.6456              1089.3689
 Red. masses --      2.0983                 2.1027                 2.1265
 Frc consts  --      1.3033                 1.3806                 1.4869
 IR Inten    --      1.5880                 9.5860                18.7711

                     40                     41                     42
                      A                      A                      A
 Frequencies --   1100.5723              1154.8764              1159.1533
 Red. masses --      2.3603                 1.2529                 1.3308
 Frc consts  --      1.6844                 0.9845                 1.0536
 IR Inten    --      4.0151                12.7987                24.0720

                     43                     44                     45
                      A                      A                      A
 Frequencies --   1177.8523              1183.4365              1204.9511
 Red. masses --      1.2598                 1.2819                 3.0641
 Frc consts  --      1.0297                 1.0578                 2.6212
 IR Inten    --     34.0150                 1.6381                24.4594

                     46                     47                     48
                      A                      A                      A
 Frequencies --   1232.2642              1303.6202              1327.4513
 Red. masses --      2.3751                 1.5518                 3.3752
 Frc consts  --      2.1249                 1.5538                 3.5042
 IR Inten    --     25.6739                 1.3969                 6.7699

                     49                     50                     51
                      A                      A                      A
 Frequencies --   1349.7259              1396.3200              1404.5768
 Red. masses --      2.5543                 3.0716                 5.0858
 Frc consts  --      2.7417                 3.5285                 5.9116
 IR Inten    --     37.4409               163.4145                 8.5205

                     52                     53                     54
                      A                      A                      A
 Frequencies --   1441.9941              1459.6114              1509.1330
 Red. masses --      2.7548                 3.5563                 3.7040
 Frc consts  --      3.3749                 4.4639                 4.9702
 IR Inten    --     51.4513                20.6603                85.6890

                     55                     56                     57
                      A                      A                      A
 Frequencies --   1526.6173              1529.8569              1616.2877
 Red. masses --      2.8756                 4.0468                 5.4956
 Frc consts  --      3.9486                 5.5803                 8.4586
 IR Inten    --     30.1333               161.5756                61.3948

                     58                     59                     60
                      A                      A                      A
 Frequencies --   1643.4321              1665.3200              1688.0967
 Red. masses --      9.9016                 6.8414                 7.3253
 Frc consts  --     15.7565                11.1788                12.2989
 IR Inten    --    183.3496                82.1929                19.0462

                     61                     62                     63
                      A                      A                      A
 Frequencies --   3192.8743              3204.6894              3208.8920
 Red. masses --      1.0890                 1.0866                 1.0875
 Frc consts  --      6.5409                 6.5747                 6.5974
 IR Inten    --     26.4556                 4.3333                 3.7246

                     64                     65                     66
                      A                      A                      A
 Frequencies --   3216.5495              3219.7084              3227.9306
 Red. masses --      1.0913                 1.0906                 1.0948
 Frc consts  --      6.6524                 6.6612                 6.7207
 IR Inten    --     15.5031                 1.3106                 8.1124

                     67                     68                     69
                      A                      A                      A
 Frequencies --   3230.6186              3239.7877              3942.6337
 Red. masses --      1.0991                 1.0994                 1.0782
 Frc consts  --      6.7583                 6.7988                 9.8749
 IR Inten    --     27.2782                13.2203               152.0699

 - Thermochemistry -
 -------------------
 Temperature   298.150 Kelvin.  Pressure   1.00000 Atm.
 Atom     1 has atomic number  6 and mass  12.00000

 Molecular mass:   227.04049 amu.
 Principal axes and moments of inertia in atomic units:
                           1         2         3
     Eigenvalues --  1241.299866579.233987820.53383
           X           -0.70643   0.70778   0.00000
           Y            0.70778   0.70643  -0.00001
           Z            0.00001   0.00000   1.00000
 This molecule is an asymmetric top.
 Rotational symmetry number  1.
 Warning -- assumption of classical behavior for rotation
           may cause significant error
 Rotational temperatures (Kelvin)      0.06978     0.01316     0.01108
 Rotational constants (GHZ):           1.45391     0.27431     0.23077
    2 imaginary frequencies ignored.
 Zero-point vibrational energy     487718.5 (Joules/Mol)
                                  116.56751 (Kcal/Mol)
 Warning -- explicit consideration of  18 degrees of freedom as
           vibrations may cause significant error
 Vibrational temperatures:     94.32   141.67   196.69   256.11   346.38
          (Kelvin)            363.48   389.84   441.97   481.12   547.79
                              618.03   634.98   725.01   744.32   761.61
                              783.84   806.72   813.07   922.39   993.29
                             1029.81  1068.37  1071.84  1085.18  1102.72
                             1184.74  1199.70  1244.56  1280.43  1288.11
                             1370.37  1377.35  1404.41  1443.52  1477.29
                             1518.84  1567.36  1583.48  1661.61  1667.76
                             1694.67  1702.70  1733.66  1772.95  1875.62
                             1909.91  1941.95  2008.99  2020.87  2074.71
                             2100.06  2171.31  2196.46  2201.12  2325.48
                             2364.53  2396.02  2428.79  4593.83  4610.83
                             4616.88  4627.90  4632.44  4644.27  4648.14
                             4661.33  5672.57

 Zero-point correction=                           0.185762 (Hartree/Particle)
 Thermal correction to Energy=                    0.197218
 Thermal correction to Enthalpy=                  0.198162
 Thermal correction to Gibbs Free Energy=         0.148033
 Sum of electronic and zero-point Energies=          -1028.496886
 Sum of electronic and thermal Energies=             -1028.485431
 Sum of electronic and thermal Enthalpies=           -1028.484487
 Sum of electronic and thermal Free Energies=        -1028.534616

                     E (Thermal)             CV                S
                      KCal/Mol        Cal/Mol-Kelvin    Cal/Mol-Kelvin
 Total                  123.756             47.158            105.506
 Electronic               0.000              0.000              0.000
 Translational            0.889              2.981             42.162
 Rotational               0.889              2.981             32.524
 Vibrational            121.978             41.196             30.820
 Vibration     1          0.597              1.971              4.282
 Vibration     2          0.604              1.950              3.484
 Vibration     3          0.614              1.917              2.849
 Vibration     4          0.628              1.869              2.349
 Vibration     5          0.658              1.778              1.797
 Vibration     6          0.664              1.758              1.712
 Vibration     7          0.675              1.727              1.590
 Vibration     8          0.697              1.660              1.377
 Vibration     9          0.716              1.607              1.239
 Vibration    10          0.750              1.511              1.036
 Vibration    11          0.791              1.406              0.860
 Vibration    12          0.801              1.380              0.822
 Vibration    13          0.859              1.241              0.648
 Vibration    14          0.872              1.212              0.616
 Vibration    15          0.884              1.185              0.589
 Vibration    16          0.900              1.151              0.555
 Vibration    17          0.916              1.116              0.522
 Vibration    18          0.921              1.107              0.514

 Optimization completed.
    -- Stationary point found.
 Normal termination of Gaussian 16 at Tue Jul 14 17:10:51 2020.
