 Gaussian 16, Revision C.01,
 Gaussian 16:  ES64L-G16RevC.01  3-Jul-2019

 ----------------------------------------------------------------------
 #p opt=addgic freq td wb97xd/cc-pvdz nosymm int=ultrafine scrf=(solven
 t=CarbonTetraChloride)
 ----------------------------------------------------------------------

 ------------------------------------------------
 NM 2D-scan of HBT TD-WB97XD pVDZ in CTC Relaxed.
 ------------------------------------------------
 Symbolic Z-matrix:
 Charge =  0 Multiplicity = 1

 SCF Done:  E(RwB97XD) =  -1028.61448921     A.U. after   16 cycles
 Total Energy, E(TD-HF/TD-DFT) =  -1028.50990157
 SCF Done:  E(RwB97XD) =  -1028.74993707     A.U. after   14 cycles
 Total Energy, E(TD-HF/TD-DFT) =  -1028.64790784
 SCF Done:  E(RwB97XD) =  -1028.76357266     A.U. after   14 cycles
 Total Energy, E(TD-HF/TD-DFT) =  -1028.66642807
 SCF Done:  E(RwB97XD) =  -1028.78377537     A.U. after   14 cycles
 Total Energy, E(TD-HF/TD-DFT) =  -1028.68317662
 SCF Done:  E(RwB97XD) =  -1028.78234249     A.U. after   13 cycles
 Total Energy, E(TD-HF/TD-DFT) =  -1028.68321542
 SCF Done:  E(RwB97XD) =  -1028.78417667     A.U. after   12 cycles
 Total Energy, E(TD-HF/TD-DFT) =  -1028.68402718
 SCF Done:  E(RwB97XD) =  -1028.78443996     A.U. after   11 cycles
 Total Energy, E(TD-HF/TD-DFT) =  -1028.68404530
 SCF Done:  E(RwB97XD) =  -1028.78444718     A.U. after    9 cycles
 Total Energy, E(TD-HF/TD-DFT) =  -1028.68404733
 SCF Done:  E(RwB97XD) =  -1028.78444248     A.U. after    9 cycles
 Total Energy, E(TD-HF/TD-DFT) =  -1028.68404749
 SCF Done:  E(RwB97XD) =  -1028.74935622     A.U. after   15 cycles
 Total Energy, E(TD-HF/TD-DFT) =  -1028.65599615
 Total Energy, E(TD-HF/TD-DFT) =  -1028.68404840
 Total Energy, E(TD-HF/TD-DFT) =  -1028.64968214
 Total Energy, E(TD-HF/TD-DFT) =  -1028.68522520
 Total Energy, E(TD-HF/TD-DFT) =  -1028.67858009
 Total Energy, E(TD-HF/TD-DFT) =  -1028.68949080
 Total Energy, E(TD-HF/TD-DFT) =  -1028.69188251
 Total Energy, E(TD-HF/TD-DFT) =  -1028.69480722
 Total Energy, E(TD-HF/TD-DFT) =  -1028.69621893
 Total Energy, E(TD-HF/TD-DFT) =  -1028.69737367
 SCF Done:  E(RwB97XD) =  -1028.77678941     A.U. after   14 cycles
 Total Energy, E(TD-HF/TD-DFT) =  -1028.69808980
 SCF Done:  E(RwB97XD) =  -1028.77465173     A.U. after   14 cycles
 Total Energy, E(TD-HF/TD-DFT) =  -1028.69844954
 SCF Done:  E(RwB97XD) =  -1028.77549355     A.U. after   14 cycles
 Total Energy, E(TD-HF/TD-DFT) =  -1028.69864134
 SCF Done:  E(RwB97XD) =  -1028.77549369     A.U. after   13 cycles
 Total Energy, E(TD-HF/TD-DFT) =  -1028.69868643
 SCF Done:  E(RwB97XD) =  -1028.77579170     A.U. after   13 cycles
 Total Energy, E(TD-HF/TD-DFT) =  -1028.69869504
 SCF Done:  E(RwB97XD) =  -1028.77576231     A.U. after   11 cycles
 Total Energy, E(TD-HF/TD-DFT) =  -1028.69869890
 SCF Done:  E(RwB97XD) =  -1028.77584419     A.U. after    9 cycles
 Total Energy, E(TD-HF/TD-DFT) =  -1028.69869947
 SCF Done:  E(RwB97XD) =  -1028.77574538     A.U. after   11 cycles
 Total Energy, E(TD-HF/TD-DFT) =  -1028.69869945
 SCF Done:  E(RwB97XD) =  -1028.77580820     A.U. after   10 cycles
 Total Energy, E(TD-HF/TD-DFT) =  -1028.69869983
 Optimization completed.
    -- Stationary point found.
 Normal termination of Gaussian 16 at Tue Jul 14 00:04:59 2020.

 ----------------------------------------------------------------------
 #P Geom=AllCheck Guess=TCheck SCRF=Check GenChk RwB97XD TD(FC,Read)/CC
 -pVDZ Freq
 ----------------------------------------------------------------------

 Structure from the checkpoint file:  "config_12_5.chk"
 ------------------------------------------------
 NM 2D-scan of HBT TD-WB97XD pVDZ in CTC Relaxed.
 ------------------------------------------------
 Charge =  0 Multiplicity = 1

                          Input orientation:
 ---------------------------------------------------------------------
 Center     Atomic      Atomic             Coordinates (Angstroms)
 Number     Number       Type             X           Y           Z
 ---------------------------------------------------------------------
      1          6           0        1.763311   -3.135706    0.579811
      2          6           0        1.042715   -1.989636    0.248556
      3          6           0        1.678767   -0.881441   -0.338202
      4          6           0        3.052454   -0.906857   -0.593395
      5          6           0        3.769322   -2.048450   -0.252746
      6          6           0        3.132958   -3.155312    0.323044
      7          1           0        1.268633   -3.992492    1.038460
      8          1           0        3.541751   -0.043165   -1.045002
      9          1           0        4.843593   -2.080865   -0.439864
     10          1           0        3.713738   -4.042659    0.577969
     11          7           0        0.815861    0.166484   -0.608324
     12         16           0       -0.672565   -1.666098    0.501202
     13          6           0       -1.431937    1.027644   -0.098160
     14          6           0       -2.736052    0.971491   -0.555446
     15          6           0       -0.915589    2.278903    0.469755
     16          6           0       -3.612370    2.061321   -0.382477
     17          1           0       -3.097152    0.060492   -1.036764
     18          6           0       -1.830514    3.373100    0.584345
     19          6           0       -3.155355    3.253126    0.190102
     20          1           0       -4.652736    1.968168   -0.696752
     21          1           0       -1.458070    4.279616    1.064647
     22          1           0       -3.842955    4.089464    0.326233
     23          6           0       -0.482935   -0.075062   -0.225222
     24          8           0        0.302664    2.369240    0.799510
     25          1           0        1.119403    1.139022   -0.431210
 ---------------------------------------------------------------------

 SCF Done:  E(RwB97XD) =  -1028.77580820     A.U. after    1 cycles

 Excitation energies and oscillator strengths:

 Excited state symmetry could not be determined.
 Excited State   1:      Singlet-?Sym    2.0982 eV  590.90 nm  f=0.1309  <S**2>=0.000
      58 -> 60         0.12814
      59 -> 60         0.68315
 This state for optimization and/or second-order correction.
 Total Energy, E(TD-HF/TD-DFT) =  -1028.69869980
 Copying the excited state density for this state as the 1-particle RhoCI density.

 Excited state symmetry could not be determined.
 Excited State   2:      Singlet-?Sym    3.2159 eV  385.53 nm  f=0.0613  <S**2>=0.000
      58 -> 60         0.67575
      59 -> 60        -0.13054

 Excited state symmetry could not be determined.
 Excited State   3:      Singlet-?Sym    4.0784 eV  304.00 nm  f=0.2015  <S**2>=0.000
      57 -> 60         0.65539
      59 -> 63         0.17864

 Alpha  occ. eigenvalues --  -89.11802 -19.19145 -14.53609 -10.43236 -10.37868
 Alpha  occ. eigenvalues --  -10.36949 -10.34658 -10.33934 -10.33521 -10.33115
 Alpha  occ. eigenvalues --  -10.32999 -10.30688 -10.30194 -10.29762 -10.28052
 Alpha  occ. eigenvalues --  -10.27405  -8.13710  -6.08576  -6.08200  -6.07764
 Alpha  occ. eigenvalues --   -1.13039  -1.07694  -0.98989  -0.95292  -0.93265
 Alpha  occ. eigenvalues --   -0.88967  -0.87008  -0.83842  -0.80395  -0.75535
 Alpha  occ. eigenvalues --   -0.73710  -0.72297  -0.68728  -0.66998  -0.65031
 Alpha  occ. eigenvalues --   -0.60819  -0.59859  -0.58003  -0.56156  -0.55290
 Alpha  occ. eigenvalues --   -0.54735  -0.53102  -0.52642  -0.50167  -0.49702
 Alpha  occ. eigenvalues --   -0.47940  -0.47488  -0.47016  -0.45713  -0.45123
 Alpha  occ. eigenvalues --   -0.43555  -0.42503  -0.42095  -0.39169  -0.35848
 Alpha  occ. eigenvalues --   -0.34386  -0.32085  -0.30101  -0.24841
 Alpha virt. eigenvalues --   -0.02893   0.03182   0.04553   0.05129   0.07924
 Alpha virt. eigenvalues --    0.10329   0.14082   0.15153   0.16088   0.17198
 Alpha virt. eigenvalues --    0.18430   0.19600   0.20196   0.20882   0.22054

 Mulliken charges:
               1
     1  C    0.021329
     2  C   -0.224414
     3  C    0.233295
     4  C   -0.006026
     5  C    0.013254
     6  C    0.006298
     7  H    0.030247
     8  H    0.034489
     9  H    0.031435
    10  H    0.030959
    11  N   -0.124506
    12  S    0.264198
    13  C   -0.132018
    14  C    0.026996
    15  C    0.094695
    16  C   -0.052294
    17  H   -0.006698
    18  C   -0.047385
    19  C    0.027464
    20  H   -0.004697
    21  H   -0.002748
    22  H    0.007816
    23  C    0.034076
    24  O   -0.420024
    25  H    0.164257
 Sum of Mulliken charges =  -0.00000

 Dipole moment (field-independent basis, Debye):
    X=              3.0025    Y=             -6.7332    Z=             -1.5424  Tot=              7.5319
 Quadrupole moment (field-independent basis, Debye-Ang):
   XX=            -84.0571   YY=            -95.6243   ZZ=           -102.6307
   XY=             -5.8898   XZ=             -2.1505   YZ=             -6.5650

  Exact polarizability:     265.049     -51.596     200.445       6.971     -11.435      87.718
 Approx polarizability:     259.009     -37.191     237.716       0.484      -6.535     110.685

 ******    1 imaginary frequencies (negative Signs) ******

                      1                      2                      3
                      A                      A                      A
 Frequencies --    -53.9329                42.0721                78.5324
 Red. masses --      5.9019                 6.2702                 5.3597
 Frc consts  --      0.0101                 0.0065                 0.0195
 IR Inten    --      7.3230                 2.2748                 4.5587

                      4                      5                      6
                      A                      A                      A
 Frequencies --    162.0952               173.5415               207.9071
 Red. masses --      5.5135                 6.7795                 5.4135
 Frc consts  --      0.0854                 0.1203                 0.1379
 IR Inten    --     12.2570                 0.0017                 3.7501

                      7                      8                      9
                      A                      A                      A
 Frequencies --    264.4559               280.4883               319.4470
 Red. masses --      7.0430                 4.5824                 6.6941
 Frc consts  --      0.2902                 0.2124                 0.4025
 IR Inten    --      5.9434                 0.6379                 8.7655

                     10                     11                     12
                      A                      A                      A
 Frequencies --    326.3542               377.5328               438.5640
 Red. masses --      4.4238                 5.7806                 3.1315
 Frc consts  --      0.2776                 0.4854                 0.3549
 IR Inten    --     25.6937                 7.6669                 7.6018

                     13                     14                     15
                      A                      A                      A
 Frequencies --    455.8459               505.4754               522.5160
 Red. masses --      4.0297                 7.5956                 3.7026
 Frc consts  --      0.4934                 1.1434                 0.5956
 IR Inten    --     26.4266                 3.1735                 0.5928

                     16                     17                     18
                      A                      A                      A
 Frequencies --    531.8790               539.1548               563.6300
 Red. masses --      2.3385                 6.0153                 5.8387
 Frc consts  --      0.3898                 1.0302                 1.0928
 IR Inten    --     55.4813                59.9782                34.6458

                     19                     20                     21
                      A                      A                      A
 Frequencies --    569.8069               587.7519               665.4578
 Red. masses --      4.5314                 4.8336                 4.4853
 Frc consts  --      0.8668                 0.9838                 1.1703
 IR Inten    --     11.1435                35.7657                 6.2641

                     22                     23                     24
                      A                      A                      A
 Frequencies --    701.1684               719.3774               739.1453
 Red. masses --      3.0850                 4.3749                 2.0693
 Frc consts  --      0.8936                 1.3339                 0.6661
 IR Inten    --     46.2835                17.2131                 6.6930

                     25                     26                     27
                      A                      A                      A
 Frequencies --    748.5435               772.2325               790.8503
 Red. masses --      2.4686                 1.5655                 2.2532
 Frc consts  --      0.8149                 0.5500                 0.8303
 IR Inten    --     14.3080                62.1432                39.6359

                     28                     29                     30
                      A                      A                      A
 Frequencies --    823.9920               874.1277               886.1755
 Red. masses --      5.3439                 1.4840                 1.6776
 Frc consts  --      2.1377                 0.6681                 0.7762
 IR Inten    --      9.8343                 0.1806                 7.1534

                     31                     32                     33
                      A                      A                      A
 Frequencies --    888.3075               959.8797               962.6354
 Red. masses --      3.7159                 1.5170                 1.3663
 Frc consts  --      1.7276                 0.8235                 0.7460
 IR Inten    --      3.5008                 7.4015                 0.8183

                     34                     35                     36
                      A                      A                      A
 Frequencies --    977.2286               994.0561              1007.9222
 Red. masses --      4.0518                 1.3480                 1.2974
 Frc consts  --      2.2798                 0.7848                 0.7766
 IR Inten    --     18.2197                 7.6231                 0.0121

                     37                     38                     39
                      A                      A                      A
 Frequencies --   1051.0532              1056.6184              1093.0221
 Red. masses --      2.0672                 2.0980                 4.0144
 Frc consts  --      1.3455                 1.3801                 2.8257
 IR Inten    --      0.4544                 6.5395                 3.8759

                     40                     41                     42
                      A                      A                      A
 Frequencies --   1124.8960              1156.2280              1163.7884
 Red. masses --      1.5384                 1.3624                 1.1713
 Frc consts  --      1.1469                 1.0731                 0.9347
 IR Inten    --     22.7517                 3.5023                52.7401

                     43                     44                     45
                      A                      A                      A
 Frequencies --   1180.1788              1225.8894              1252.4285
 Red. masses --      1.1522                 3.1019                 2.2164
 Frc consts  --      0.9455                 2.7465                 2.0484
 IR Inten    --      9.8790                33.4112                20.3214

                     46                     47                     48
                      A                      A                      A
 Frequencies --   1291.8714              1299.0137              1324.0644
 Red. masses --      1.7813                 3.9215                 1.9192
 Frc consts  --      1.7516                 3.8987                 1.9824
 IR Inten    --      1.6554                 4.2456                44.7433

                     49                     50                     51
                      A                      A                      A
 Frequencies --   1354.6057              1395.9153              1404.0758
 Red. masses --      4.2281                 2.3339                 2.0636
 Frc consts  --      4.5711                 2.6795                 2.3970
 IR Inten    --    196.9410                12.5897                97.7113

                     52                     53                     54
                      A                      A                      A
 Frequencies --   1448.1298              1465.4733              1510.3400
 Red. masses --      3.0337                 3.2247                 2.7452
 Frc consts  --      3.7483                 4.0803                 3.6895
 IR Inten    --    502.8983                41.9804                65.5588

                     55                     56                     57
                      A                      A                      A
 Frequencies --   1524.4185              1540.9060              1576.3105
 Red. masses --      3.2786                 5.4809                 4.2510
 Frc consts  --      4.4890                 7.6675                 6.2233
 IR Inten    --     92.1087                54.3534                36.0362

                     58                     59                     60
                      A                      A                      A
 Frequencies --   1631.0894              1657.1032              1674.5463
 Red. masses --      6.0595                 6.6252                 6.8555
 Frc consts  --      9.4983                10.7189                11.3262
 IR Inten    --    206.6245                 3.9516                16.9527

                     61                     62                     63
                      A                      A                      A
 Frequencies --   3207.1623              3212.0459              3213.7220
 Red. masses --      1.0867                 1.0858                 1.0897
 Frc consts  --      6.5857                 6.6003                 6.6311
 IR Inten    --      4.0283                 0.6216                 6.6187

                     64                     65                     66
                      A                      A                      A
 Frequencies --   3220.4419              3225.9956              3229.2745
 Red. masses --      1.0903                 1.0937                 1.0959
 Frc consts  --      6.6624                 6.7063                 6.7334
 IR Inten    --      2.9198                13.6269                10.4819

                     67                     68                     69
                      A                      A                      A
 Frequencies --   3235.6822              3238.2321              3363.9952
 Red. masses --      1.0994                 1.0999                 1.0807
 Frc consts  --      6.7820                 6.7953                 7.2057
 IR Inten    --     15.6202                15.1174              1462.7134

 - Thermochemistry -
 -------------------
 Temperature   298.150 Kelvin.  Pressure   1.00000 Atm.
 Atom     1 has atomic number  6 and mass  12.00000

 Molecular mass:   227.04049 amu.
 Principal axes and moments of inertia in atomic units:
                           1         2         3
     Eigenvalues --  1286.383206472.913477380.10028
           X            0.71748   0.69624   0.02165
           Y           -0.69654   0.71741   0.01217
           Z           -0.00706  -0.02382   0.99969
 This molecule is an asymmetric top.
 Rotational symmetry number  1.
 Warning -- assumption of classical behavior for rotation
           may cause significant error
 Rotational temperatures (Kelvin)      0.06733     0.01338     0.01174
 Rotational constants (GHZ):           1.40296     0.27881     0.24454
    1 imaginary frequencies ignored.
 Zero-point vibrational energy     490508.8 (Joules/Mol)
                                  117.23442 (Kcal/Mol)
 Warning -- explicit consideration of  19 degrees of freedom as
           vibrations may cause significant error
 Vibrational temperatures:     60.53   112.99   233.22   249.69   299.13
          (Kelvin)            380.49   403.56   459.61   469.55   543.19
                              631.00   655.86   727.27   751.78   765.26
                              775.72   810.94   819.83   845.64   957.45
                             1008.82  1035.02  1063.47  1076.99  1111.07
                             1137.86  1185.54  1257.67  1275.01  1278.08
                             1381.05  1385.02  1406.01  1430.22  1450.18
                             1512.23  1520.24  1572.62  1618.47  1663.55
                             1674.43  1698.01  1763.78  1801.97  1858.71
                             1868.99  1905.03  1948.98  2008.41  2020.15
                             2083.54  2108.49  2173.04  2193.30  2217.02
                             2267.96  2346.77  2384.20  2409.30  4614.39
                             4621.42  4623.83  4633.50  4641.49  4646.21
                             4655.43  4659.09  4840.04

 Zero-point correction=                           0.186825 (Hartree/Particle)
 Thermal correction to Energy=                    0.198408
 Thermal correction to Enthalpy=                  0.199353
 Thermal correction to Gibbs Free Energy=         0.148620
 Sum of electronic and zero-point Energies=          -1028.511875
 Sum of electronic and thermal Energies=             -1028.500291
 Sum of electronic and thermal Enthalpies=           -1028.499347
 Sum of electronic and thermal Free Energies=        -1028.550080

                     E (Thermal)             CV                S
                      KCal/Mol        Cal/Mol-Kelvin    Cal/Mol-Kelvin
 Total                  124.503             47.634            106.776
 Electronic               0.000              0.000              0.000
 Translational            0.889              2.981             42.162
 Rotational               0.889              2.981             32.485
 Vibrational            122.726             41.673             32.128
 Vibration     1          0.595              1.980              5.159
 Vibration     2          0.600              1.964              3.927
 Vibration     3          0.622              1.889              2.525
 Vibration     4          0.627              1.875              2.397
 Vibration     5          0.641              1.829              2.062
 Vibration     6          0.671              1.738              1.632
 Vibration     7          0.680              1.710              1.531
 Vibration     8          0.705              1.636              1.313
 Vibration     9          0.710              1.623              1.278
 Vibration    10          0.748              1.518              1.049
 Vibration    11          0.799              1.386              0.831
 Vibration    12          0.814              1.348              0.778
 Vibration    13          0.861              1.238              0.645
 Vibration    14          0.877              1.200              0.604
 Vibration    15          0.887              1.179              0.583
 Vibration    16          0.894              1.163              0.567
 Vibration    17          0.919              1.110              0.517
 Vibration    18          0.926              1.097              0.505
 Vibration    19          0.945              1.058              0.471

                           ! Non-Optimized Parameters !
 Normal termination of Gaussian 16 at Tue Jul 14 00:23:36 2020.
