 Gaussian 16, Revision C.01,
 Gaussian 16:  ES64L-G16RevC.01  3-Jul-2019

 ----------------------------------------------------------------------
 #p opt=addgic freq td wb97xd/cc-pvdz nosymm int=ultrafine scrf=(solven
 t=CarbonTetraChloride)
 ----------------------------------------------------------------------

 ------------------------------------------------
 NM 2D-scan of HBT TD-WB97XD pVDZ in CTC Relaxed.
 ------------------------------------------------
 Symbolic Z-matrix:
 Charge =  0 Multiplicity = 1

 SCF Done:  E(RwB97XD) =  -1028.75721790     A.U. after   15 cycles
 Total Energy, E(TD-HF/TD-DFT) =  -1028.62610586
 SCF Done:  E(RwB97XD) =  -1028.81225473     A.U. after   13 cycles
 Total Energy, E(TD-HF/TD-DFT) =  -1028.68344154
 SCF Done:  E(RwB97XD) =  -1028.81463037     A.U. after   13 cycles
 Total Energy, E(TD-HF/TD-DFT) =  -1028.68742898
 SCF Done:  E(RwB97XD) =  -1028.81444704     A.U. after   11 cycles
 Total Energy, E(TD-HF/TD-DFT) =  -1028.68754988
 SCF Done:  E(RwB97XD) =  -1028.81459608     A.U. after    9 cycles
 Total Energy, E(TD-HF/TD-DFT) =  -1028.68759645
 SCF Done:  E(RwB97XD) =  -1028.81465839     A.U. after    8 cycles
 Total Energy, E(TD-HF/TD-DFT) =  -1028.68759885
 SCF Done:  E(RwB97XD) =  -1028.81468238     A.U. after    8 cycles
 Total Energy, E(TD-HF/TD-DFT) =  -1028.68759900
 SCF Done:  E(RwB97XD) =  -1028.81468345     A.U. after    7 cycles
 Total Energy, E(TD-HF/TD-DFT) =  -1028.68759915
 Optimization completed.
    -- Stationary point found.
 Normal termination of Gaussian 16 at Mon Jul 13 17:32:42 2020.

 ----------------------------------------------------------------------
 #P Geom=AllCheck Guess=TCheck SCRF=Check GenChk RwB97XD TD(FC,Read)/CC
 -pVDZ Freq
 ----------------------------------------------------------------------

 Structure from the checkpoint file:  "config_3_4.chk"
 ------------------------------------------------
 NM 2D-scan of HBT TD-WB97XD pVDZ in CTC Relaxed.
 ------------------------------------------------
 Charge =  0 Multiplicity = 1

                          Input orientation:
 ---------------------------------------------------------------------
 Center     Atomic      Atomic             Coordinates (Angstroms)
 Number     Number       Type             X           Y           Z
 ---------------------------------------------------------------------
      1          6           0        1.722117   -3.299001   -0.000037
      2          6           0        0.975934   -2.118918   -0.000020
      3          6           0        1.650759   -0.852318    0.000004
      4          6           0        3.068336   -0.791251    0.000013
      5          6           0        3.784509   -1.964481   -0.000005
      6          6           0        3.118975   -3.211038   -0.000030
      7          1           0        1.235513   -4.275308   -0.000055
      8          1           0        3.548228    0.187949    0.000032
      9          1           0        4.875608   -1.938324   -0.000000
     10          1           0        3.706558   -4.130507   -0.000045
     11          7           0        0.884528    0.232784    0.000014
     12         16           0       -0.766799   -1.844524   -0.000022
     13          6           0       -1.381185    1.016010   -0.000008
     14          6           0       -2.802003    0.880475   -0.000012
     15          6           0       -0.888366    2.421338    0.000007
     16          6           0       -3.639605    1.986018    0.000033
     17          1           0       -3.234402   -0.121695   -0.000040
     18          6           0       -1.768799    3.509059    0.000064
     19          6           0       -3.137133    3.310213    0.000081
     20          1           0       -4.719581    1.829252    0.000036
     21          1           0       -1.320823    4.503052    0.000082
     22          1           0       -3.820358    4.159692    0.000123
     23          6           0       -0.444327   -0.047080   -0.000007
     24          8           0        0.390501    2.747172   -0.000043
     25          1           0        0.913368    1.896169   -0.000069
 ---------------------------------------------------------------------

 SCF Done:  E(RwB97XD) =  -1028.81468345     A.U. after    1 cycles

 Excitation energies and oscillator strengths:

 Excited state symmetry could not be determined.
 Excited State   1:      Singlet-?Sym    3.4581 eV  358.53 nm  f=0.6973  <S**2>=0.000
      59 -> 60         0.68995
 This state for optimization and/or second-order correction.
 Total Energy, E(TD-HF/TD-DFT) =  -1028.68759914
 Copying the excited state density for this state as the 1-particle RhoCI density.

 Excited state symmetry could not be determined.
 Excited State   2:      Singlet-?Sym    4.3821 eV  282.93 nm  f=0.2310  <S**2>=0.000
      57 -> 60        -0.23378
      58 -> 60        -0.61853
      59 -> 62         0.17295

 Excited state symmetry could not be determined.
 Excited State   3:      Singlet-?Sym    4.5665 eV  271.51 nm  f=0.0476  <S**2>=0.000
      57 -> 60         0.57129
      57 -> 64         0.10738
      58 -> 60        -0.22196
      58 -> 61        -0.12576
      59 -> 61         0.24541

 Alpha  occ. eigenvalues --  -89.09236 -19.28514 -14.46849 -10.40029 -10.38251
 Alpha  occ. eigenvalues --  -10.34986 -10.34760 -10.33100 -10.32334 -10.32324
 Alpha  occ. eigenvalues --  -10.31870 -10.31466 -10.31301 -10.31239 -10.30450
 Alpha  occ. eigenvalues --  -10.30181  -8.11059  -6.05925  -6.05585  -6.05107
 Alpha  occ. eigenvalues --   -1.17259  -1.08280  -0.96610  -0.95524  -0.91365
 Alpha  occ. eigenvalues --   -0.88789  -0.84890  -0.84337  -0.82297  -0.75990
 Alpha  occ. eigenvalues --   -0.71001  -0.70153  -0.69078  -0.68261  -0.63280
 Alpha  occ. eigenvalues --   -0.60228  -0.58844  -0.58489  -0.55822  -0.54386
 Alpha  occ. eigenvalues --   -0.53594  -0.53036  -0.52686  -0.50993  -0.50389
 Alpha  occ. eigenvalues --   -0.49238  -0.47977  -0.45827  -0.45503  -0.44688
 Alpha  occ. eigenvalues --   -0.43689  -0.42857  -0.42270  -0.39923  -0.37314
 Alpha  occ. eigenvalues --   -0.36426  -0.32183  -0.31427  -0.27893
 Alpha virt. eigenvalues --   -0.01858   0.05137   0.07027   0.07036   0.07101
 Alpha virt. eigenvalues --    0.11170   0.12774   0.15104   0.15842   0.17859
 Alpha virt. eigenvalues --    0.18597   0.20749   0.21693   0.22298   0.22719

 Mulliken charges:
               1
     1  C    0.006198
     2  C   -0.221281
     3  C    0.236349
     4  C   -0.015429
     5  C    0.009972
     6  C   -0.009314
     7  H    0.019518
     8  H    0.016136
     9  H    0.018408
    10  H    0.020643
    11  N   -0.348724
    12  S    0.149853
    13  C   -0.097165
    14  C   -0.014910
    15  C    0.086737
    16  C   -0.014642
    17  H    0.011003
    18  C    0.015018
    19  C    0.021551
    20  H    0.011775
    21  H    0.018814
    22  H    0.022215
    23  C    0.079500
    24  O   -0.191635
    25  H    0.169410
 Sum of Mulliken charges =  -0.00000

 Dipole moment (field-independent basis, Debye):
    X=             -0.2620    Y=             -1.7773    Z=             -0.0000  Tot=              1.7965
 Quadrupole moment (field-independent basis, Debye-Ang):
   XX=            -83.2116   YY=            -89.0183   ZZ=           -104.5253
   XY=             -6.8447   XZ=             -0.0002   YZ=              0.0005

  Exact polarizability:     405.848    -194.195     389.847      -0.002       0.004      63.567
 Approx polarizability:     281.036     -36.849     263.895      -0.001       0.003      82.514

                      1                      2                      3
                      A                      A                      A
 Frequencies --     33.6268                59.1180               107.2510
 Red. masses --      5.9235                 6.1977                 4.5959
 Frc consts  --      0.0039                 0.0128                 0.0311
 IR Inten    --      1.3484                 0.0151                 0.3259

                      4                      5                      6
                      A                      A                      A
 Frequencies --    111.0963               181.1719               223.7085
 Red. masses --      5.6394                 6.5665                 5.3938
 Frc consts  --      0.0410                 0.1270                 0.1590
 IR Inten    --      2.0951                 0.8736                 0.0004

                      7                      8                      9
                      A                      A                      A
 Frequencies --    262.9369               266.9394               294.7405
 Red. masses --      7.9306                 4.8108                 6.7168
 Frc consts  --      0.3230                 0.2020                 0.3438
 IR Inten    --     21.9553                 0.1945                 6.9408

                     10                     11                     12
                      A                      A                      A
 Frequencies --    390.6011               393.5955               437.6352
 Red. masses --      8.8193                 4.6887                 3.2616
 Frc consts  --      0.7928                 0.4280                 0.3681
 IR Inten    --     13.2043                 0.2073                 4.6041

                     13                     14                     15
                      A                      A                      A
 Frequencies --    492.5725               493.3822               503.1657
 Red. masses --      4.5032                 5.7314                 6.7258
 Frc consts  --      0.6437                 0.8220                 1.0033
 IR Inten    --      0.2363                22.9420                 9.6338

                     16                     17                     18
                      A                      A                      A
 Frequencies --    503.2481               525.4093               548.5175
 Red. masses --      3.1359                 7.9559                 3.9632
 Frc consts  --      0.4679                 1.2940                 0.7026
 IR Inten    --      0.1003                19.7914                 0.1709

                     19                     20                     21
                      A                      A                      A
 Frequencies --    579.2488               637.8012               665.8694
 Red. masses --      7.7132                 6.9261                 8.4854
 Frc consts  --      1.5248                 1.6600                 2.2167
 IR Inten    --     54.1367                55.4956                15.6922

                     22                     23                     24
                      A                      A                      A
 Frequencies --    705.6950               715.0138               733.3193
 Red. masses --      7.0386                 1.8555                 1.8909
 Frc consts  --      2.0652                 0.5589                 0.5991
 IR Inten    --     10.9916                42.6051                29.6601

                     25                     26                     27
                      A                      A                      A
 Frequencies --    750.1089               770.9026               800.3458
 Red. masses --      1.8149                 2.0374                 6.6113
 Frc consts  --      0.6017                 0.7134                 2.4951
 IR Inten    --     30.8185                52.7617                17.2330

                     28                     29                     30
                      A                      A                      A
 Frequencies --    825.4027               857.4325               889.7437
 Red. masses --      1.6148                 1.4272                 6.3678
 Frc consts  --      0.6482                 0.6182                 2.9701
 IR Inten    --      1.9672                 0.2779                47.9342

                     31                     32                     33
                      A                      A                      A
 Frequencies --    906.6160               926.2875               949.3073
 Red. masses --      1.1061                 1.3038                 7.1014
 Frc consts  --      0.5357                 0.6591                 3.7706
 IR Inten    --     71.7875                 1.0982                 7.9660

                     34                     35                     36
                      A                      A                      A
 Frequencies --    952.3440               966.6150               999.0989
 Red. masses --      1.3439                 1.3513                 1.2998
 Frc consts  --      0.7181                 0.7439                 0.7644
 IR Inten    --      2.0918                 0.0183                 0.0007

                     37                     38                     39
                      A                      A                      A
 Frequencies --   1037.5229              1038.5698              1068.1210
 Red. masses --      2.1808                 2.2177                 4.9320
 Frc consts  --      1.3831                 1.4094                 3.3152
 IR Inten    --      2.9167                 1.2766                34.9896

                     40                     41                     42
                      A                      A                      A
 Frequencies --   1133.9936              1146.4754              1175.0132
 Red. masses --      1.4886                 1.3017                 1.1473
 Frc consts  --      1.1278                 1.0081                 0.9333
 IR Inten    --     51.5342                15.1069                 9.1583

                     43                     44                     45
                      A                      A                      A
 Frequencies --   1177.4855              1224.8634              1236.1641
 Red. masses --      1.1727                 5.4239                 1.7198
 Frc consts  --      0.9580                 4.7945                 1.5484
 IR Inten    --     25.9595               127.0326               129.1409

                     46                     47                     48
                      A                      A                      A
 Frequencies --   1276.3791              1290.0376              1362.2192
 Red. masses --      1.6541                 2.7389                 2.9847
 Frc consts  --      1.5877                 2.6855                 3.2632
 IR Inten    --     18.4200               260.9156                80.2376

                     49                     50                     51
                      A                      A                      A
 Frequencies --   1372.4090              1403.2724              1436.7241
 Red. masses --      5.0877                 2.0147                 2.5055
 Frc consts  --      5.6459                 2.3374                 3.0471
 IR Inten    --     24.1358                15.8006               191.4683

                     52                     53                     54
                      A                      A                      A
 Frequencies --   1474.2720              1490.2137              1518.5463
 Red. masses --      3.0844                 2.1094                 6.2846
 Frc consts  --      3.9498                 2.7600                 8.5386
 IR Inten    --     69.0063               201.9827               147.8029

                     55                     56                     57
                      A                      A                      A
 Frequencies --   1530.9511              1548.1032              1581.1800
 Red. masses --      5.4518                 5.2699                 2.8106
 Frc consts  --      7.5285                 7.4413                 4.1401
 IR Inten    --    242.2596               402.5299               228.8757

                     58                     59                     60
                      A                      A                      A
 Frequencies --   1604.0184              1631.5487              1653.5635
 Red. masses --      4.0319                 5.5079                 5.8742
 Frc consts  --      6.1120                 8.6385                 9.4632
 IR Inten    --     37.0349               438.5796               175.4306

                     61                     62                     63
                      A                      A                      A
 Frequencies --   3087.1212              3203.9491              3207.5486
 Red. masses --      1.0716                 1.0869                 1.0859
 Frc consts  --      6.0174                 6.5736                 6.5823
 IR Inten    --     57.6973                 4.1233                 7.6823

                     64                     65                     66
                      A                      A                      A
 Frequencies --   3216.6097              3217.5862              3226.0786
 Red. masses --      1.0898                 1.0894                 1.0933
 Frc consts  --      6.6436                 6.6450                 6.7043
 IR Inten    --      3.4475                 1.8587                20.4840

                     67                     68                     69
                      A                      A                      A
 Frequencies --   3227.9414              3235.0861              3238.7773
 Red. masses --      1.0953                 1.0995                 1.0991
 Frc consts  --      6.7239                 6.7797                 6.7926
 IR Inten    --     11.3418                41.3980                25.0278

 - Thermochemistry -
 -------------------
 Temperature   298.150 Kelvin.  Pressure   1.00000 Atm.
 Atom     1 has atomic number  6 and mass  12.00000

 Molecular mass:   227.04049 amu.
 Principal axes and moments of inertia in atomic units:
                           1         2         3
     Eigenvalues --  1364.708846360.713327725.42216
           X           -0.69574   0.71829   0.00000
           Y            0.71829   0.69574  -0.00001
           Z            0.00001   0.00000   1.00000
 This molecule is an asymmetric top.
 Rotational symmetry number  1.
 Warning -- assumption of classical behavior for rotation
           may cause significant error
 Rotational temperatures (Kelvin)      0.06347     0.01362     0.01121
 Rotational constants (GHZ):           1.32244     0.28373     0.23361
 Zero-point vibrational energy     488867.2 (Joules/Mol)
                                  116.84207 (Kcal/Mol)
 Warning -- explicit consideration of  19 degrees of freedom as
           vibrations may cause significant error
 Vibrational temperatures:     48.38    85.06   154.31   159.84   260.67
          (Kelvin)            321.87   378.31   384.07   424.07   561.99
                              566.30   629.66   708.70   709.87   723.94
                              724.06   755.95   789.19   833.41   917.65
                              958.04  1015.34  1028.75  1055.08  1079.24
                             1109.16  1151.52  1187.57  1233.65  1280.14
                             1304.42  1332.72  1365.84  1370.21  1390.74
                             1437.48  1492.76  1494.27  1536.79  1631.56
                             1649.52  1690.58  1694.14  1762.31  1778.56
                             1836.42  1856.08  1959.93  1974.59  2019.00
                             2067.13  2121.15  2144.09  2184.85  2202.70
                             2227.38  2274.97  2307.82  2347.43  2379.11
                             4441.68  4609.77  4614.95  4627.98  4629.39
                             4641.61  4644.29  4654.57  4659.88

 Zero-point correction=                           0.186200 (Hartree/Particle)
 Thermal correction to Energy=                    0.198601
 Thermal correction to Enthalpy=                  0.199545
 Thermal correction to Gibbs Free Energy=         0.146502
 Sum of electronic and zero-point Energies=          -1028.501399
 Sum of electronic and thermal Energies=             -1028.488998
 Sum of electronic and thermal Enthalpies=           -1028.488054
 Sum of electronic and thermal Free Energies=        -1028.541097

                     E (Thermal)             CV                S
                      KCal/Mol        Cal/Mol-Kelvin    Cal/Mol-Kelvin
 Total                  124.624             49.644            111.639
 Electronic               0.000              0.000              0.000
 Translational            0.889              2.981             42.162
 Rotational               0.889              2.981             32.572
 Vibrational            122.847             43.683             36.904
 Vibration     1          0.594              1.983              5.603
 Vibration     2          0.596              1.974              4.486
 Vibration     3          0.606              1.943              3.318
 Vibration     4          0.607              1.940              3.250
 Vibration     5          0.630              1.865              2.316
 Vibration     6          0.649              1.805              1.929
 Vibration     7          0.670              1.741              1.642
 Vibration     8          0.672              1.734              1.616
 Vibration     9          0.689              1.684              1.447
 Vibration    10          0.758              1.490              0.998
 Vibration    11          0.761              1.484              0.986
 Vibration    12          0.798              1.388              0.834
 Vibration    13          0.848              1.266              0.677
 Vibration    14          0.849              1.265              0.675
 Vibration    15          0.858              1.243              0.650
 Vibration    16          0.859              1.243              0.650
 Vibration    17          0.880              1.194              0.598
 Vibration    18          0.904              1.143              0.547
 Vibration    19          0.936              1.076              0.487

 Optimization completed.
    -- Stationary point found.
 Normal termination of Gaussian 16 at Mon Jul 13 17:50:11 2020.
