 Gaussian 16, Revision C.01,
 Gaussian 16:  ES64L-G16RevC.01  3-Jul-2019

 ----------------------------------------------------------------------
 #p opt=addgic freq td wb97xd/cc-pvdz nosymm int=ultrafine scrf=(solven
 t=CarbonTetraChloride)
 ----------------------------------------------------------------------

 ------------------------------------------------
 NM 2D-scan of HBT TD-WB97XD pVDZ in CTC Relaxed.
 ------------------------------------------------
 Symbolic Z-matrix:
 Charge =  0 Multiplicity = 1

 SCF Done:  E(RwB97XD) =  -1028.49322946     A.U. after   16 cycles
 Total Energy, E(TD-HF/TD-DFT) =  -1028.38878731
 SCF Done:  E(RwB97XD) =  -1028.70610401     A.U. after   14 cycles
 Total Energy, E(TD-HF/TD-DFT) =  -1028.60442155
 SCF Done:  E(RwB97XD) =  -1028.77061261     A.U. after   15 cycles
 Total Energy, E(TD-HF/TD-DFT) =  -1028.67414030
 SCF Done:  E(RwB97XD) =  -1028.78295249     A.U. after   14 cycles
 Total Energy, E(TD-HF/TD-DFT) =  -1028.68531683
 SCF Done:  E(RwB97XD) =  -1028.78458648     A.U. after   12 cycles
 Total Energy, E(TD-HF/TD-DFT) =  -1028.68606558
 SCF Done:  E(RwB97XD) =  -1028.78536430     A.U. after   12 cycles
 Total Energy, E(TD-HF/TD-DFT) =  -1028.68617400
 SCF Done:  E(RwB97XD) =  -1028.78520779     A.U. after   10 cycles
 Total Energy, E(TD-HF/TD-DFT) =  -1028.68618777
 SCF Done:  E(RwB97XD) =  -1028.78522855     A.U. after    9 cycles
 Total Energy, E(TD-HF/TD-DFT) =  -1028.68618926
 Optimization completed.
    -- Stationary point found.
 Normal termination of Gaussian 16 at Tue Jul 14 11:50:04 2020.

 ----------------------------------------------------------------------
 #P Geom=AllCheck Guess=TCheck SCRF=Check GenChk RwB97XD TD(FC,Read)/CC
 -pVDZ Freq
 ----------------------------------------------------------------------

 Structure from the checkpoint file:  "config_12_12_fixed.chk"
 ------------------------------------------------
 NM 2D-scan of HBT TD-WB97XD pVDZ in CTC Relaxed.
 ------------------------------------------------
 Charge =  0 Multiplicity = 1

                          Input orientation:
 ---------------------------------------------------------------------
 Center     Atomic      Atomic             Coordinates (Angstroms)
 Number     Number       Type             X           Y           Z
 ---------------------------------------------------------------------
      1          6           0        1.638657   -3.298898    0.000029
      2          6           0        1.021242   -2.055582   -0.000000
      3          6           0        1.778799   -0.891071   -0.000044
      4          6           0        3.178787   -0.921633   -0.000050
      5          6           0        3.790642   -2.171892   -0.000017
      6          6           0        3.033691   -3.347895    0.000019
      7          1           0        1.048568   -4.215189    0.000056
      8          1           0        3.762504    0.000204   -0.000079
      9          1           0        4.880133   -2.229894   -0.000021
     10          1           0        3.536518   -4.315257    0.000039
     11          7           0        0.969651    0.209048   -0.000086
     12         16           0       -0.703972   -1.652378   -0.000002
     13          6           0       -1.392124    1.107232   -0.000008
     14          6           0       -2.743529    0.838672   -0.000041
     15          6           0       -0.916487    2.505591    0.000052
     16          6           0       -3.721993    1.889473    0.000015
     17          1           0       -3.098444   -0.195488   -0.000119
     18          6           0       -1.944721    3.517892    0.000103
     19          6           0       -3.321281    3.213054    0.000090
     20          1           0       -4.779384    1.620371   -0.000008
     21          1           0       -1.606468    4.556200    0.000172
     22          1           0       -4.063352    4.013273    0.000135
     23          6           0       -0.389842    0.057292   -0.000071
     24          8           0        0.310582    2.715578    0.000056
     25          1           0        1.514938    1.031939   -0.000139
 ---------------------------------------------------------------------

 SCF Done:  E(RwB97XD) =  -1028.78522855     A.U. after    1 cycles

 Excitation energies and oscillator strengths:

 Excited state symmetry could not be determined.
 Excited State   1:      Singlet-?Sym    2.6950 eV  460.05 nm  f=0.4313  <S**2>=0.000
      59 -> 60         0.69753
 This state for optimization and/or second-order correction.
 Total Energy, E(TD-HF/TD-DFT) =  -1028.68618925
 Copying the excited state density for this state as the 1-particle RhoCI density.

 Excited state symmetry could not be determined.
 Excited State   2:      Singlet-?Sym    3.2865 eV  377.25 nm  f=0.0000  <S**2>=0.000
      58 -> 60         0.68435
      58 -> 62         0.11350
      58 -> 64         0.10210

 Excited state symmetry could not be determined.
 Excited State   3:      Singlet-?Sym    4.2933 eV  288.78 nm  f=0.4578  <S**2>=0.000
      57 -> 60         0.68337

 Alpha  occ. eigenvalues --  -89.10594 -19.19968 -14.53022 -10.42807 -10.37313
 Alpha  occ. eigenvalues --  -10.36204 -10.35222 -10.33624 -10.33458 -10.32951
 Alpha  occ. eigenvalues --  -10.32620 -10.31328 -10.30854 -10.30494 -10.28967
 Alpha  occ. eigenvalues --  -10.28054  -8.12613  -6.07495  -6.07099  -6.06633
 Alpha  occ. eigenvalues --   -1.13458  -1.09137  -0.98712  -0.95707  -0.93259
 Alpha  occ. eigenvalues --   -0.89071  -0.86830  -0.84132  -0.80554  -0.76001
 Alpha  occ. eigenvalues --   -0.74738  -0.71942  -0.69411  -0.67406  -0.64740
 Alpha  occ. eigenvalues --   -0.61072  -0.59813  -0.56495  -0.56306  -0.56064
 Alpha  occ. eigenvalues --   -0.55099  -0.53607  -0.53013  -0.50446  -0.48700
 Alpha  occ. eigenvalues --   -0.48655  -0.48194  -0.47073  -0.45595  -0.44866
 Alpha  occ. eigenvalues --   -0.43990  -0.42749  -0.42206  -0.39825  -0.36964
 Alpha  occ. eigenvalues --   -0.33871  -0.31590  -0.30500  -0.25222
 Alpha virt. eigenvalues --   -0.02284   0.03486   0.05688   0.06594   0.09835
 Alpha virt. eigenvalues --    0.10927   0.12993   0.14417   0.15916   0.16539
 Alpha virt. eigenvalues --    0.17914   0.19792   0.20823   0.21246   0.22699

 Mulliken charges:
               1
     1  C    0.015085
     2  C   -0.243790
     3  C    0.206693
     4  C   -0.012316
     5  C    0.013245
     6  C    0.003857
     7  H    0.026065
     8  H    0.033671
     9  H    0.029683
    10  H    0.028162
    11  N   -0.078981
    12  S    0.199958
    13  C   -0.073256
    14  C   -0.036994
    15  C    0.105908
    16  C   -0.039898
    17  H    0.005545
    18  C   -0.060133
    19  C    0.035044
    20  H    0.000622
    21  H   -0.002121
    22  H    0.013352
    23  C    0.090012
    24  O   -0.378610
    25  H    0.119196
 Sum of Mulliken charges =  -0.00000

 Dipole moment (field-independent basis, Debye):
    X=              2.7588    Y=             -6.2463    Z=             -0.0003  Tot=              6.8284
 Quadrupole moment (field-independent basis, Debye-Ang):
   XX=            -81.1683   YY=            -96.8831   ZZ=           -104.1563
   XY=             -5.9484   XZ=             -0.0004   YZ=             -0.0004

  Exact polarizability:     346.171    -117.052     288.658      -0.002       0.002      63.291
 Approx polarizability:     276.947     -40.813     264.729      -0.001       0.002      82.005

 ******    2 imaginary frequencies (negative Signs) ******

                      1                      2                      3
                      A                      A                      A
 Frequencies --   -116.9647               -30.0669                70.7712
 Red. masses --      2.7300                 5.5873                 5.8456
 Frc consts  --      0.0220                 0.0030                 0.0173
 IR Inten    --     15.7408                 0.2509                 2.6386

                      4                      5                      6
                      A                      A                      A
 Frequencies --    103.6284               160.9286               190.2596
 Red. masses --      5.7507                 3.2899                 4.5708
 Frc consts  --      0.0364                 0.0502                 0.0975
 IR Inten    --      6.7389                11.9955                15.5751

                      7                      8                      9
                      A                      A                      A
 Frequencies --    248.7984               262.3335               285.7562
 Red. masses --      3.5931                 7.9644                 8.3193
 Frc consts  --      0.1310                 0.3229                 0.4002
 IR Inten    --      6.9604                 1.6195                 2.3143

                     10                     11                     12
                      A                      A                      A
 Frequencies --    327.9415               338.8031               373.3709
 Red. masses --      2.4479                 4.0051                 6.8428
 Frc consts  --      0.1551                 0.2709                 0.5620
 IR Inten    --     19.0720                 6.4761                 7.8424

                     13                     14                     15
                      A                      A                      A
 Frequencies --    433.5648               443.2052               499.1666
 Red. masses --      3.9774                 2.9320                 8.0870
 Frc consts  --      0.4405                 0.3393                 1.1872
 IR Inten    --      6.7667                 0.0157                11.6780

                     16                     17                     18
                      A                      A                      A
 Frequencies --    516.6441               538.3376               542.3491
 Red. masses --      3.2388                 6.2095                 9.0670
 Frc consts  --      0.5094                 1.0603                 1.5713
 IR Inten    --      0.5915                22.9236                36.3168

                     19                     20                     21
                      A                      A                      A
 Frequencies --    559.0225               565.4102               642.4150
 Red. masses --      3.7907                 7.3840                 6.3981
 Frc consts  --      0.6980                 1.3908                 1.5557
 IR Inten    --      0.0295                 4.4307                12.1159

                     22                     23                     24
                      A                      A                      A
 Frequencies --    687.5999               702.3528               737.1028
 Red. masses --      1.5107                 5.6901                 7.4220
 Frc consts  --      0.4208                 1.6538                 2.3759
 IR Inten    --     32.1314                 2.0229                 5.9385

                     25                     26                     27
                      A                      A                      A
 Frequencies --    743.5259               757.6562               767.0542
 Red. masses --      2.4341                 1.6777                 1.6995
 Frc consts  --      0.7928                 0.5674                 0.5891
 IR Inten    --     18.6107                12.6848                85.7293

                     28                     29                     30
                      A                      A                      A
 Frequencies --    818.2239               838.3357               863.3182
 Red. masses --      6.3282                 2.0234                 1.3842
 Frc consts  --      2.4962                 0.8378                 0.6078
 IR Inten    --     15.5183                 1.5012                 1.2572

                     31                     32                     33
                      A                      A                      A
 Frequencies --    896.2846               900.8714               953.2595
 Red. masses --      5.8152                 1.4448                 1.3560
 Frc consts  --      2.7524                 0.6909                 0.7260
 IR Inten    --      2.0980                 9.2991                 0.3496

                     34                     35                     36
                      A                      A                      A
 Frequencies --    956.9589               965.5606              1003.6545
 Red. masses --      1.3519                 4.6727                 1.2954
 Frc consts  --      0.7294                 2.5667                 0.7688
 IR Inten    --      1.6770                 1.7881                 0.0009

                     37                     38                     39
                      A                      A                      A
 Frequencies --   1037.9772              1057.1904              1085.3328
 Red. masses --      2.3541                 2.2110                 2.6700
 Frc consts  --      1.4944                 1.4560                 1.8531
 IR Inten    --      1.5688                10.9020                16.8257

                     40                     41                     42
                      A                      A                      A
 Frequencies --   1093.6850              1139.6302              1153.7685
 Red. masses --      2.0738                 1.4294                 1.3504
 Frc consts  --      1.4615                 1.0938                 1.0591
 IR Inten    --     28.6191                95.9757                 6.3725

                     43                     44                     45
                      A                      A                      A
 Frequencies --   1162.6718              1181.8664              1227.1374
 Red. masses --      1.1910                 1.1333                 4.1661
 Frc consts  --      0.9486                 0.9327                 3.6963
 IR Inten    --      4.9586                 9.7362                29.5672

                     46                     47                     48
                      A                      A                      A
 Frequencies --   1242.1862              1302.8228              1333.7999
 Red. masses --      2.1363                 1.5549                 3.2461
 Frc consts  --      1.9421                 1.5549                 3.4024
 IR Inten    --     26.2279                 4.3643                19.8075

                     49                     50                     51
                      A                      A                      A
 Frequencies --   1358.4779              1404.7596              1404.9704
 Red. masses --      2.5977                 3.4180                 3.1011
 Frc consts  --      2.8245                 3.9740                 3.6066
 IR Inten    --     32.1480                 3.8490               106.9840

                     52                     53                     54
                      A                      A                      A
 Frequencies --   1446.3627              1462.1976              1511.2911
 Red. masses --      2.7438                 3.3325                 3.6722
 Frc consts  --      3.3819                 4.1980                 4.9417
 IR Inten    --     77.1007                 8.1783                99.9028

                     55                     56                     57
                      A                      A                      A
 Frequencies --   1525.9057              1543.5365              1621.3763
 Red. masses --      2.7855                 5.2140                 5.2164
 Frc consts  --      3.8213                 7.3190                 8.0796
 IR Inten    --      1.4400               187.8967                91.2598

                     58                     59                     60
                      A                      A                      A
 Frequencies --   1651.8074              1664.4240              1688.5124
 Red. masses --      9.4132                 6.9110                 7.4478
 Frc consts  --     15.1324                11.2803                12.5109
 IR Inten    --    158.2723                93.0566                25.6977

                     61                     62                     63
                      A                      A                      A
 Frequencies --   3188.6961              3207.3192              3213.6620
 Red. masses --      1.0892                 1.0861                 1.0865
 Frc consts  --      6.5252                 6.5828                 6.6114
 IR Inten    --     26.6492                 2.1937                 5.3317

                     64                     65                     66
                      A                      A                      A
 Frequencies --   3218.7847              3224.6543              3232.2662
 Red. masses --      1.0912                 1.0907                 1.0958
 Frc consts  --      6.6611                 6.6824                 6.7453
 IR Inten    --     15.5331                 1.6236                10.5475

                     67                     68                     69
                      A                      A                      A
 Frequencies --   3232.3094              3242.7116              3947.9076
 Red. masses --      1.0990                 1.0989                 1.0785
 Frc consts  --      6.7652                 6.8081                 9.9034
 IR Inten    --     23.1883                12.7979               188.1881

 - Thermochemistry -
 -------------------
 Temperature   298.150 Kelvin.  Pressure   1.00000 Atm.
 Atom     1 has atomic number  6 and mass  12.00000

 Molecular mass:   227.04049 amu.
 Principal axes and moments of inertia in atomic units:
                           1         2         3
     Eigenvalues --  1262.698136548.648777811.34689
           X           -0.70680   0.70741   0.00000
           Y            0.70741   0.70680  -0.00001
           Z            0.00001   0.00000   1.00000
 This molecule is an asymmetric top.
 Rotational symmetry number  1.
 Warning -- assumption of classical behavior for rotation
           may cause significant error
 Rotational temperatures (Kelvin)      0.06859     0.01323     0.01109
 Rotational constants (GHZ):           1.42927     0.27559     0.23104
    2 imaginary frequencies ignored.
 Zero-point vibrational energy     488701.2 (Joules/Mol)
                                  116.80240 (Kcal/Mol)
 Warning -- explicit consideration of  18 degrees of freedom as
           vibrations may cause significant error
 Vibrational temperatures:    101.82   149.10   231.54   273.74   357.97
          (Kelvin)            377.44   411.14   471.83   487.46   537.20
                              623.80   637.67   718.19   743.34   774.55
                              780.32   804.31   813.50   924.29   989.30
                             1010.53  1060.53  1069.77  1090.10  1103.62
                             1177.24  1206.18  1242.12  1289.55  1296.15
                             1371.53  1376.85  1389.23  1444.03  1493.42
                             1521.06  1561.55  1573.57  1639.67  1660.02
                             1672.83  1700.44  1765.58  1787.23  1874.47
                             1919.04  1954.55  2021.14  2021.44  2080.99
                             2103.78  2174.41  2195.44  2220.80  2332.80
                             2376.58  2394.73  2429.39  4587.82  4614.62
                             4623.74  4631.11  4639.56  4650.51  4650.57
                             4665.54  5680.16

 Zero-point correction=                           0.186136 (Hartree/Particle)
 Thermal correction to Energy=                    0.197443
 Thermal correction to Enthalpy=                  0.198388
 Thermal correction to Gibbs Free Energy=         0.148728
 Sum of electronic and zero-point Energies=          -1028.500053
 Sum of electronic and thermal Energies=             -1028.488746
 Sum of electronic and thermal Enthalpies=           -1028.487802
 Sum of electronic and thermal Free Energies=        -1028.537461

                     E (Thermal)             CV                S
                      KCal/Mol        Cal/Mol-Kelvin    Cal/Mol-Kelvin
 Total                  123.898             47.025            104.518
 Electronic               0.000              0.000              0.000
 Translational            0.889              2.981             42.162
 Rotational               0.889              2.981             32.535
 Vibrational            122.120             41.064             29.821
 Vibration     1          0.598              1.968              4.132
 Vibration     2          0.605              1.946              3.385
 Vibration     3          0.622              1.890              2.539
 Vibration     4          0.634              1.853              2.225
 Vibration     5          0.662              1.765              1.739
 Vibration     6          0.670              1.742              1.646
 Vibration     7          0.684              1.700              1.499
 Vibration     8          0.711              1.620              1.270
 Vibration     9          0.719              1.598              1.218
 Vibration    10          0.745              1.527              1.066
 Vibration    11          0.794              1.397              0.847
 Vibration    12          0.803              1.376              0.817
 Vibration    13          0.855              1.252              0.660
 Vibration    14          0.872              1.213              0.618
 Vibration    15          0.893              1.165              0.569
 Vibration    16          0.897              1.156              0.560
 Vibration    17          0.915              1.120              0.526
 Vibration    18          0.921              1.106              0.513

 Optimization completed.
    -- Stationary point found.
 Normal termination of Gaussian 16 at Tue Jul 14 12:07:33 2020.
