 Gaussian 16, Revision C.01,
 Gaussian 16:  ES64L-G16RevC.01  3-Jul-2019

 ----------------------------------------------------------------------
 #p opt=addgic freq td wb97xd/cc-pvdz nosymm int=ultrafine scrf=(solven
 t=CarbonTetraChloride)
 ----------------------------------------------------------------------

 ------------------------------------------------
 NM 2D-scan of HBT TD-WB97XD pVDZ in CTC Relaxed.
 ------------------------------------------------
 Symbolic Z-matrix:
 Charge =  0 Multiplicity = 1

 SCF Done:  E(RwB97XD) =  -1028.54295163     A.U. after   15 cycles
 Total Energy, E(TD-HF/TD-DFT) =  -1028.41093915
 SCF Done:  E(RwB97XD) =  -1028.76245532     A.U. after   13 cycles
 Total Energy, E(TD-HF/TD-DFT) =  -1028.63225673
 SCF Done:  E(RwB97XD) =  -1028.80418633     A.U. after   15 cycles
 Total Energy, E(TD-HF/TD-DFT) =  -1028.67844040
 SCF Done:  E(RwB97XD) =  -1028.81578120     A.U. after   13 cycles
 Total Energy, E(TD-HF/TD-DFT) =  -1028.68853425
 SCF Done:  E(RwB97XD) =  -1028.81643046     A.U. after   11 cycles
 Total Energy, E(TD-HF/TD-DFT) =  -1028.68873503
 SCF Done:  E(RwB97XD) =  -1028.81659537     A.U. after    9 cycles
 Total Energy, E(TD-HF/TD-DFT) =  -1028.68874761
 SCF Done:  E(RwB97XD) =  -1028.81662681     A.U. after    9 cycles
 Total Energy, E(TD-HF/TD-DFT) =  -1028.68874895
 Optimization completed.
    -- Stationary point found.
 Normal termination of Gaussian 16 at Mon Jul 13 20:19:07 2020.

 ----------------------------------------------------------------------
 #P Geom=AllCheck Guess=TCheck SCRF=Check GenChk RwB97XD TD(FC,Read)/CC
 -pVDZ Freq
 ----------------------------------------------------------------------

 Structure from the checkpoint file:  "config_1_10.chk"
 ------------------------------------------------
 NM 2D-scan of HBT TD-WB97XD pVDZ in CTC Relaxed.
 ------------------------------------------------
 Charge =  0 Multiplicity = 1

                          Input orientation:
 ---------------------------------------------------------------------
 Center     Atomic      Atomic             Coordinates (Angstroms)
 Number     Number       Type             X           Y           Z
 ---------------------------------------------------------------------
      1          6           0        1.640018   -3.313865   -0.000018
      2          6           0        0.960273   -2.095139   -0.000011
      3          6           0        1.690913   -0.852201   -0.000013
      4          6           0        3.112759   -0.874949   -0.000021
      5          6           0        3.763161   -2.085761   -0.000028
      6          6           0        3.036764   -3.300150   -0.000027
      7          1           0        1.098431   -4.260747   -0.000017
      8          1           0        3.648962    0.074500   -0.000022
      9          1           0        4.854162   -2.116568   -0.000035
     10          1           0        3.577991   -4.247628   -0.000033
     11          7           0        0.977145    0.271094   -0.000005
     12         16           0       -0.759130   -1.756695   -0.000001
     13          6           0       -1.322027    1.055389    0.000004
     14          6           0       -2.736558    0.823300   -0.000005
     15          6           0       -0.917213    2.479476    0.000025
     16          6           0       -3.642775    1.864916    0.000020
     17          1           0       -3.098441   -0.206502   -0.000028
     18          6           0       -1.864575    3.504207    0.000055
     19          6           0       -3.218556    3.216125    0.000054
     20          1           0       -4.710783    1.641617    0.000014
     21          1           0       -1.486934    4.527043    0.000076
     22          1           0       -3.951821    4.023067    0.000077
     23          6           0       -0.360990    0.024957    0.000001
     24          8           0        0.345458    2.892065    0.000026
     25          1           0        0.937392    2.109557    0.000024
 ---------------------------------------------------------------------

 SCF Done:  E(RwB97XD) =  -1028.81662681     A.U. after    1 cycles

 Excitation energies and oscillator strengths:

 Excited state symmetry could not be determined.
 Excited State   1:      Singlet-?Sym    3.4797 eV  356.30 nm  f=0.7549  <S**2>=0.000
      59 -> 60         0.68973
 This state for optimization and/or second-order correction.
 Total Energy, E(TD-HF/TD-DFT) =  -1028.68874894
 Copying the excited state density for this state as the 1-particle RhoCI density.

 Excited state symmetry could not be determined.
 Excited State   2:      Singlet-?Sym    4.3848 eV  282.76 nm  f=0.1354  <S**2>=0.000
      57 -> 60         0.42563
      58 -> 60         0.50087
      58 -> 63         0.10262
      59 -> 62        -0.16422

 Excited state symmetry could not be determined.
 Excited State   3:      Singlet-?Sym    4.5278 eV  273.83 nm  f=0.0840  <S**2>=0.000
      57 -> 60         0.46778
      57 -> 63        -0.12376
      58 -> 60        -0.40978
      59 -> 61         0.22621

 Alpha  occ. eigenvalues --  -89.08887 -19.29319 -14.46855 -10.39727 -10.38459
 Alpha  occ. eigenvalues --  -10.34756 -10.34679 -10.33124 -10.32416 -10.32107
 Alpha  occ. eigenvalues --  -10.32016 -10.31324 -10.31165 -10.31094 -10.30617
 Alpha  occ. eigenvalues --  -10.30423  -8.10757  -6.05612  -6.05280  -6.04813
 Alpha  occ. eigenvalues --   -1.17620  -1.07935  -0.96698  -0.95540  -0.91419
 Alpha  occ. eigenvalues --   -0.88750  -0.85161  -0.84322  -0.82148  -0.76018
 Alpha  occ. eigenvalues --   -0.71191  -0.70106  -0.69110  -0.68234  -0.63398
 Alpha  occ. eigenvalues --   -0.60042  -0.58973  -0.58407  -0.56035  -0.54436
 Alpha  occ. eigenvalues --   -0.53414  -0.53188  -0.52671  -0.50690  -0.50544
 Alpha  occ. eigenvalues --   -0.49029  -0.48050  -0.45833  -0.45469  -0.44735
 Alpha  occ. eigenvalues --   -0.43808  -0.42959  -0.42024  -0.39824  -0.37638
 Alpha  occ. eigenvalues --   -0.36401  -0.31969  -0.31654  -0.27926
 Alpha virt. eigenvalues --   -0.01905   0.05305   0.06843   0.07095   0.07245
 Alpha virt. eigenvalues --    0.11344   0.13396   0.15138   0.16079   0.17881
 Alpha virt. eigenvalues --    0.18487   0.20507   0.21631   0.22279   0.22835

 Mulliken charges:
               1
     1  C    0.009544
     2  C   -0.212338
     3  C    0.210201
     4  C   -0.015630
     5  C    0.008349
     6  C   -0.009667
     7  H    0.017861
     8  H    0.013613
     9  H    0.017259
    10  H    0.019753
    11  N   -0.339189
    12  S    0.142986
    13  C   -0.074372
    14  C   -0.019010
    15  C    0.073183
    16  C   -0.008174
    17  H    0.016556
    18  C    0.019241
    19  C    0.020113
    20  H    0.012512
    21  H    0.020575
    22  H    0.023145
    23  C    0.072214
    24  O   -0.179357
    25  H    0.160629
 Sum of Mulliken charges =  -0.00000

 Dipole moment (field-independent basis, Debye):
    X=             -0.5569    Y=             -1.4901    Z=              0.0000  Tot=              1.5908
 Quadrupole moment (field-independent basis, Debye-Ang):
   XX=            -83.0967   YY=            -88.9210   ZZ=           -104.5117
   XY=             -6.7056   XZ=             -0.0001   YZ=              0.0002

  Exact polarizability:     408.483    -201.073     401.717      -0.003       0.003      63.523
 Approx polarizability:     281.620     -37.654     264.283      -0.001       0.002      82.453

                      1                      2                      3
                      A                      A                      A
 Frequencies --     31.7903                75.4885               105.2144
 Red. masses --      5.9506                 5.3823                 5.6582
 Frc consts  --      0.0035                 0.0181                 0.0369
 IR Inten    --      1.0844                 0.0107                 1.8022

                      4                      5                      6
                      A                      A                      A
 Frequencies --    109.0377               183.9325               224.7031
 Red. masses --      4.8707                 6.8804                 5.4970
 Frc consts  --      0.0341                 0.1371                 0.1635
 IR Inten    --      0.4148                 0.9698                 0.0071

                      7                      8                      9
                      A                      A                      A
 Frequencies --    256.1407               268.4402               282.0573
 Red. masses --      8.2545                 4.8116                 6.5252
 Frc consts  --      0.3191                 0.2043                 0.3059
 IR Inten    --     13.2234                 0.1201                15.1757

                     10                     11                     12
                      A                      A                      A
 Frequencies --    393.3667               396.7822               439.1451
 Red. masses --      8.6213                 4.5848                 3.3241
 Frc consts  --      0.7860                 0.4253                 0.3777
 IR Inten    --     12.9983                 0.0889                 4.1550

                     13                     14                     15
                      A                      A                      A
 Frequencies --    488.0451               494.7772               499.2978
 Red. masses --      5.0957                 4.3824                 8.0803
 Frc consts  --      0.7151                 0.6321                 1.1868
 IR Inten    --     21.3910                 0.0609                 1.5950

                     16                     17                     18
                      A                      A                      A
 Frequencies --    509.4894               523.4088               547.1288
 Red. masses --      3.1400                 8.1097                 3.9424
 Frc consts  --      0.4802                 1.3090                 0.6953
 IR Inten    --      0.4362                21.0219                 0.4997

                     19                     20                     21
                      A                      A                      A
 Frequencies --    577.8004               641.9337               654.7507
 Red. masses --      7.7473                 6.6969                 9.1640
 Frc consts  --      1.5239                 1.6259                 2.3146
 IR Inten    --     73.9102                26.9319                38.2312

                     22                     23                     24
                      A                      A                      A
 Frequencies --    705.2620               714.7841               734.2829
 Red. masses --      6.6692                 1.5595                 1.8879
 Frc consts  --      1.9545                 0.4695                 0.5997
 IR Inten    --      9.8940                84.7437                37.8013

                     25                     26                     27
                      A                      A                      A
 Frequencies --    744.0836               770.2245               774.7648
 Red. masses --      1.8303                 1.4019                 1.8264
 Frc consts  --      0.5971                 0.4900                 0.6459
 IR Inten    --     24.5727                 1.2594                87.6427

                     28                     29                     30
                      A                      A                      A
 Frequencies --    802.3709               827.6526               860.8354
 Red. masses --      6.6770                 1.5126                 1.4291
 Frc consts  --      2.5327                 0.6105                 0.6240
 IR Inten    --     21.6531                 0.1543                 1.5095

                     31                     32                     33
                      A                      A                      A
 Frequencies --    882.2591               927.5715               942.7203
 Red. masses --      6.3515                 1.3428                 7.1882
 Frc consts  --      2.9129                 0.6807                 3.7639
 IR Inten    --     59.0814                 2.6128                 6.9118

                     34                     35                     36
                      A                      A                      A
 Frequencies --    955.4437               971.4807              1000.4546
 Red. masses --      1.3410                 1.3380                 1.3018
 Frc consts  --      0.7212                 0.7440                 0.7677
 IR Inten    --      2.0304                 0.0091                 0.0054

                     37                     38                     39
                      A                      A                      A
 Frequencies --   1037.1147              1043.6810              1072.4329
 Red. masses --      2.1257                 2.2472                 5.2162
 Frc consts  --      1.3471                 1.4422                 3.5346
 IR Inten    --      1.2413                 4.8858                29.0466

                     40                     41                     42
                      A                      A                      A
 Frequencies --   1136.0060              1148.5226              1176.5124
 Red. masses --      1.5249                 1.3003                 1.1894
 Frc consts  --      1.1594                 1.0106                 0.9700
 IR Inten    --     33.0596                15.9937                34.8077

                     43                     44                     45
                      A                      A                      A
 Frequencies --   1181.0295              1209.7255              1231.9748
 Red. masses --      1.1859                 5.9263                 1.4484
 Frc consts  --      0.9746                 5.1098                 1.2952
 IR Inten    --      7.8980                81.5030               158.2439

                     46                     47                     48
                      A                      A                      A
 Frequencies --   1275.9764              1284.4314              1355.9051
 Red. masses --      1.6451                 2.6041                 2.8634
 Frc consts  --      1.5780                 2.5312                 3.1017
 IR Inten    --      3.9793               222.9919                98.6381

                     49                     50                     51
                      A                      A                      A
 Frequencies --   1368.8141              1400.4968              1425.6179
 Red. masses --      5.2960                 1.8981                 2.4489
 Frc consts  --      5.8464                 2.1935                 2.9324
 IR Inten    --     18.7134                76.8326               276.3440

                     52                     53                     54
                      A                      A                      A
 Frequencies --   1468.7631              1472.8904              1517.3058
 Red. masses --      1.9424                 3.2998                 5.8179
 Frc consts  --      2.4688                 4.2178                 7.8915
 IR Inten    --    105.9063                45.9157                53.1442

                     55                     56                     57
                      A                      A                      A
 Frequencies --   1537.9690              1557.8348              1575.2509
 Red. masses --      4.5518                 5.2973                 4.0287
 Frc consts  --      6.3436                 7.5744                 5.8899
 IR Inten    --     19.0721               428.9595               101.9398

                     58                     59                     60
                      A                      A                      A
 Frequencies --   1594.6698              1636.7562              1650.7643
 Red. masses --      5.4230                 5.4313                 5.8629
 Frc consts  --      8.1252                 8.5727                 9.4132
 IR Inten    --    149.5056               348.8196               228.8487

                     61                     62                     63
                      A                      A                      A
 Frequencies --   3206.7875              3208.2004              3218.5304
 Red. masses --      1.0864                 1.0862                 1.0899
 Frc consts  --      6.5824                 6.5867                 6.6520
 IR Inten    --      3.7835                 8.1637                 4.1777

                     64                     65                     66
                      A                      A                      A
 Frequencies --   3219.9036              3227.7270              3230.7717
 Red. masses --      1.0890                 1.0941                 1.0955
 Frc consts  --      6.6521                 6.7160                 6.7371
 IR Inten    --      0.6452                16.4585                14.9562

                     67                     68                     69
                      A                      A                      A
 Frequencies --   3237.1968              3240.2931              3449.3797
 Red. masses --      1.0989                 1.0990                 1.0686
 Frc consts  --      6.7852                 6.7983                 7.4908
 IR Inten    --     40.0028                27.1942                 2.3700

 - Thermochemistry -
 -------------------
 Temperature   298.150 Kelvin.  Pressure   1.00000 Atm.
 Atom     1 has atomic number  6 and mass  12.00000

 Molecular mass:   227.04049 amu.
 Principal axes and moments of inertia in atomic units:
                           1         2         3
     Eigenvalues --  1356.701276394.545107751.24637
           X           -0.69337   0.72058   0.00000
           Y            0.72058   0.69337  -0.00001
           Z            0.00001   0.00000   1.00000
 This molecule is an asymmetric top.
 Rotational symmetry number  1.
 Warning -- assumption of classical behavior for rotation
           may cause significant error
 Rotational temperatures (Kelvin)      0.06384     0.01354     0.01117
 Rotational constants (GHZ):           1.33024     0.28223     0.23283
 Zero-point vibrational energy     489967.4 (Joules/Mol)
                                  117.10503 (Kcal/Mol)
 Warning -- explicit consideration of  19 degrees of freedom as
           vibrations may cause significant error
 Vibrational temperatures:     45.74   108.61   151.38   156.88   264.64
          (Kelvin)            323.30   368.53   386.23   405.82   565.97
                              570.88   631.83   702.19   711.87   718.38
                              733.04   753.07   787.20   831.33   923.60
                              942.04  1014.71  1028.41  1056.47  1070.57
                             1108.18  1114.71  1154.43  1190.81  1238.55
                             1269.37  1334.57  1356.36  1374.67  1397.74
                             1439.43  1492.18  1501.62  1542.99  1634.46
                             1652.47  1692.74  1699.24  1740.53  1772.54
                             1835.85  1848.01  1950.84  1969.42  2015.00
                             2051.15  2113.22  2119.16  2183.06  2212.79
                             2241.38  2266.43  2294.37  2354.93  2375.08
                             4613.85  4615.88  4630.75  4632.72  4643.98
                             4648.36  4657.60  4662.06  4962.89

 Zero-point correction=                           0.186619 (Hartree/Particle)
 Thermal correction to Energy=                    0.199051
 Thermal correction to Enthalpy=                  0.199995
 Thermal correction to Gibbs Free Energy=         0.147012
 Sum of electronic and zero-point Energies=          -1028.502130
 Sum of electronic and thermal Energies=             -1028.489698
 Sum of electronic and thermal Enthalpies=           -1028.488753
 Sum of electronic and thermal Free Energies=        -1028.541737

                     E (Thermal)             CV                S
                      KCal/Mol        Cal/Mol-Kelvin    Cal/Mol-Kelvin
 Total                  124.907             49.898            111.512
 Electronic               0.000              0.000              0.000
 Translational            0.889              2.981             42.162
 Rotational               0.889              2.981             32.575
 Vibrational            123.129             43.937             36.775
 Vibration     1          0.594              1.983              5.714
 Vibration     2          0.599              1.965              4.005
 Vibration     3          0.605              1.945              3.355
 Vibration     4          0.606              1.942              3.286
 Vibration     5          0.631              1.862              2.288
 Vibration     6          0.649              1.803              1.921
 Vibration     7          0.666              1.752              1.688
 Vibration     8          0.673              1.731              1.606
 Vibration     9          0.681              1.707              1.521
 Vibration    10          0.761              1.484              0.987
 Vibration    11          0.763              1.477              0.975
 Vibration    12          0.799              1.385              0.829
 Vibration    13          0.844              1.277              0.689
 Vibration    14          0.850              1.262              0.671
 Vibration    15          0.855              1.252              0.660
 Vibration    16          0.865              1.229              0.635
 Vibration    17          0.878              1.198              0.602
 Vibration    18          0.902              1.146              0.550
 Vibration    19          0.934              1.079              0.489

 Optimization completed.
    -- Stationary point found.
 Normal termination of Gaussian 16 at Mon Jul 13 20:36:33 2020.
