 Gaussian 16, Revision C.01,
 Gaussian 16:  ES64L-G16RevC.01  3-Jul-2019

 ----------------------------------------------------------------------
 #p opt=addgic freq td wb97xd/cc-pvdz nosymm int=ultrafine scrf=(solven
 t=CarbonTetraChloride)
 ----------------------------------------------------------------------

 ------------------------------------------------
 NM 2D-scan of HBT TD-WB97XD pVDZ in CTC Relaxed.
 ------------------------------------------------
 Symbolic Z-matrix:
 Charge =  0 Multiplicity = 1

 SCF Done:  E(RwB97XD) =  -1028.77565470     A.U. after   16 cycles
 Total Energy, E(TD-HF/TD-DFT) =  -1028.66795182
 SCF Done:  E(RwB97XD) =  -1028.79802784     A.U. after   13 cycles
 Total Energy, E(TD-HF/TD-DFT) =  -1028.69587795
 SCF Done:  E(RwB97XD) =  -1028.80373941     A.U. after   13 cycles
 Total Energy, E(TD-HF/TD-DFT) =  -1028.69846200
 SCF Done:  E(RwB97XD) =  -1028.80334970     A.U. after   12 cycles
 Total Energy, E(TD-HF/TD-DFT) =  -1028.69910757
 SCF Done:  E(RwB97XD) =  -1028.80344170     A.U. after   10 cycles
 Total Energy, E(TD-HF/TD-DFT) =  -1028.69912635
 Optimization completed.
    -- Stationary point found.
 Normal termination of Gaussian 16 at Mon Jul 13 17:04:26 2020.

 ----------------------------------------------------------------------
 #P Geom=AllCheck Guess=TCheck SCRF=Check GenChk RwB97XD TD(FC,Read)/CC
 -pVDZ Freq
 ----------------------------------------------------------------------

 Structure from the checkpoint file:  "config_10_8.chk"
 ------------------------------------------------
 NM 2D-scan of HBT TD-WB97XD pVDZ in CTC Relaxed.
 ------------------------------------------------
 Charge =  0 Multiplicity = 1

                          Input orientation:
 ---------------------------------------------------------------------
 Center     Atomic      Atomic             Coordinates (Angstroms)
 Number     Number       Type             X           Y           Z
 ---------------------------------------------------------------------
      1          6           0        1.682325   -3.289279   -0.000003
      2          6           0        1.013553   -2.069079   -0.000010
      3          6           0        1.734512   -0.863428   -0.000029
      4          6           0        3.135865   -0.852312   -0.000039
      5          6           0        3.792872   -2.075371   -0.000031
      6          6           0        3.078864   -3.281373   -0.000015
      7          1           0        1.131308   -4.230126    0.000011
      8          1           0        3.679831    0.092568   -0.000051
      9          1           0        4.883734   -2.095454   -0.000038
     10          1           0        3.618155   -4.229181   -0.000010
     11          7           0        0.910117    0.214799   -0.000037
     12         16           0       -0.727385   -1.739105    0.000004
     13          6           0       -1.391672    1.067431    0.000004
     14          6           0       -2.763836    0.861227   -0.000018
     15          6           0       -0.881531    2.465867    0.000048
     16          6           0       -3.685127    1.946013    0.000013
     17          1           0       -3.159479   -0.157731   -0.000061
     18          6           0       -1.856673    3.513422    0.000073
     19          6           0       -3.233769    3.261853    0.000061
     20          1           0       -4.753937    1.727179   -0.000001
     21          1           0       -1.463949    4.531861    0.000111
     22          1           0       -3.945387    4.088668    0.000085
     23          6           0       -0.432198   -0.007269   -0.000014
     24          8           0        0.354052    2.708936    0.000058
     25          1           0        1.218976    1.188162   -0.000028
 ---------------------------------------------------------------------

 SCF Done:  E(RwB97XD) =  -1028.80344170     A.U. after    1 cycles

 Excitation energies and oscillator strengths:

 Excited state symmetry could not be determined.
 Excited State   1:      Singlet-?Sym    2.8386 eV  436.78 nm  f=0.4370  <S**2>=0.000
      59 -> 60         0.69658
 This state for optimization and/or second-order correction.
 Total Energy, E(TD-HF/TD-DFT) =  -1028.69912636
 Copying the excited state density for this state as the 1-particle RhoCI density.

 Excited state symmetry could not be determined.
 Excited State   2:      Singlet-?Sym    3.5869 eV  345.66 nm  f=0.0000  <S**2>=0.000
      57 -> 60         0.68349
      57 -> 62         0.11745
      57 -> 64         0.11304

 Excited state symmetry could not be determined.
 Excited State   3:      Singlet-?Sym    4.3262 eV  286.59 nm  f=0.4490  <S**2>=0.000
      58 -> 60         0.68117

 Alpha  occ. eigenvalues --  -89.10680 -19.20924 -14.52308 -10.42298 -10.37361
 Alpha  occ. eigenvalues --  -10.36327 -10.35818 -10.33534 -10.33080 -10.32696
 Alpha  occ. eigenvalues --  -10.32479 -10.31478 -10.31199 -10.30668 -10.29132
 Alpha  occ. eigenvalues --  -10.28253  -8.12636  -6.07518  -6.07139  -6.06655
 Alpha  occ. eigenvalues --   -1.13188  -1.09381  -0.98472  -0.95235  -0.93250
 Alpha  occ. eigenvalues --   -0.89167  -0.86638  -0.84043  -0.80982  -0.76024
 Alpha  occ. eigenvalues --   -0.73541  -0.71961  -0.69053  -0.67585  -0.65021
 Alpha  occ. eigenvalues --   -0.61005  -0.59773  -0.56620  -0.56066  -0.55751
 Alpha  occ. eigenvalues --   -0.55018  -0.53677  -0.53098  -0.50728  -0.48954
 Alpha  occ. eigenvalues --   -0.48751  -0.48331  -0.46984  -0.45527  -0.44827
 Alpha  occ. eigenvalues --   -0.44312  -0.42918  -0.42138  -0.40138  -0.36882
 Alpha  occ. eigenvalues --   -0.33728  -0.31501  -0.31497  -0.25734
 Alpha virt. eigenvalues --   -0.02130   0.03646   0.05846   0.06374   0.09395
 Alpha virt. eigenvalues --    0.10712   0.12710   0.14567   0.16103   0.17148
 Alpha virt. eigenvalues --    0.18614   0.19989   0.20930   0.21319   0.22961

 Mulliken charges:
               1
     1  C    0.014993
     2  C   -0.246636
     3  C    0.252394
     4  C   -0.009878
     5  C    0.013751
     6  C    0.001040
     7  H    0.026476
     8  H    0.032735
     9  H    0.028311
    10  H    0.027290
    11  N   -0.109906
    12  S    0.200287
    13  C   -0.100535
    14  C   -0.027221
    15  C    0.115571
    16  C   -0.037803
    17  H    0.003544
    18  C   -0.033555
    19  C    0.033896
    20  H    0.001845
    21  H    0.000423
    22  H    0.014069
    23  C    0.066773
    24  O   -0.401277
    25  H    0.133412
 Sum of Mulliken charges =  -0.00000

 Dipole moment (field-independent basis, Debye):
    X=              2.0492    Y=             -5.7476    Z=             -0.0001  Tot=              6.1020
 Quadrupole moment (field-independent basis, Debye-Ang):
   XX=            -82.1548   YY=            -95.7003   ZZ=           -104.2201
   XY=             -6.4965   XZ=             -0.0002   YZ=             -0.0002

  Exact polarizability:     348.724    -121.894     297.092      -0.002       0.002      63.295
 Approx polarizability:     274.740     -38.152     265.698      -0.001       0.002      82.065

 ******    1 imaginary frequencies (negative Signs) ******

                      1                      2                      3
                      A                      A                      A
 Frequencies --    -62.1524                44.5041               108.1128
 Red. masses --      6.3234                 6.4807                 5.0374
 Frc consts  --      0.0144                 0.0076                 0.0347
 IR Inten    --      1.6320                 1.6912                 0.2493

                      4                      5                      6
                      A                      A                      A
 Frequencies --    112.2062               176.0307               225.7690
 Red. masses --      5.7411                 5.3187                 5.4568
 Frc consts  --      0.0426                 0.0971                 0.1639
 IR Inten    --      8.0830                 0.0660                 0.3092

                      7                      8                      9
                      A                      A                      A
 Frequencies --    264.6721               271.6982               311.2612
 Red. masses --      7.6679                 4.6039                 7.5662
 Frc consts  --      0.3165                 0.2002                 0.4319
 IR Inten    --      1.4114                 0.9239                 4.1725

                     10                     11                     12
                      A                      A                      A
 Frequencies --    349.8673               382.6421               430.7672
 Red. masses --      4.7410                 8.3159                 3.4546
 Frc consts  --      0.3419                 0.7174                 0.3777
 IR Inten    --      0.9682                 6.5630                 3.8485

                     13                     14                     15
                      A                      A                      A
 Frequencies --    450.8996               501.2203               510.4231
 Red. masses --      4.5429                 8.3704                 3.2049
 Frc consts  --      0.5442                 1.2389                 0.4920
 IR Inten    --      3.2210                10.1193                 0.4656

                     16                     17                     18
                      A                      A                      A
 Frequencies --    540.2412               556.8744               557.6670
 Red. masses --      8.7152                 3.8100                 6.7450
 Frc consts  --      1.4987                 0.6961                 1.2359
 IR Inten    --      9.8604                 1.0682                36.9846

                     19                     20                     21
                      A                      A                      A
 Frequencies --    568.1430               638.2818               688.9778
 Red. masses --      7.3330                 6.1288                 1.5507
 Frc consts  --      1.3946                 1.4711                 0.4337
 IR Inten    --     13.5753                46.3594                41.5307

                     22                     23                     24
                      A                      A                      A
 Frequencies --    704.8590               730.3532               743.1991
 Red. masses --      6.2131                 8.1030                 2.4998
 Frc consts  --      1.8187                 2.5466                 0.8135
 IR Inten    --      1.8334                 3.7960                11.9824

                     25                     26                     27
                      A                      A                      A
 Frequencies --    760.7100               766.5932               797.0589
 Red. masses --      1.7076                 1.5986                 1.1334
 Frc consts  --      0.5822                 0.5535                 0.4242
 IR Inten    --      6.6026                43.7519               103.7009

                     28                     29                     30
                      A                      A                      A
 Frequencies --    815.1157               840.7394               866.7124
 Red. masses --      6.3980                 1.8071                 1.3802
 Frc consts  --      2.5046                 0.7526                 0.6109
 IR Inten    --     18.1256                 1.7651                 2.6508

                     31                     32                     33
                      A                      A                      A
 Frequencies --    885.6051               905.2991               953.4995
 Red. masses --      4.8440                 1.4273                 1.3626
 Frc consts  --      2.2384                 0.6892                 0.7299
 IR Inten    --      2.8220                 9.1408                 0.8873

                     34                     35                     36
                      A                      A                      A
 Frequencies --    958.0693               958.2160              1004.6111
 Red. masses --      5.2651                 1.3485                 1.2945
 Frc consts  --      2.8474                 0.7295                 0.7697
 IR Inten    --      0.9935                 1.6787                 0.0085

                     37                     38                     39
                      A                      A                      A
 Frequencies --   1045.9453              1052.8982              1082.8618
 Red. masses --      2.2058                 2.1360                 4.1930
 Frc consts  --      1.4218                 1.3952                 2.8968
 IR Inten    --      0.2842                 7.9413                 1.5494

                     40                     41                     42
                      A                      A                      A
 Frequencies --   1107.2014              1151.0760              1159.7067
 Red. masses --      1.6029                 1.3191                 1.1878
 Frc consts  --      1.1577                 1.0297                 0.9413
 IR Inten    --     40.5790                 6.3954                70.8876

                     43                     44                     45
                      A                      A                      A
 Frequencies --   1180.5316              1207.1012              1249.8707
 Red. masses --      1.1435                 1.7175                 2.2392
 Frc consts  --      0.9389                 1.4744                 2.0610
 IR Inten    --     32.7031                81.2535                29.1556

                     46                     47                     48
                      A                      A                      A
 Frequencies --   1278.4555              1297.5695              1338.2549
 Red. masses --      1.9015                 1.8033                 5.0536
 Frc consts  --      1.8312                 1.7889                 5.3325
 IR Inten    --    103.2575                 2.9804                19.7995

                     49                     50                     51
                      A                      A                      A
 Frequencies --   1369.1457              1395.6600              1398.8549
 Red. masses --      3.4295                 2.3548                 3.4974
 Frc consts  --      3.7877                 2.7025                 4.0322
 IR Inten    --    102.1377                30.5414                23.3933

                     52                     53                     54
                      A                      A                      A
 Frequencies --   1440.5070              1477.6589              1512.1203
 Red. masses --      3.0661                 2.9185                 2.9884
 Frc consts  --      3.7486                 3.7546                 4.0259
 IR Inten    --    239.3082                 3.4449                30.5697

                     55                     56                     57
                      A                      A                      A
 Frequencies --   1527.9158              1564.7337              1590.1165
 Red. masses --      3.9273                 5.3125                 4.8950
 Frc consts  --      5.4018                 7.6636                 7.2923
 IR Inten    --     53.4024               200.2060               100.1757

                     58                     59                     60
                      A                      A                      A
 Frequencies --   1627.0619              1658.3065              1671.3711
 Red. masses --      6.9975                 6.6710                 6.8776
 Frc consts  --     10.9145                10.8087                11.3197
 IR Inten    --    164.5916                 7.8557               178.6870

                     61                     62                     63
                      A                      A                      A
 Frequencies --   3189.7620              3209.1556              3213.3356
 Red. masses --      1.0891                 1.0862                 1.0864
 Frc consts  --      6.5286                 6.5910                 6.6092
 IR Inten    --     21.6373                 2.2486                 5.4207

                     64                     65                     66
                      A                      A                      A
 Frequencies --   3220.9549              3224.3340              3233.6519
 Red. masses --      1.0918                 1.0903                 1.0963
 Frc consts  --      6.6739                 6.6785                 6.7541
 IR Inten    --     13.4901                 3.0365                 8.9913

                     67                     68                     69
                      A                      A                      A
 Frequencies --   3233.7237              3240.7953              3448.6171
 Red. masses --      1.0985                 1.0996                 1.0838
 Frc consts  --      6.7681                 6.8042                 7.5940
 IR Inten    --     25.9189                13.0310               724.0792

 - Thermochemistry -
 -------------------
 Temperature   298.150 Kelvin.  Pressure   1.00000 Atm.
 Atom     1 has atomic number  6 and mass  12.00000

 Molecular mass:   227.04049 amu.
 Principal axes and moments of inertia in atomic units:
                           1         2         3
     Eigenvalues --  1300.581456454.701547755.28299
           X           -0.70322   0.71098   0.00000
           Y            0.71098   0.70322  -0.00001
           Z            0.00001   0.00001   1.00000
 This molecule is an asymmetric top.
 Rotational symmetry number  1.
 Warning -- assumption of classical behavior for rotation
           may cause significant error
 Rotational temperatures (Kelvin)      0.06660     0.01342     0.01117
 Rotational constants (GHZ):           1.38764     0.27960     0.23271
    1 imaginary frequencies ignored.
 Zero-point vibrational energy     490350.2 (Joules/Mol)
                                  117.19652 (Kcal/Mol)
 Warning -- explicit consideration of  18 degrees of freedom as
           vibrations may cause significant error
 Vibrational temperatures:     64.03   155.55   161.44   253.27   324.83
          (Kelvin)            380.80   390.91   447.84   503.38   550.54
                              619.78   648.74   721.14   734.38   777.29
                              801.22   802.36   817.43   918.35   991.29
                             1014.13  1050.82  1069.30  1094.49  1102.96
                             1146.79  1172.77  1209.64  1247.01  1274.19
                             1302.52  1371.87  1378.45  1378.66  1445.41
                             1504.88  1514.89  1558.00  1593.02  1656.14
                             1668.56  1698.52  1736.75  1798.29  1839.41
                             1866.91  1925.45  1969.90  2008.04  2012.64
                             2072.57  2126.02  2175.60  2198.33  2251.30
                             2287.82  2340.98  2385.93  2404.73  4589.36
                             4617.26  4623.27  4634.24  4639.10  4652.50
                             4652.61  4662.78  4961.79

 Zero-point correction=                           0.186765 (Hartree/Particle)
 Thermal correction to Energy=                    0.198336
 Thermal correction to Enthalpy=                  0.199280
 Thermal correction to Gibbs Free Energy=         0.148634
 Sum of electronic and zero-point Energies=          -1028.512362
 Sum of electronic and thermal Energies=             -1028.500791
 Sum of electronic and thermal Enthalpies=           -1028.499847
 Sum of electronic and thermal Free Energies=        -1028.550493

                     E (Thermal)             CV                S
                      KCal/Mol        Cal/Mol-Kelvin    Cal/Mol-Kelvin
 Total                  124.457             47.704            106.593
 Electronic               0.000              0.000              0.000
 Translational            0.889              2.981             42.162
 Rotational               0.889              2.981             32.543
 Vibrational            122.680             41.742             31.888
 Vibration     1          0.595              1.980              5.048
 Vibration     2          0.606              1.943              3.303
 Vibration     3          0.607              1.939              3.230
 Vibration     4          0.628              1.872              2.370
 Vibration     5          0.650              1.802              1.912
 Vibration     6          0.671              1.738              1.631
 Vibration     7          0.675              1.725              1.585
 Vibration     8          0.700              1.652              1.356
 Vibration     9          0.727              1.576              1.167
 Vibration    10          0.752              1.507              1.029
 Vibration    11          0.792              1.403              0.856
 Vibration    12          0.810              1.359              0.793
 Vibration    13          0.857              1.247              0.655
 Vibration    14          0.866              1.227              0.633
 Vibration    15          0.895              1.161              0.565
 Vibration    16          0.912              1.125              0.530
 Vibration    17          0.913              1.123              0.529
 Vibration    18          0.924              1.100              0.508

 Optimization completed.
    -- Stationary point found.
 Normal termination of Gaussian 16 at Mon Jul 13 17:22:12 2020.
