 Gaussian 16, Revision C.01,
 Gaussian 16:  ES64L-G16RevC.01  3-Jul-2019

 ----------------------------------------------------------------------
 #p opt=addgic freq td wb97xd/cc-pvdz nosymm int=ultrafine scrf=(solven
 t=CarbonTetraChloride)
 ----------------------------------------------------------------------

 ------------------------------------------------
 NM 2D-scan of HBT TD-WB97XD pVDZ in CTC Relaxed.
 ------------------------------------------------
 Symbolic Z-matrix:
 Charge =  0 Multiplicity = 1

 SCF Done:  E(RwB97XD) =  -1028.79019930     A.U. after   15 cycles
 Total Energy, E(TD-HF/TD-DFT) =  -1028.65997155
 SCF Done:  E(RwB97XD) =  -1028.81564812     A.U. after   13 cycles
 Total Energy, E(TD-HF/TD-DFT) =  -1028.68645853
 SCF Done:  E(RwB97XD) =  -1028.81671475     A.U. after   12 cycles
 Total Energy, E(TD-HF/TD-DFT) =  -1028.68809375
 SCF Done:  E(RwB97XD) =  -1028.81669450     A.U. after   11 cycles
 Total Energy, E(TD-HF/TD-DFT) =  -1028.68820043
 SCF Done:  E(RwB97XD) =  -1028.81652955     A.U. after   10 cycles
 Total Energy, E(TD-HF/TD-DFT) =  -1028.68824530
 SCF Done:  E(RwB97XD) =  -1028.81661025     A.U. after    9 cycles
 Total Energy, E(TD-HF/TD-DFT) =  -1028.68824938
 SCF Done:  E(RwB97XD) =  -1028.81663244     A.U. after    7 cycles
 Total Energy, E(TD-HF/TD-DFT) =  -1028.68824957
 SCF Done:  E(RwB97XD) =  -1028.81664500     A.U. after    7 cycles
 Total Energy, E(TD-HF/TD-DFT) =  -1028.68824957
 Optimization completed.
    -- Stationary point found.
 Normal termination of Gaussian 16 at Tue Jul 14 16:55:44 2020.

 ----------------------------------------------------------------------
 #P Geom=AllCheck Guess=TCheck SCRF=Check GenChk RwB97XD TD(FC,Read)/CC
 -pVDZ Freq
 ----------------------------------------------------------------------

 Structure from the checkpoint file:  "config_2_20.chk"
 ------------------------------------------------
 NM 2D-scan of HBT TD-WB97XD pVDZ in CTC Relaxed.
 ------------------------------------------------
 Charge =  0 Multiplicity = 1

                          Input orientation:
 ---------------------------------------------------------------------
 Center     Atomic      Atomic             Coordinates (Angstroms)
 Number     Number       Type             X           Y           Z
 ---------------------------------------------------------------------
      1          6           0        1.495231   -3.268021   -0.000098
      2          6           0        0.982070   -1.975091   -0.000094
      3          6           0        1.801107   -0.792657    0.000019
      4          6           0        3.210611   -0.996532    0.000130
      5          6           0        3.711358   -2.288927    0.000125
      6          6           0        2.873545   -3.426400    0.000012
      7          1           0        0.824170   -4.127772   -0.000182
      8          1           0        3.879820   -0.135431    0.000217
      9          1           0        4.793387   -2.434252    0.000211
     10          1           0        3.310185   -4.425861    0.000015
     11          7           0        1.115219    0.375263   -0.000004
     12         16           0       -0.693973   -1.558467   -0.000204
     13          6           0       -1.263706    1.096814   -0.000084
     14          6           0       -2.634153    0.709988    0.000007
     15          6           0       -0.948857    2.521571   -0.000053
     16          6           0       -3.634705    1.662742    0.000129
     17          1           0       -2.896686   -0.347858    0.000014
     18          6           0       -1.987949    3.464011    0.000102
     19          6           0       -3.318863    3.039928    0.000186
     20          1           0       -4.679137    1.347293    0.000205
     21          1           0       -1.727992    4.522935    0.000121
     22          1           0       -4.121376    3.778574    0.000290
     23          6           0       -0.232263    0.146727   -0.000123
     24          8           0        0.317412    2.880541   -0.000245
     25          1           0        0.893895    2.040960   -0.000568
 ---------------------------------------------------------------------

 SCF Done:  E(RwB97XD) =  -1028.81664500     A.U. after    1 cycles

 Excitation energies and oscillator strengths:

 Excited state symmetry could not be determined.
 Excited State   1:      Singlet-?Sym    3.4938 eV  354.87 nm  f=0.6968  <S**2>=0.000
      59 -> 60         0.68868
 This state for optimization and/or second-order correction.
 Total Energy, E(TD-HF/TD-DFT) =  -1028.68824952
 Copying the excited state density for this state as the 1-particle RhoCI density.

 Excited state symmetry could not be determined.
 Excited State   2:      Singlet-?Sym    4.3705 eV  283.68 nm  f=0.0981  <S**2>=0.000
      57 -> 60         0.44984
      58 -> 60         0.48457
      59 -> 62         0.12124

 Excited state symmetry could not be determined.
 Excited State   3:      Singlet-?Sym    4.5789 eV  270.77 nm  f=0.1286  <S**2>=0.000
      57 -> 60         0.45533
      57 -> 62        -0.11218
      58 -> 60        -0.43978
      59 -> 61         0.18623

 Alpha  occ. eigenvalues --  -89.08494 -19.28839 -14.47469 -10.39528 -10.38236
 Alpha  occ. eigenvalues --  -10.35273 -10.34394 -10.32377 -10.32336 -10.32212
 Alpha  occ. eigenvalues --  -10.31910 -10.31560 -10.31310 -10.31252 -10.30754
 Alpha  occ. eigenvalues --  -10.30649  -8.10595  -6.05423  -6.05086  -6.04662
 Alpha  occ. eigenvalues --   -1.17310  -1.08026  -0.96901  -0.95850  -0.92182
 Alpha  occ. eigenvalues --   -0.88787  -0.85157  -0.84645  -0.82184  -0.75986
 Alpha  occ. eigenvalues --   -0.71448  -0.70283  -0.69167  -0.68063  -0.63727
 Alpha  occ. eigenvalues --   -0.60431  -0.59069  -0.58728  -0.56147  -0.54526
 Alpha  occ. eigenvalues --   -0.53818  -0.53568  -0.52920  -0.50562  -0.50448
 Alpha  occ. eigenvalues --   -0.49238  -0.47462  -0.46001  -0.45664  -0.44844
 Alpha  occ. eigenvalues --   -0.44136  -0.43051  -0.42006  -0.40000  -0.37606
 Alpha  occ. eigenvalues --   -0.36445  -0.31858  -0.31722  -0.28190
 Alpha virt. eigenvalues --   -0.01864   0.05199   0.06821   0.07063   0.08057
 Alpha virt. eigenvalues --    0.11131   0.14441   0.15270   0.17211   0.18016
 Alpha virt. eigenvalues --    0.18664   0.21064   0.21464   0.22353   0.22717

 Mulliken charges:
               1
     1  C    0.022656
     2  C   -0.213767
     3  C    0.204220
     4  C   -0.022350
     5  C    0.003076
     6  C   -0.004050
     7  H    0.016123
     8  H    0.017328
     9  H    0.018412
    10  H    0.019698
    11  N   -0.369312
    12  S    0.154196
    13  C   -0.067736
    14  C   -0.030117
    15  C    0.085221
    16  C   -0.007182
    17  H    0.027958
    18  C    0.003733
    19  C    0.022575
    20  H    0.011905
    21  H    0.020887
    22  H    0.024035
    23  C    0.086324
    24  O   -0.203917
    25  H    0.180083
 Sum of Mulliken charges =  -0.00000

 Dipole moment (field-independent basis, Debye):
    X=             -0.8894    Y=             -2.0604    Z=             -0.0003  Tot=              2.2442
 Quadrupole moment (field-independent basis, Debye-Ang):
   XX=            -83.1397   YY=            -89.5683   ZZ=           -104.2943
   XY=             -7.1208   XZ=             -0.0007   YZ=              0.0003

  Exact polarizability:     396.157    -191.578     385.852      -0.001       0.005      63.295
 Approx polarizability:     277.281     -36.268     259.707       0.001       0.005      82.350

                      1                      2                      3
                      A                      A                      A
 Frequencies --     48.2393                52.9514               108.6823
 Red. masses --      6.2988                 5.0339                 5.6267
 Frc consts  --      0.0086                 0.0083                 0.0392
 IR Inten    --      1.4171                 0.0017                 2.3438

                      4                      5                      6
                      A                      A                      A
 Frequencies --    110.7298               178.7216               225.3490
 Red. masses --      5.2187                 6.5853                 5.2809
 Frc consts  --      0.0377                 0.1239                 0.1580
 IR Inten    --      0.1391                 1.6018                 0.0069

                      7                      8                      9
                      A                      A                      A
 Frequencies --    267.0090               274.6138               296.9889
 Red. masses --      7.7513                 4.8529                 6.6273
 Frc consts  --      0.3256                 0.2156                 0.3444
 IR Inten    --     25.7150                 0.0028                 7.4465

                     10                     11                     12
                      A                      A                      A
 Frequencies --    388.7570               413.9940               442.5755
 Red. masses --      4.4835                 9.5616                 3.2372
 Frc consts  --      0.3992                 0.9655                 0.3736
 IR Inten    --      0.0412                16.1518                 3.7813

                     13                     14                     15
                      A                      A                      A
 Frequencies --    487.8495               502.6656               509.6351
 Red. masses --      4.4570                 8.3501                 3.1481
 Frc consts  --      0.6250                 1.2431                 0.4818
 IR Inten    --      0.2069                 0.9881                 0.0646

                     16                     17                     18
                      A                      A                      A
 Frequencies --    519.8472               528.6165               554.6746
 Red. masses --      5.4707                 7.0075                 3.9419
 Frc consts  --      0.8710                 1.1537                 0.7145
 IR Inten    --      8.3021                61.7271                 0.1725

                     19                     20                     21
                      A                      A                      A
 Frequencies --    575.0340               644.9153               709.3007
 Red. masses --      7.7004                 6.6607                10.5080
 Frc consts  --      1.5002                 1.6322                 3.1148
 IR Inten    --     33.9052                10.2411                60.3798

                     22                     23                     24
                      A                      A                      A
 Frequencies --    719.0642               723.4268               735.4302
 Red. masses --      1.4008                 6.4843                 2.2097
 Frc consts  --      0.4267                 1.9994                 0.7042
 IR Inten    --     77.4505                11.4352                16.0155

                     25                     26                     27
                      A                      A                      A
 Frequencies --    740.4458               770.6573               808.4333
 Red. masses --      1.8032                 2.3561                 1.7913
 Frc consts  --      0.5825                 0.8244                 0.6898
 IR Inten    --     18.2638                45.0321                 6.2862

                     28                     29                     30
                      A                      A                      A
 Frequencies --    824.8410               860.2832               882.3490
 Red. masses --      6.1703                 1.4348                 6.4272
 Frc consts  --      2.4734                 0.6257                 2.9482
 IR Inten    --     18.7829                 1.0168                72.2272

                     31                     32                     33
                      A                      A                      A
 Frequencies --    916.0191               953.2385               965.7543
 Red. masses --      1.3465                 1.3455                 1.3324
 Frc consts  --      0.6657                 0.7203                 0.7322
 IR Inten    --      8.1382                 2.2312                 2.8378

                     34                     35                     36
                      A                      A                      A
 Frequencies --    968.5793               970.8603               998.9211
 Red. masses --      7.4877                 1.0780                 1.3074
 Frc consts  --      4.1388                 0.5987                 0.7687
 IR Inten    --     18.2141                61.7587                 0.0491

                     37                     38                     39
                      A                      A                      A
 Frequencies --   1037.6094              1042.1362              1093.9974
 Red. masses --      2.0933                 2.0928                 3.7863
 Frc consts  --      1.3278                 1.3392                 2.6699
 IR Inten    --      4.5266                 0.8289                64.8342

                     40                     41                     42
                      A                      A                      A
 Frequencies --   1138.1531              1154.8886              1175.4248
 Red. masses --      1.4616                 1.3760                 1.1382
 Frc consts  --      1.1155                 1.0813                 0.9266
 IR Inten    --     59.7019                18.9815                 9.7506

                     43                     44                     45
                      A                      A                      A
 Frequencies --   1180.5038              1209.1351              1239.6973
 Red. masses --      1.2665                 3.6253                 2.0555
 Frc consts  --      1.0399                 3.1228                 1.8612
 IR Inten    --     22.5336                61.1894               117.9230

                     46                     47                     48
                      A                      A                      A
 Frequencies --   1278.0705              1320.7678              1359.2394
 Red. masses --      1.7715                 3.7685                 2.6699
 Frc consts  --      1.7049                 3.8732                 2.9063
 IR Inten    --      1.9452               150.9598                79.1533

                     49                     50                     51
                      A                      A                      A
 Frequencies --   1368.1355              1396.0541              1437.8267
 Red. masses --      4.4420                 2.4064                 2.6944
 Frc consts  --      4.8987                 2.7632                 3.2819
 IR Inten    --     83.8334                11.5628               176.5146

                     52                     53                     54
                      A                      A                      A
 Frequencies --   1468.1658              1493.9032              1528.3157
 Red. masses --      3.5785                 3.3057                 2.9659
 Frc consts  --      4.5447                 4.3466                 4.0817
 IR Inten    --     73.6074                34.1754               240.3020

                     55                     56                     57
                      A                      A                      A
 Frequencies --   1550.0549              1583.8574              1600.0829
 Red. masses --      4.8154                 6.5858                 6.2464
 Frc consts  --      6.8167                 9.7340                 9.4225
 IR Inten    --     87.1069                16.9256               162.5117

                     58                     59                     60
                      A                      A                      A
 Frequencies --   1613.5790              1636.4293              1651.1486
 Red. masses --      4.1581                 3.5974                 1.9679
 Frc consts  --      6.3787                 5.6759                 3.1609
 IR Inten    --   1083.9474               107.1857                50.6184

                     61                     62                     63
                      A                      A                      A
 Frequencies --   2795.0897              3205.0435              3213.9508
 Red. masses --      1.0827                 1.0862                 1.0860
 Frc consts  --      4.9835                 6.5741                 6.6096
 IR Inten    --     48.4664                 8.9660                 3.3924

                     64                     65                     66
                      A                      A                      A
 Frequencies --   3215.2768              3223.5661              3226.4221
 Red. masses --      1.0897                 1.0886                 1.0952
 Frc consts  --      6.6375                 6.6650                 6.7173
 IR Inten    --      1.9313                14.2998                10.7458

                     67                     68                     69
                      A                      A                      A
 Frequencies --   3233.1414              3233.5396              3240.0277
 Red. masses --      1.0947                 1.0993                 1.0985
 Frc consts  --      6.7420                 6.7721                 6.7945
 IR Inten    --      6.6560                41.9845                26.4551

 - Thermochemistry -
 -------------------
 Temperature   298.150 Kelvin.  Pressure   1.00000 Atm.
 Atom     1 has atomic number  6 and mass  12.00000

 Molecular mass:   227.04049 amu.
 Principal axes and moments of inertia in atomic units:
                           1         2         3
     Eigenvalues --  1292.566266324.663757617.22997
           X           -0.70047   0.71368  -0.00001
           Y            0.71368   0.70047  -0.00001
           Z            0.00001   0.00002   1.00000
 This molecule is an asymmetric top.
 Rotational symmetry number  1.
 Warning -- assumption of classical behavior for rotation
           may cause significant error
 Rotational temperatures (Kelvin)      0.06701     0.01369     0.01137
 Rotational constants (GHZ):           1.39625     0.28535     0.23693
 Zero-point vibrational energy     489408.4 (Joules/Mol)
                                  116.97140 (Kcal/Mol)
 Warning -- explicit consideration of  19 degrees of freedom as
           vibrations may cause significant error
 Vibrational temperatures:     69.41    76.19   156.37   159.32   257.14
          (Kelvin)            324.23   384.17   395.11   427.30   559.33
                              595.64   636.77   701.91   723.22   733.25
                              747.94   760.56   798.05   827.35   927.89
                             1020.53  1034.57  1040.85  1058.12  1065.34
                             1108.80  1163.16  1186.76  1237.76  1269.50
                             1317.95  1371.50  1389.51  1393.57  1396.85
                             1437.22  1492.89  1499.40  1574.02  1637.55
                             1661.63  1691.17  1698.48  1739.68  1783.65
                             1838.86  1900.29  1955.64  1968.44  2008.61
                             2068.71  2112.36  2149.39  2198.91  2230.18
                             2278.82  2302.16  2321.58  2354.46  2375.63
                             4021.51  4611.34  4624.16  4626.07  4637.99
                             4642.10  4651.77  4652.34  4661.68

 Zero-point correction=                           0.186406 (Hartree/Particle)
 Thermal correction to Energy=                    0.198677
 Thermal correction to Enthalpy=                  0.199621
 Thermal correction to Gibbs Free Energy=         0.147035
 Sum of electronic and zero-point Energies=          -1028.501844
 Sum of electronic and thermal Energies=             -1028.489573
 Sum of electronic and thermal Enthalpies=           -1028.488629
 Sum of electronic and thermal Free Energies=        -1028.541215

                     E (Thermal)             CV                S
                      KCal/Mol        Cal/Mol-Kelvin    Cal/Mol-Kelvin
 Total                  124.672             49.210            110.677
 Electronic               0.000              0.000              0.000
 Translational            0.889              2.981             42.162
 Rotational               0.889              2.981             32.499
 Vibrational            122.894             43.249             36.016
 Vibration     1          0.595              1.978              4.888
 Vibration     2          0.596              1.976              4.704
 Vibration     3          0.606              1.942              3.292
 Vibration     4          0.607              1.941              3.256
 Vibration     5          0.629              1.868              2.342
 Vibration     6          0.650              1.802              1.916
 Vibration     7          0.672              1.734              1.615
 Vibration     8          0.677              1.720              1.567
 Vibration     9          0.691              1.679              1.434
 Vibration    10          0.757              1.494              1.005
 Vibration    11          0.778              1.440              0.913
 Vibration    12          0.802              1.377              0.819
 Vibration    13          0.844              1.277              0.689
 Vibration    14          0.858              1.244              0.651
 Vibration    15          0.865              1.229              0.634
 Vibration    16          0.875              1.206              0.610
 Vibration    17          0.884              1.187              0.590
 Vibration    18          0.910              1.129              0.535
 Vibration    19          0.931              1.085              0.495

 Optimization completed.
    -- Stationary point found.
 Normal termination of Gaussian 16 at Tue Jul 14 17:13:44 2020.
