 Gaussian 16, Revision C.01,
 Gaussian 16:  ES64L-G16RevC.01  3-Jul-2019

 ----------------------------------------------------------------------
 #p opt=addgic freq td wb97xd/cc-pvdz nosymm int=ultrafine scrf=(solven
 t=CarbonTetraChloride)
 ----------------------------------------------------------------------

 ------------------------------------------------
 NM 2D-scan of HBT TD-WB97XD pVDZ in CTC Relaxed.
 ------------------------------------------------
 Symbolic Z-matrix:
 Charge =  0 Multiplicity = 1

 SCF Done:  E(RwB97XD) =  -1028.80578129     A.U. after   15 cycles
 Total Energy, E(TD-HF/TD-DFT) =  -1028.69354250
 SCF Done:  E(RwB97XD) =  -1028.79916439     A.U. after   14 cycles
 Total Energy, E(TD-HF/TD-DFT) =  -1028.69485588
 SCF Done:  E(RwB97XD) =  -1028.80616006     A.U. after   13 cycles
 Total Energy, E(TD-HF/TD-DFT) =  -1028.69815131
 SCF Done:  E(RwB97XD) =  -1028.80668051     A.U. after   11 cycles
 Total Energy, E(TD-HF/TD-DFT) =  -1028.69820451
 SCF Done:  E(RwB97XD) =  -1028.80672863     A.U. after    9 cycles
 Total Energy, E(TD-HF/TD-DFT) =  -1028.69820676
 SCF Done:  E(RwB97XD) =  -1028.80673569     A.U. after    9 cycles
 Total Energy, E(TD-HF/TD-DFT) =  -1028.69820677
 SCF Done:  E(RwB97XD) =  -1028.80673389     A.U. after    8 cycles
 Total Energy, E(TD-HF/TD-DFT) =  -1028.69820685
 Optimization completed.
    -- Stationary point found.
 Normal termination of Gaussian 16 at Mon Jul 13 16:00:03 2020.

 ----------------------------------------------------------------------
 #P Geom=AllCheck Guess=TCheck SCRF=Check GenChk RwB97XD TD(FC,Read)/CC
 -pVDZ Freq
 ----------------------------------------------------------------------

 Structure from the checkpoint file:  "config_8_12.chk"
 ------------------------------------------------
 NM 2D-scan of HBT TD-WB97XD pVDZ in CTC Relaxed.
 ------------------------------------------------
 Charge =  0 Multiplicity = 1

                          Input orientation:
 ---------------------------------------------------------------------
 Center     Atomic      Atomic             Coordinates (Angstroms)
 Number     Number       Type             X           Y           Z
 ---------------------------------------------------------------------
      1          6           0        1.614654   -3.283273   -0.000025
      2          6           0        0.993755   -2.036077   -0.000016
      3          6           0        1.749029   -0.831929   -0.000013
      4          6           0        3.151790   -0.894270   -0.000019
      5          6           0        3.761028   -2.141109   -0.000028
      6          6           0        3.008063   -3.326426   -0.000031
      7          1           0        1.025215   -4.200944   -0.000027
      8          1           0        3.736971    0.025688   -0.000017
      9          1           0        4.850630   -2.199860   -0.000033
     10          1           0        3.516495   -4.291297   -0.000038
     11          7           0        0.975544    0.294426   -0.000005
     12         16           0       -0.726033   -1.685547   -0.000007
     13          6           0       -1.344056    1.070710    0.000014
     14          6           0       -2.715415    0.801073    0.000013
     15          6           0       -0.898432    2.485560    0.000031
     16          6           0       -3.660681    1.844154    0.000027
     17          1           0       -3.068776   -0.232693    0.000001
     18          6           0       -1.893602    3.497477    0.000041
     19          6           0       -3.253114    3.183444    0.000041
     20          1           0       -4.723008    1.596027    0.000026
     21          1           0       -1.540586    4.529770    0.000053
     22          1           0       -3.997645    3.980359    0.000050
     23          6           0       -0.361180    0.040814   -0.000000
     24          8           0        0.342933    2.784826    0.000033
     25          1           0        1.124519    1.376799    0.000023
 ---------------------------------------------------------------------

 SCF Done:  E(RwB97XD) =  -1028.80673389     A.U. after    1 cycles

 Excitation energies and oscillator strengths:

 Excited state symmetry could not be determined.
 Excited State   1:      Singlet-?Sym    2.9532 eV  419.83 nm  f=0.4435  <S**2>=0.000
      59 -> 60         0.69619
 This state for optimization and/or second-order correction.
 Total Energy, E(TD-HF/TD-DFT) =  -1028.69820687
 Copying the excited state density for this state as the 1-particle RhoCI density.

 Excited state symmetry could not be determined.
 Excited State   2:      Singlet-?Sym    3.8624 eV  321.00 nm  f=0.0000  <S**2>=0.000
      57 -> 60         0.68423
      57 -> 62         0.11538
      57 -> 64         0.11723

 Excited state symmetry could not be determined.
 Excited State   3:      Singlet-?Sym    4.3102 eV  287.65 nm  f=0.3752  <S**2>=0.000
      58 -> 60         0.68045

 Alpha  occ. eigenvalues --  -89.10333 -19.21781 -14.52060 -10.41721 -10.37471
 Alpha  occ. eigenvalues --  -10.36196 -10.36138 -10.33275 -10.32772 -10.32408
 Alpha  occ. eigenvalues --  -10.32284 -10.31643 -10.31149 -10.30996 -10.29375
 Alpha  occ. eigenvalues --  -10.28612  -8.12319  -6.07188  -6.06828  -6.06341
 Alpha  occ. eigenvalues --   -1.12487  -1.09335  -0.98128  -0.95365  -0.93175
 Alpha  occ. eigenvalues --   -0.89093  -0.86497  -0.83744  -0.81516  -0.75906
 Alpha  occ. eigenvalues --   -0.72432  -0.71998  -0.68592  -0.67660  -0.64787
 Alpha  occ. eigenvalues --   -0.60974  -0.59606  -0.56845  -0.55607  -0.55299
 Alpha  occ. eigenvalues --   -0.54871  -0.53784  -0.53045  -0.50616  -0.49309
 Alpha  occ. eigenvalues --   -0.48844  -0.48280  -0.46825  -0.45374  -0.44980
 Alpha  occ. eigenvalues --   -0.44206  -0.43096  -0.42076  -0.40339  -0.36763
 Alpha  occ. eigenvalues --   -0.33461  -0.32486  -0.31357  -0.26282
 Alpha virt. eigenvalues --   -0.02011   0.03882   0.05840   0.06439   0.08992
 Alpha virt. eigenvalues --    0.10624   0.13570   0.14743   0.16244   0.17445
 Alpha virt. eigenvalues --    0.18648   0.20272   0.20838   0.21401   0.22828

 Mulliken charges:
               1
     1  C    0.017844
     2  C   -0.233193
     3  C    0.264797
     4  C   -0.011576
     5  C    0.011010
     6  C    0.000390
     7  H    0.025267
     8  H    0.030202
     9  H    0.026394
    10  H    0.026102
    11  N   -0.182548
    12  S    0.198013
    13  C   -0.098604
    14  C   -0.029365
    15  C    0.120213
    16  C   -0.031794
    17  H    0.009655
    18  C   -0.018185
    19  C    0.031691
    20  H    0.002951
    21  H    0.004045
    22  H    0.015760
    23  C    0.058021
    24  O   -0.416841
    25  H    0.179750
 Sum of Mulliken charges =  -0.00000

 Dipole moment (field-independent basis, Debye):
    X=              1.4239    Y=             -5.3073    Z=             -0.0000  Tot=              5.4949
 Quadrupole moment (field-independent basis, Debye-Ang):
   XX=            -82.3783   YY=            -95.1895   ZZ=           -104.2503
   XY=             -6.7756   XZ=             -0.0001   YZ=              0.0001

  Exact polarizability:     348.377    -124.622     302.331      -0.002       0.002      63.240
 Approx polarizability:     272.998     -35.581     265.431      -0.001       0.002      82.085

                      1                      2                      3
                      A                      A                      A
 Frequencies --     33.7636                58.5799               112.2399
 Red. masses --      6.2591                 5.2718                 5.7042
 Frc consts  --      0.0042                 0.0107                 0.0423
 IR Inten    --      1.5826                 0.8421                18.9864

                      4                      5                      6
                      A                      A                      A
 Frequencies --    115.9781               182.0110               219.5731
 Red. masses --      5.6854                 5.8700                 5.4678
 Frc consts  --      0.0451                 0.1146                 0.1553
 IR Inten    --      0.5516                 0.1246                 0.1788

                      7                      8                      9
                      A                      A                      A
 Frequencies --    260.3280               269.9700               301.4161
 Red. masses --      7.7757                 4.6413                 6.5675
 Frc consts  --      0.3105                 0.1993                 0.3515
 IR Inten    --     11.8020                 0.2117                18.7195

                     10                     11                     12
                      A                      A                      A
 Frequencies --    358.9290               398.3363               435.4744
 Red. masses --      4.9690                 9.4183                 3.3246
 Frc consts  --      0.3772                 0.8805                 0.3715
 IR Inten    --      0.8979                 4.2295                 3.7158

                     13                     14                     15
                      A                      A                      A
 Frequencies --    460.9362               505.7721               506.6587
 Red. masses --      4.6163                 8.8974                 3.1943
 Frc consts  --      0.5779                 1.3410                 0.4831
 IR Inten    --      2.1026                 9.5014                 0.4710

                     16                     17                     18
                      A                      A                      A
 Frequencies --    542.4544               556.1912               558.1339
 Red. masses --      8.6165                 5.8686                 3.8601
 Frc consts  --      1.4939                 1.0696                 0.7085
 IR Inten    --      2.9213                62.1172                 0.4807

                     19                     20                     21
                      A                      A                      A
 Frequencies --    570.1083               619.3334               694.8869
 Red. masses --      7.3334                 5.5234                 1.5590
 Frc consts  --      1.4043                 1.2483                 0.4435
 IR Inten    --     21.1693               111.6100                38.8381

                     22                     23                     24
                      A                      A                      A
 Frequencies --    706.2122               716.6643               742.9071
 Red. masses --      7.8307                 6.0533                 2.7057
 Frc consts  --      2.3010                 1.8318                 0.8798
 IR Inten    --      3.3179                 3.8587                13.3843

                     25                     26                     27
                      A                      A                      A
 Frequencies --    762.2582               767.9189               820.9105
 Red. masses --      1.7323                 1.6572                 6.2107
 Frc consts  --      0.5930                 0.5758                 2.4659
 IR Inten    --      2.2247                89.7192                10.6953

                     28                     29                     30
                      A                      A                      A
 Frequencies --    831.4436               845.0219               868.6096
 Red. masses --      1.7657                 3.7287                 1.3820
 Frc consts  --      0.7192                 1.5687                 0.6143
 IR Inten    --      0.0641                43.7986                 0.8953

                     31                     32                     33
                      A                      A                      A
 Frequencies --    903.8826               950.8319               953.8302
 Red. masses --      1.4118                 5.5130                 1.3670
 Frc consts  --      0.6796                 2.9366                 0.7328
 IR Inten    --      6.0982                 9.8696                 0.2607

                     34                     35                     36
                      A                      A                      A
 Frequencies --    957.4437              1004.1142              1045.3570
 Red. masses --      1.3506                 1.2967                 1.0631
 Frc consts  --      0.7295                 0.7703                 0.6845
 IR Inten    --      2.0570                 0.0362                72.0981

                     37                     38                     39
                      A                      A                      A
 Frequencies --   1048.0698              1051.5199              1082.0958
 Red. masses --      2.1059                 2.0929                 4.2366
 Frc consts  --      1.3629                 1.3635                 2.9228
 IR Inten    --      3.9632                 7.9282                10.8212

                     40                     41                     42
                      A                      A                      A
 Frequencies --   1120.7008              1152.5494              1164.7559
 Red. masses --      1.5088                 1.3635                 1.2138
 Frc consts  --      1.1165                 1.0671                 0.9703
 IR Inten    --     45.0848                43.0404                58.5299

                     43                     44                     45
                      A                      A                      A
 Frequencies --   1177.0827              1196.7926              1257.5600
 Red. masses --      1.1902                 1.6624                 1.8367
 Frc consts  --      0.9716                 1.4029                 1.7114
 IR Inten    --    102.5981               148.2781                85.2499

                     46                     47                     48
                      A                      A                      A
 Frequencies --   1266.3706              1309.7058              1344.6876
 Red. masses --      2.3430                 2.0665                 5.5924
 Frc consts  --      2.2138                 2.0885                 5.9579
 IR Inten    --     32.7385                25.3559                11.6293

                     49                     50                     51
                      A                      A                      A
 Frequencies --   1359.1221              1390.3961              1404.6283
 Red. masses --      6.5135                 2.8958                 2.1516
 Frc consts  --      7.0890                 3.2984                 2.5011
 IR Inten    --    181.1915                18.9780                 5.3952

                     52                     53                     54
                      A                      A                      A
 Frequencies --   1436.7015              1484.0276              1496.0869
 Red. masses --      3.2454                 2.8364                 3.2964
 Frc consts  --      3.9468                 3.6804                 4.3472
 IR Inten    --    483.1912                 2.8786                47.2535

                     55                     56                     57
                      A                      A                      A
 Frequencies --   1531.5185              1547.4405              1574.5875
 Red. masses --      3.8800                 5.6750                 4.1834
 Frc consts  --      5.3619                 8.0065                 6.1111
 IR Inten    --     70.1481               159.1777                65.6795

                     58                     59                     60
                      A                      A                      A
 Frequencies --   1619.6236              1635.5167              1663.2868
 Red. masses --      5.9590                 6.1006                 6.7240
 Frc consts  --      9.2098                 9.6147                10.9600
 IR Inten    --    291.5375               128.2383               125.6115

                     61                     62                     63
                      A                      A                      A
 Frequencies --   2573.8832              3198.8019              3212.2911
 Red. masses --      1.1019                 1.0882                 1.0861
 Frc consts  --      4.3011                 6.5605                 6.6032
 IR Inten    --   1186.5203                25.1806                 4.0763

                     64                     65                     66
                      A                      A                      A
 Frequencies --   3214.6414              3222.1369              3224.9180
 Red. masses --      1.0869                 1.0904                 1.0928
 Frc consts  --      6.6176                 6.6699                 6.6960
 IR Inten    --      2.4982                 3.5354                16.5877

                     67                     68                     69
                      A                      A                      A
 Frequencies --   3232.6107              3237.1334              3239.1790
 Red. masses --      1.0956                 1.0988                 1.0995
 Frc consts  --      6.7453                 6.7839                 6.7971
 IR Inten    --      8.2222                25.9447                11.6925

 - Thermochemistry -
 -------------------
 Temperature   298.150 Kelvin.  Pressure   1.00000 Atm.
 Atom     1 has atomic number  6 and mass  12.00000

 Molecular mass:   227.04049 amu.
 Principal axes and moments of inertia in atomic units:
                           1         2         3
     Eigenvalues --  1304.037066383.906927687.94398
           X           -0.70127   0.71290   0.00000
           Y            0.71290   0.70127  -0.00001
           Z            0.00001   0.00000   1.00000
 This molecule is an asymmetric top.
 Rotational symmetry number  1.
 Warning -- assumption of classical behavior for rotation
           may cause significant error
 Rotational temperatures (Kelvin)      0.06642     0.01357     0.01127
 Rotational constants (GHZ):           1.38396     0.28270     0.23475
 Zero-point vibrational energy     486335.2 (Joules/Mol)
                                  116.23691 (Kcal/Mol)
 Warning -- explicit consideration of  20 degrees of freedom as
           vibrations may cause significant error
 Vibrational temperatures:     48.58    84.28   161.49   166.87   261.87
          (Kelvin)            315.92   374.55   388.43   433.67   516.42
                              573.12   626.55   663.18   727.69   728.97
                              780.47   800.24   803.03   820.26   891.08
                              999.79  1016.08  1031.12  1068.88  1096.72
                             1104.86  1181.11  1196.26  1215.80  1249.74
                             1300.49  1368.03  1372.35  1377.55  1444.70
                             1504.04  1507.94  1512.90  1556.89  1612.44
                             1658.26  1675.82  1693.56  1721.92  1809.35
                             1822.02  1884.37  1934.71  1955.47  2000.47
                             2020.95  2067.09  2135.18  2152.54  2203.51
                             2226.42  2265.48  2330.28  2353.14  2393.10
                             3703.24  4602.36  4621.77  4625.15  4635.94
                             4639.94  4651.01  4657.51  4660.46

 Zero-point correction=                           0.185235 (Hartree/Particle)
 Thermal correction to Energy=                    0.197584
 Thermal correction to Enthalpy=                  0.198528
 Thermal correction to Gibbs Free Energy=         0.145622
 Sum of electronic and zero-point Energies=          -1028.512972
 Sum of electronic and thermal Energies=             -1028.500623
 Sum of electronic and thermal Enthalpies=           -1028.499679
 Sum of electronic and thermal Free Energies=        -1028.552585

                     E (Thermal)             CV                S
                      KCal/Mol        Cal/Mol-Kelvin    Cal/Mol-Kelvin
 Total                  123.986             49.412            111.350
 Electronic               0.000              0.000              0.000
 Translational            0.889              2.981             42.162
 Rotational               0.889              2.981             32.526
 Vibrational            122.208             43.451             36.662
 Vibration     1          0.594              1.983              5.595
 Vibration     2          0.596              1.974              4.504
 Vibration     3          0.607              1.939              3.230
 Vibration     4          0.608              1.936              3.166
 Vibration     5          0.630              1.864              2.308
 Vibration     6          0.647              1.811              1.963
 Vibration     7          0.668              1.745              1.660
 Vibration     8          0.674              1.728              1.596
 Vibration     9          0.693              1.671              1.409
 Vibration    10          0.734              1.557              1.127
 Vibration    11          0.765              1.474              0.969
 Vibration    12          0.796              1.393              0.841
 Vibration    13          0.819              1.337              0.763
 Vibration    14          0.861              1.237              0.644
 Vibration    15          0.862              1.235              0.642
 Vibration    16          0.898              1.156              0.560
 Vibration    17          0.912              1.126              0.531
 Vibration    18          0.914              1.122              0.528
 Vibration    19          0.926              1.096              0.504
 Vibration    20          0.979              0.991              0.418

 Optimization completed.
    -- Stationary point found.
 Normal termination of Gaussian 16 at Mon Jul 13 16:18:00 2020.
