 Gaussian 16, Revision C.01,
 Gaussian 16:  ES64L-G16RevC.01  3-Jul-2019

 ----------------------------------------------------------------------
 #p opt=addgic freq td wb97xd/cc-pvdz nosymm int=ultrafine scrf=(solven
 t=CarbonTetraChloride)
 ----------------------------------------------------------------------

 ------------------------------------------------
 NM 2D-scan of HBT TD-WB97XD pVDZ in CTC Relaxed.
 ------------------------------------------------
 Symbolic Z-matrix:
 Charge =  0 Multiplicity = 1

 SCF Done:  E(RwB97XD) =  -1028.81133280     A.U. after   15 cycles
 Total Energy, E(TD-HF/TD-DFT) =  -1028.68161246
 SCF Done:  E(RwB97XD) =  -1028.81741831     A.U. after   12 cycles
 Total Energy, E(TD-HF/TD-DFT) =  -1028.68851576
 SCF Done:  E(RwB97XD) =  -1028.81751137     A.U. after   12 cycles
 Total Energy, E(TD-HF/TD-DFT) =  -1028.68900743
 SCF Done:  E(RwB97XD) =  -1028.81719022     A.U. after   11 cycles
 Total Energy, E(TD-HF/TD-DFT) =  -1028.68928610
 SCF Done:  E(RwB97XD) =  -1028.81742609     A.U. after   10 cycles
 Total Energy, E(TD-HF/TD-DFT) =  -1028.68930647
 SCF Done:  E(RwB97XD) =  -1028.81744668     A.U. after    9 cycles
 Total Energy, E(TD-HF/TD-DFT) =  -1028.68930743
 SCF Done:  E(RwB97XD) =  -1028.81745948     A.U. after    7 cycles
 Total Energy, E(TD-HF/TD-DFT) =  -1028.68930727
 SCF Done:  E(RwB97XD) =  -1028.81746032     A.U. after    7 cycles
 Total Energy, E(TD-HF/TD-DFT) =  -1028.68930754
 Optimization completed.
    -- Stationary point found.
 Normal termination of Gaussian 16 at Tue Jul 14 15:25:35 2020.

 ----------------------------------------------------------------------
 #P Geom=AllCheck Guess=TCheck SCRF=Check GenChk RwB97XD TD(FC,Read)/CC
 -pVDZ Freq
 ----------------------------------------------------------------------

 Structure from the checkpoint file:  "config_3_18.chk"
 ------------------------------------------------
 NM 2D-scan of HBT TD-WB97XD pVDZ in CTC Relaxed.
 ------------------------------------------------
 Charge =  0 Multiplicity = 1

                          Input orientation:
 ---------------------------------------------------------------------
 Center     Atomic      Atomic             Coordinates (Angstroms)
 Number     Number       Type             X           Y           Z
 ---------------------------------------------------------------------
      1          6           0        1.521537   -3.262088   -0.000051
      2          6           0        0.988246   -1.978133   -0.000040
      3          6           0        1.789838   -0.788051   -0.000010
      4          6           0        3.200547   -0.966071    0.000005
      5          6           0        3.722757   -2.250976   -0.000006
      6          6           0        2.903029   -3.399319   -0.000032
      7          1           0        0.864541   -4.132673   -0.000072
      8          1           0        3.855318   -0.093920    0.000027
      9          1           0        4.806988   -2.378721    0.000007
     10          1           0        3.354182   -4.392308   -0.000038
     11          7           0        1.080389    0.366990    0.000004
     12         16           0       -0.698236   -1.583944   -0.000055
     13          6           0       -1.286633    1.081773    0.000025
     14          6           0       -2.659504    0.724510    0.000057
     15          6           0       -0.934621    2.500065    0.000022
     16          6           0       -3.639691    1.703093    0.000055
     17          1           0       -2.943725   -0.328135    0.000082
     18          6           0       -1.954487    3.467601    0.000020
     19          6           0       -3.294426    3.073102    0.000031
     20          1           0       -4.691011    1.411191    0.000074
     21          1           0       -1.670379    4.520344    0.000009
     22          1           0       -4.081106    3.828442    0.000025
     23          6           0       -0.262990    0.121276   -0.000008
     24          8           0        0.336880    2.818166    0.000011
     25          1           0        0.896467    1.943153   -0.000023
 ---------------------------------------------------------------------

 SCF Done:  E(RwB97XD) =  -1028.81746032     A.U. after    1 cycles

 Excitation energies and oscillator strengths:

 Excited state symmetry could not be determined.
 Excited State   1:      Singlet-?Sym    3.4872 eV  355.54 nm  f=0.6666  <S**2>=0.000
      59 -> 60         0.68890
 This state for optimization and/or second-order correction.
 Total Energy, E(TD-HF/TD-DFT) =  -1028.68930753
 Copying the excited state density for this state as the 1-particle RhoCI density.

 Excited state symmetry could not be determined.
 Excited State   2:      Singlet-?Sym    4.3792 eV  283.12 nm  f=0.1505  <S**2>=0.000
      57 -> 60         0.29975
      58 -> 60         0.59164
      59 -> 62         0.11410

 Excited state symmetry could not be determined.
 Excited State   3:      Singlet-?Sym    4.6110 eV  268.89 nm  f=0.1089  <S**2>=0.000
      57 -> 60         0.55460
      57 -> 62        -0.13486
      58 -> 60        -0.29631
      58 -> 61        -0.11354
      59 -> 61         0.19881

 Alpha  occ. eigenvalues --  -89.08675 -19.28255 -14.47559 -10.39622 -10.38089
 Alpha  occ. eigenvalues --  -10.35390 -10.34521 -10.32306 -10.32173 -10.32128
 Alpha  occ. eigenvalues --  -10.32009 -10.31654 -10.31384 -10.31338 -10.30607
 Alpha  occ. eigenvalues --  -10.30545  -8.10768  -6.05599  -6.05259  -6.04833
 Alpha  occ. eigenvalues --   -1.16896  -1.08243  -0.96857  -0.95895  -0.92230
 Alpha  occ. eigenvalues --   -0.88810  -0.85116  -0.84570  -0.82294  -0.75955
 Alpha  occ. eigenvalues --   -0.71363  -0.70347  -0.69169  -0.68029  -0.63698
 Alpha  occ. eigenvalues --   -0.60508  -0.58986  -0.58766  -0.56023  -0.54487
 Alpha  occ. eigenvalues --   -0.53941  -0.53487  -0.52984  -0.50571  -0.50447
 Alpha  occ. eigenvalues --   -0.49329  -0.47332  -0.45988  -0.45698  -0.44834
 Alpha  occ. eigenvalues --   -0.44151  -0.42971  -0.42196  -0.40087  -0.37374
 Alpha  occ. eigenvalues --   -0.36462  -0.31981  -0.31584  -0.28174
 Alpha virt. eigenvalues --   -0.01805   0.05115   0.06824   0.07166   0.07918
 Alpha virt. eigenvalues --    0.11060   0.14488   0.15235   0.17100   0.18021
 Alpha virt. eigenvalues --    0.18646   0.21217   0.21494   0.22370   0.22647

 Mulliken charges:
               1
     1  C    0.022131
     2  C   -0.217851
     3  C    0.217189
     4  C   -0.021959
     5  C    0.003945
     6  C   -0.003453
     7  H    0.016805
     8  H    0.018455
     9  H    0.019102
    10  H    0.020161
    11  N   -0.370520
    12  S    0.159291
    13  C   -0.075143
    14  C   -0.028657
    15  C    0.093308
    16  C   -0.010185
    17  H    0.024412
    18  C    0.000092
    19  C    0.023242
    20  H    0.011142
    21  H    0.019609
    22  H    0.023520
    23  C    0.087161
    24  O   -0.220090
    25  H    0.188295
 Sum of Mulliken charges =  -0.00000

 Dipole moment (field-independent basis, Debye):
    X=             -0.6981    Y=             -2.2896    Z=             -0.0000  Tot=              2.3936
 Quadrupole moment (field-independent basis, Debye-Ang):
   XX=            -83.1683   YY=            -89.7434   ZZ=           -104.2725
   XY=             -7.1415   XZ=             -0.0001   YZ=             -0.0000

  Exact polarizability:     393.031    -185.965     376.637      -0.002       0.003      63.288
 Approx polarizability:     276.510     -35.727     258.982      -0.000       0.001      82.344

                      1                      2                      3
                      A                      A                      A
 Frequencies --     47.8628                51.6292                95.1797
 Red. masses --      5.3922                 6.1349                 5.4593
 Frc consts  --      0.0073                 0.0096                 0.0291
 IR Inten    --      1.2698                 0.2302                 2.9114

                      4                      5                      6
                      A                      A                      A
 Frequencies --    109.4327               177.1450               223.9264
 Red. masses --      5.2376                 6.4112                 5.2826
 Frc consts  --      0.0370                 0.1185                 0.1561
 IR Inten    --      0.1120                 1.4737                 0.0001

                      7                      8                      9
                      A                      A                      A
 Frequencies --    262.6540               273.9347               300.2710
 Red. masses --      7.3631                 4.8313                 6.5137
 Frc consts  --      0.2993                 0.2136                 0.3460
 IR Inten    --     28.1442                 0.0114                 4.7411

                     10                     11                     12
                      A                      A                      A
 Frequencies --    385.4670               412.6301               441.6762
 Red. masses --      4.5505                 9.5580                 3.2265
 Frc consts  --      0.3984                 0.9588                 0.3708
 IR Inten    --      0.0538                15.9843                 3.8957

                     13                     14                     15
                      A                      A                      A
 Frequencies --    485.3324               503.6607               506.5003
 Red. masses --      4.5598                 8.3933                 3.1570
 Frc consts  --      0.6328                 1.2545                 0.4772
 IR Inten    --      0.1117                 0.6921                 0.0005

                     16                     17                     18
                      A                      A                      A
 Frequencies --    515.0816               530.7980               555.9564
 Red. masses --      5.0095                 7.5058                 3.9279
 Frc consts  --      0.7831                 1.2460                 0.7153
 IR Inten    --     13.3860                58.4804                 0.1469

                     19                     20                     21
                      A                      A                      A
 Frequencies --    575.1354               644.0604               717.1077
 Red. masses --      7.6483                 6.6403                 1.5361
 Frc consts  --      1.4906                 1.6229                 0.4654
 IR Inten    --     22.2586                23.6360                63.0715

                     22                     23                     24
                      A                      A                      A
 Frequencies --    717.2951               725.2897               738.1874
 Red. masses --      8.1985                 7.8295                 1.8490
 Frc consts  --      2.4853                 2.4266                 0.5936
 IR Inten    --     23.1445                33.6289                46.5681

                     25                     26                     27
                      A                      A                      A
 Frequencies --    741.6291               769.6441               807.7611
 Red. masses --      1.8821                 2.2977                 1.8055
 Frc consts  --      0.6099                 0.8019                 0.6941
 IR Inten    --      0.6542                46.1628                 3.7901

                     28                     29                     30
                      A                      A                      A
 Frequencies --    825.0378               860.7166               887.2708
 Red. masses --      5.7873                 1.4267                 6.4344
 Frc consts  --      2.3210                 0.6228                 2.9845
 IR Inten    --     14.5841                 1.0269                69.5853

                     31                     32                     33
                      A                      A                      A
 Frequencies --    914.0107               952.9774               964.2335
 Red. masses --      1.3508                 1.3459                 1.3609
 Frc consts  --      0.6649                 0.7202                 0.7455
 IR Inten    --      5.4350                 2.0794                 0.0023

                     34                     35                     36
                      A                      A                      A
 Frequencies --    974.6203               998.3933              1021.1861
 Red. masses --      7.4420                 1.3051                 1.9465
 Frc consts  --      4.1650                 0.7665                 1.1959
 IR Inten    --     13.0558                 0.0083                 4.2651

                     37                     38                     39
                      A                      A                      A
 Frequencies --   1043.5792              1046.6882              1089.3628
 Red. masses --      2.1023                 1.0585                 3.4823
 Frc consts  --      1.3489                 0.6833                 2.4348
 IR Inten    --      0.5769                66.9499                86.2531

                     40                     41                     42
                      A                      A                      A
 Frequencies --   1127.1309              1152.6152              1163.1615
 Red. masses --      1.4145                 1.3830                 1.1142
 Frc consts  --      1.0588                 1.0826                 0.8881
 IR Inten    --     58.0979                18.9447                 0.5293

                     43                     44                     45
                      A                      A                      A
 Frequencies --   1178.0413              1208.2795              1241.7818
 Red. masses --      1.2420                 2.8269                 2.8005
 Frc consts  --      1.0155                 2.4316                 2.5443
 IR Inten    --     30.3525                44.9891                80.1735

                     46                     47                     48
                      A                      A                      A
 Frequencies --   1279.6688              1310.2140              1365.2212
 Red. masses --      1.8308                 3.6697                 3.4030
 Frc consts  --      1.7664                 3.7117                 3.7369
 IR Inten    --      7.0850               160.7096               140.2796

                     49                     50                     51
                      A                      A                      A
 Frequencies --   1367.4728              1393.0376              1432.3052
 Red. masses --      3.0696                 2.5687                 3.1277
 Frc consts  --      3.3819                 2.9369                 3.7805
 IR Inten    --      8.4723                 4.4338               265.2403

                     52                     53                     54
                      A                      A                      A
 Frequencies --   1468.0723              1493.5344              1532.8256
 Red. masses --      3.6417                 3.2571                 3.7976
 Frc consts  --      4.6244                 4.2807                 5.2571
 IR Inten    --     46.6449                43.5940               258.1814

                     55                     56                     57
                      A                      A                      A
 Frequencies --   1549.4938              1583.6956              1599.8276
 Red. masses --      4.5477                 7.6844                 5.6099
 Frc consts  --      6.4331                11.3555                 8.4596
 IR Inten    --     28.4722                59.1283                46.7875

                     58                     59                     60
                      A                      A                      A
 Frequencies --   1609.9174              1641.1842              1673.6075
 Red. masses --      6.1445                 5.3905                 1.3573
 Frc consts  --      9.3831                 8.5546                 2.2399
 IR Inten    --   1160.2021               263.7715                97.0974

                     61                     62                     63
                      A                      A                      A
 Frequencies --   2422.2256              3204.5431              3211.9661
 Red. masses --      1.1037                 1.0862                 1.0863
 Frc consts  --      3.8153                 6.5722                 6.6032
 IR Inten    --    159.9645                 9.1289                 5.4860

                     64                     65                     66
                      A                      A                      A
 Frequencies --   3215.1270              3221.9264              3226.1942
 Red. masses --      1.0898                 1.0888                 1.0951
 Frc consts  --      6.6372                 6.6593                 6.7159
 IR Inten    --      1.9457                 7.4765                10.5525

                     67                     68                     69
                      A                      A                      A
 Frequencies --   3230.1683              3233.3456              3239.8808
 Red. masses --      1.0950                 1.0993                 1.0983
 Frc consts  --      6.7313                 6.7711                 6.7922
 IR Inten    --     10.9277                39.6197                27.9441

 - Thermochemistry -
 -------------------
 Temperature   298.150 Kelvin.  Pressure   1.00000 Atm.
 Atom     1 has atomic number  6 and mass  12.00000

 Molecular mass:   227.04049 amu.
 Principal axes and moments of inertia in atomic units:
                           1         2         3
     Eigenvalues --  1289.473786310.933667600.40745
           X           -0.70240   0.71179   0.00000
           Y            0.71179   0.70240  -0.00001
           Z            0.00001   0.00001   1.00000
 This molecule is an asymmetric top.
 Rotational symmetry number  1.
 Warning -- assumption of classical behavior for rotation
           may cause significant error
 Rotational temperatures (Kelvin)      0.06717     0.01372     0.01140
 Rotational constants (GHZ):           1.39960     0.28597     0.23745
 Zero-point vibrational energy     487297.6 (Joules/Mol)
                                  116.46691 (Kcal/Mol)
 Warning -- explicit consideration of  19 degrees of freedom as
           vibrations may cause significant error
 Vibrational temperatures:     68.86    74.28   136.94   157.45   254.87
          (Kelvin)            322.18   377.90   394.13   432.02   554.60
                              593.68   635.47   698.29   724.66   728.74
                              741.09   763.70   799.90   827.49   926.66
                             1031.76  1032.03  1043.53  1062.09  1067.04
                             1107.35  1162.19  1187.05  1238.38  1276.58
                             1315.06  1371.12  1387.32  1402.26  1436.47
                             1469.26  1501.48  1505.95  1567.35  1621.69
                             1658.36  1673.53  1694.94  1738.44  1786.65
                             1841.16  1885.11  1964.25  1967.49  2004.27
                             2060.77  2112.23  2148.86  2205.39  2229.38
                             2278.58  2301.80  2316.31  2361.30  2407.95
                             3485.04  4610.62  4621.30  4625.85  4635.63
                             4641.77  4647.49  4652.06  4661.47

 Zero-point correction=                           0.185602 (Hartree/Particle)
 Thermal correction to Energy=                    0.197911
 Thermal correction to Enthalpy=                  0.198855
 Thermal correction to Gibbs Free Energy=         0.146085
 Sum of electronic and zero-point Energies=          -1028.503706
 Sum of electronic and thermal Energies=             -1028.491396
 Sum of electronic and thermal Enthalpies=           -1028.490452
 Sum of electronic and thermal Free Energies=        -1028.543223

                     E (Thermal)             CV                S
                      KCal/Mol        Cal/Mol-Kelvin    Cal/Mol-Kelvin
 Total                  124.191             49.188            111.065
 Electronic               0.000              0.000              0.000
 Translational            0.889              2.981             42.162
 Rotational               0.889              2.981             32.492
 Vibrational            122.414             43.226             36.411
 Vibration     1          0.595              1.978              4.904
 Vibration     2          0.596              1.977              4.754
 Vibration     3          0.603              1.953              3.551
 Vibration     4          0.606              1.942              3.279
 Vibration     5          0.628              1.870              2.358
 Vibration     6          0.649              1.805              1.927
 Vibration     7          0.670              1.741              1.644
 Vibration     8          0.676              1.721              1.571
 Vibration     9          0.693              1.673              1.415
 Vibration    10          0.754              1.501              1.018
 Vibration    11          0.776              1.443              0.917
 Vibration    12          0.801              1.379              0.821
 Vibration    13          0.841              1.283              0.696
 Vibration    14          0.859              1.242              0.649
 Vibration    15          0.862              1.236              0.642
 Vibration    16          0.870              1.217              0.621
 Vibration    17          0.886              1.182              0.585
 Vibration    18          0.911              1.127              0.532
 Vibration    19          0.931              1.085              0.494

 Optimization completed.
    -- Stationary point found.
 Normal termination of Gaussian 16 at Tue Jul 14 15:43:14 2020.
