 Gaussian 16, Revision C.01,
 Gaussian 16:  ES64L-G16RevC.01  3-Jul-2019

 ----------------------------------------------------------------------
 #p opt=addgic freq td wb97xd/cc-pvdz nosymm int=ultrafine scrf=(solven
 t=CarbonTetraChloride)
 ----------------------------------------------------------------------

 ------------------------------------------------
 NM 2D-scan of HBT TD-WB97XD pVDZ in CTC Relaxed.
 ------------------------------------------------
 Symbolic Z-matrix:
 Charge =  0 Multiplicity = 1

 SCF Done:  E(RwB97XD) =  -1028.80677865     A.U. after   15 cycles
 Total Energy, E(TD-HF/TD-DFT) =  -1028.69294892
 SCF Done:  E(RwB97XD) =  -1028.79920487     A.U. after   14 cycles
 Total Energy, E(TD-HF/TD-DFT) =  -1028.69116194
 SCF Done:  E(RwB97XD) =  -1028.80560673     A.U. after   10 cycles
 Total Energy, E(TD-HF/TD-DFT) =  -1028.69369333
 SCF Done:  E(RwB97XD) =  -1028.80579069     A.U. after   10 cycles
 Total Energy, E(TD-HF/TD-DFT) =  -1028.69370174
 SCF Done:  E(RwB97XD) =  -1028.80581661     A.U. after    9 cycles
 Total Energy, E(TD-HF/TD-DFT) =  -1028.69370202
 SCF Done:  E(RwB97XD) =  -1028.80582176     A.U. after    8 cycles
 Total Energy, E(TD-HF/TD-DFT) =  -1028.69370237
 Optimization completed.
    -- Stationary point found.
 Normal termination of Gaussian 16 at Mon Jul 13 15:52:06 2020.

 ----------------------------------------------------------------------
 #P Geom=AllCheck Guess=TCheck SCRF=Check GenChk RwB97XD TD(FC,Read)/CC
 -pVDZ Freq
 ----------------------------------------------------------------------

 Structure from the checkpoint file:  "config_8_3.chk"
 ------------------------------------------------
 NM 2D-scan of HBT TD-WB97XD pVDZ in CTC Relaxed.
 ------------------------------------------------
 Charge =  0 Multiplicity = 1

                          Input orientation:
 ---------------------------------------------------------------------
 Center     Atomic      Atomic             Coordinates (Angstroms)
 Number     Number       Type             X           Y           Z
 ---------------------------------------------------------------------
      1          6           0        1.738589   -3.277385   -0.000147
      2          6           0        1.002038   -2.091946   -0.000079
      3          6           0        1.673534   -0.840989    0.000035
      4          6           0        3.076621   -0.770936    0.000099
      5          6           0        3.793516   -1.953477    0.000029
      6          6           0        3.134468   -3.195008   -0.000096
      7          1           0        1.242761   -4.248878   -0.000231
      8          1           0        3.566036    0.203393    0.000198
      9          1           0        4.884270   -1.922578    0.000073
     10          1           0        3.720754   -4.114858   -0.000146
     11          7           0        0.848974    0.226982    0.000094
     12         16           0       -0.750013   -1.833143   -0.000076
     13          6           0       -1.411307    1.016132    0.000036
     14          6           0       -2.805504    0.889656    0.000082
     15          6           0       -0.858146    2.406117   -0.000052
     16          6           0       -3.645843    2.021685    0.000101
     17          1           0       -3.257869   -0.104471    0.000123
     18          6           0       -1.750431    3.506873   -0.000054
     19          6           0       -3.128301    3.325500    0.000042
     20          1           0       -4.726453    1.870046    0.000152
     21          1           0       -1.292107    4.496579   -0.000147
     22          1           0       -3.799611    4.184578    0.000042
     23          6           0       -0.475529   -0.067500    0.000016
     24          8           0        0.401256    2.638784   -0.000286
     25          1           0        0.967022    1.359285    0.000273
 ---------------------------------------------------------------------

 SCF Done:  E(RwB97XD) =  -1028.80582176     A.U. after    1 cycles

 Excitation energies and oscillator strengths:

 Excited state symmetry could not be determined.
 Excited State   1:      Singlet-?Sym    3.0509 eV  406.38 nm  f=0.4524  <S**2>=0.000
      59 -> 60         0.69492
 This state for optimization and/or second-order correction.
 Total Energy, E(TD-HF/TD-DFT) =  -1028.69370233
 Copying the excited state density for this state as the 1-particle RhoCI density.

 Excited state symmetry could not be determined.
 Excited State   2:      Singlet-?Sym    4.1409 eV  299.41 nm  f=0.0000  <S**2>=0.000
      56 -> 60         0.68572
      56 -> 62         0.10866
      56 -> 64         0.11584

 Excited state symmetry could not be determined.
 Excited State   3:      Singlet-?Sym    4.3447 eV  285.37 nm  f=0.4206  <S**2>=0.000
      58 -> 60         0.67618

 Alpha  occ. eigenvalues --  -89.10476 -19.22859 -14.50568 -10.41666 -10.36737
 Alpha  occ. eigenvalues --  -10.36654 -10.36116 -10.33238 -10.32417 -10.32225
 Alpha  occ. eigenvalues --  -10.32163 -10.31800 -10.31751 -10.31063 -10.29490
 Alpha  occ. eigenvalues --  -10.28785  -8.12353  -6.07234  -6.06871  -6.06377
 Alpha  occ. eigenvalues --   -1.12856  -1.10006  -0.97781  -0.95006  -0.92799
 Alpha  occ. eigenvalues --   -0.89085  -0.85993  -0.83906  -0.81615  -0.75969
 Alpha  occ. eigenvalues --   -0.72026  -0.71290  -0.68662  -0.67848  -0.64236
 Alpha  occ. eigenvalues --   -0.60863  -0.59461  -0.57136  -0.55274  -0.55260
 Alpha  occ. eigenvalues --   -0.54543  -0.53524  -0.52804  -0.51069  -0.49709
 Alpha  occ. eigenvalues --   -0.49056  -0.47920  -0.46617  -0.45221  -0.45196
 Alpha  occ. eigenvalues --   -0.44148  -0.43076  -0.41856  -0.40652  -0.36701
 Alpha  occ. eigenvalues --   -0.33489  -0.33276  -0.31280  -0.26632
 Alpha virt. eigenvalues --   -0.01978   0.04059   0.06306   0.06310   0.08640
 Alpha virt. eigenvalues --    0.10475   0.12423   0.14764   0.16028   0.17556
 Alpha virt. eigenvalues --    0.18941   0.20475   0.21259   0.21667   0.22846

 Mulliken charges:
               1
     1  C    0.011181
     2  C   -0.239625
     3  C    0.276213
     4  C   -0.012610
     5  C    0.013121
     6  C   -0.002956
     7  H    0.025331
     8  H    0.029806
     9  H    0.025293
    10  H    0.025295
    11  N   -0.211711
    12  S    0.191607
    13  C   -0.125623
    14  C   -0.018673
    15  C    0.124836
    16  C   -0.033643
    17  H    0.003860
    18  C   -0.009740
    19  C    0.031318
    20  H    0.004589
    21  H    0.006142
    22  H    0.016359
    23  C    0.064655
    24  O   -0.394393
    25  H    0.199368
 Sum of Mulliken charges =  -0.00000

 Dipole moment (field-independent basis, Debye):
    X=              1.1160    Y=             -4.5496    Z=              0.0008  Tot=              4.6845
 Quadrupole moment (field-independent basis, Debye-Ang):
   XX=            -83.0254   YY=            -93.1072   ZZ=           -104.3413
   XY=             -6.8746   XZ=              0.0008   YZ=              0.0024

  Exact polarizability:     353.655    -130.448     309.918      -0.003       0.004      63.378
 Approx polarizability:     274.897     -36.000     266.732      -0.002       0.002      82.287

 ******    1 imaginary frequencies (negative Signs) ******

                      1                      2                      3
                      A                      A                      A
 Frequencies --     -3.2293                37.4475                89.4001
 Red. masses --      6.7157                 6.6889                 4.7878
 Frc consts  --      0.0000                 0.0055                 0.0225
 IR Inten    --      0.1865                 2.1103               157.7401

                      4                      5                      6
                      A                      A                      A
 Frequencies --    108.8221               176.7537               204.7930
 Red. masses --      4.6857                 5.5997                 4.2612
 Frc consts  --      0.0327                 0.1031                 0.1053
 IR Inten    --      0.0223                 0.2385               212.5120

                      7                      8                      9
                      A                      A                      A
 Frequencies --    219.5201               267.8761               284.2748
 Red. masses --      5.3392                 4.7000                 5.9897
 Frc consts  --      0.1516                 0.1987                 0.2852
 IR Inten    --      0.1700                 0.2943                57.9424

                     10                     11                     12
                      A                      A                      A
 Frequencies --    364.4737               397.3287               436.5453
 Red. masses --      5.1314                10.4241                 3.2479
 Frc consts  --      0.4016                 0.9696                 0.3647
 IR Inten    --      0.8862                 2.6036                 5.1670

                     13                     14                     15
                      A                      A                      A
 Frequencies --    466.3531               480.5793               499.3389
 Red. masses --      4.7442                 3.5912                 3.1502
 Frc consts  --      0.6079                 0.4887                 0.4628
 IR Inten    --      0.7651               336.5786                 0.5585

                     16                     17                     18
                      A                      A                      A
 Frequencies --    506.2815               546.1357               555.9663
 Red. masses --      7.9238                 7.6177                 3.8524
 Frc consts  --      1.1967                 1.3387                 0.7016
 IR Inten    --      7.7061                24.3703                 0.5087

                     19                     20                     21
                      A                      A                      A
 Frequencies --    583.0163               595.3260               664.7988
 Red. masses --      7.8862                 5.9129                 6.8279
 Frc consts  --      1.5793                 1.2347                 1.7779
 IR Inten    --     82.6430                45.9766                17.7426

                     22                     23                     24
                      A                      A                      A
 Frequencies --    693.4140               706.6394               740.4997
 Red. masses --      1.6209                 6.2408                 2.4363
 Frc consts  --      0.4592                 1.8360                 0.7871
 IR Inten    --     36.5240                 8.0964                15.0345

                     25                     26                     27
                      A                      A                      A
 Frequencies --    764.8907               767.9364               799.7554
 Red. masses --      1.7431                 1.8175                 5.2789
 Frc consts  --      0.6009                 0.6315                 1.9894
 IR Inten    --      1.8712                88.6191                26.1450

                     28                     29                     30
                      A                      A                      A
 Frequencies --    824.4664               835.1280               863.6324
 Red. masses --      4.3612                 1.6367                 1.3966
 Frc consts  --      1.7466                 0.6725                 0.6138
 IR Inten    --    102.0522                 0.0009                 0.9103

                     31                     32                     33
                      A                      A                      A
 Frequencies --    909.4877               934.1469               954.8468
 Red. masses --      1.3984                 5.9439                 1.3729
 Frc consts  --      0.6815                 3.0560                 0.7375
 IR Inten    --      6.1449                26.5184                 0.9916

                     34                     35                     36
                      A                      A                      A
 Frequencies --    955.3621              1002.1099              1043.5217
 Red. masses --      1.3476                 1.2948                 2.3427
 Frc consts  --      0.7247                 0.7661                 1.5030
 IR Inten    --      1.3590                 0.0063                11.8057

                     37                     38                     39
                      A                      A                      A
 Frequencies --   1048.4012              1058.8850              1113.3515
 Red. masses --      2.3367                 3.3022                 2.0357
 Frc consts  --      1.5132                 2.1815                 1.4867
 IR Inten    --     23.9734                80.8908               297.7008

                     40                     41                     42
                      A                      A                      A
 Frequencies --   1130.8279              1154.4868              1163.9548
 Red. masses --      1.7517                 1.3516                 1.0588
 Frc consts  --      1.3198                 1.0614                 0.8451
 IR Inten    --     70.9061                 4.3776                65.3457

                     43                     44                     45
                      A                      A                      A
 Frequencies --   1166.2048              1179.2813              1259.2753
 Red. masses --      1.1938                 1.1578                 1.7861
 Frc consts  --      0.9566                 0.9487                 1.6688
 IR Inten    --    188.1809                 2.6312               106.1980

                     46                     47                     48
                      A                      A                      A
 Frequencies --   1263.5895              1304.5920              1336.6781
 Red. masses --      2.7460                 2.0857                 4.4168
 Frc consts  --      2.5832                 2.0914                 4.6496
 IR Inten    --     31.7849                45.1400                64.0977

                     49                     50                     51
                      A                      A                      A
 Frequencies --   1362.6954              1394.1796              1405.4838
 Red. masses --      6.2273                 2.6728                 2.1157
 Frc consts  --      6.8132                 3.0610                 2.4624
 IR Inten    --    177.9756                 4.1518                 6.1426

                     52                     53                     54
                      A                      A                      A
 Frequencies --   1439.9769              1479.4275              1495.2660
 Red. masses --      3.4511                 3.2622                 3.1393
 Frc consts  --      4.2161                 4.2067                 4.1354
 IR Inten    --    706.1810                 5.7119                40.4391

                     55                     56                     57
                      A                      A                      A
 Frequencies --   1536.4183              1548.4780              1574.3650
 Red. masses --      5.0152                 4.8147                 4.7507
 Frc consts  --      6.9752                 6.8019                 6.9377
 IR Inten    --     68.6734               132.7490                70.3583

                     58                     59                     60
                      A                      A                      A
 Frequencies --   1626.7938              1639.4221              1663.2029
 Red. masses --      5.8450                 5.2967                 6.7371
 Frc consts  --      9.1137                 8.3876                10.9803
 IR Inten    --     72.7170               584.6613               162.6035

                     61                     62                     63
                      A                      A                      A
 Frequencies --   2098.5228              3197.8154              3210.8595
 Red. masses --      1.1303                 1.0883                 1.0860
 Frc consts  --      2.9328                 6.5572                 6.5966
 IR Inten    --    893.8944                19.2429                 5.0189

                     64                     65                     66
                      A                      A                      A
 Frequencies --   3214.1635              3220.1921              3224.8517
 Red. masses --      1.0875                 1.0902                 1.0925
 Frc consts  --      6.6194                 6.6607                 6.6939
 IR Inten    --      1.8121                 3.0783                20.0831

                     67                     68                     69
                      A                      A                      A
 Frequencies --   3230.4696              3236.8810              3237.8035
 Red. masses --      1.0956                 1.0988                 1.0996
 Frc consts  --      6.7363                 6.7832                 6.7916
 IR Inten    --      9.3637                21.1957                12.7091

 - Thermochemistry -
 -------------------
 Temperature   298.150 Kelvin.  Pressure   1.00000 Atm.
 Atom     1 has atomic number  6 and mass  12.00000

 Molecular mass:   227.04049 amu.
 Principal axes and moments of inertia in atomic units:
                           1         2         3
     Eigenvalues --  1335.497076346.484557681.98160
           X           -0.70080   0.71336   0.00001
           Y            0.71336   0.70080   0.00000
           Z            0.00001  -0.00001   1.00000
 This molecule is an asymmetric top.
 Rotational symmetry number  1.
 Warning -- assumption of classical behavior for rotation
           may cause significant error
 Rotational temperatures (Kelvin)      0.06486     0.01365     0.01127
 Rotational constants (GHZ):           1.35136     0.28437     0.23493
    1 imaginary frequencies ignored.
 Zero-point vibrational energy     481483.0 (Joules/Mol)
                                  115.07719 (Kcal/Mol)
 Warning -- explicit consideration of  19 degrees of freedom as
           vibrations may cause significant error
 Vibrational temperatures:     53.88   128.63   156.57   254.31   294.65
          (Kelvin)            315.84   385.41   409.01   524.40   571.67
                              628.09   670.98   691.45   718.44   728.43
                              785.77   799.91   838.83   856.54   956.50
                              997.67  1016.70  1065.41  1100.51  1104.89
                             1150.67  1186.22  1201.56  1242.57  1308.55
                             1344.03  1373.81  1374.55  1441.81  1501.39
                             1508.42  1523.50  1601.86  1627.01  1661.05
                             1674.67  1677.91  1696.72  1811.82  1818.02
                             1877.02  1923.18  1960.61  2005.91  2022.18
                             2071.81  2128.57  2151.35  2210.56  2227.91
                             2265.16  2340.59  2358.76  2392.98  3019.31
                             4600.94  4619.71  4624.46  4633.14  4639.84
                             4647.93  4657.15  4658.48

 Zero-point correction=                           0.183387 (Hartree/Particle)
 Thermal correction to Energy=                    0.195168
 Thermal correction to Enthalpy=                  0.196112
 Thermal correction to Gibbs Free Energy=         0.144757
 Sum of electronic and zero-point Energies=          -1028.510315
 Sum of electronic and thermal Energies=             -1028.498535
 Sum of electronic and thermal Enthalpies=           -1028.497590
 Sum of electronic and thermal Free Energies=        -1028.548945

                     E (Thermal)             CV                S
                      KCal/Mol        Cal/Mol-Kelvin    Cal/Mol-Kelvin
 Total                  122.470             47.941            108.085
 Electronic               0.000              0.000              0.000
 Translational            0.889              2.981             42.162
 Rotational               0.889              2.981             32.543
 Vibrational            120.692             41.979             33.380
 Vibration     1          0.594              1.982              5.390
 Vibration     2          0.602              1.957              3.673
 Vibration     3          0.606              1.942              3.290
 Vibration     4          0.628              1.871              2.362
 Vibration     5          0.640              1.833              2.090
 Vibration     6          0.647              1.811              1.963
 Vibration     7          0.673              1.732              1.610
 Vibration     8          0.683              1.703              1.508
 Vibration     9          0.738              1.545              1.103
 Vibration    10          0.764              1.476              0.973
 Vibration    11          0.797              1.391              0.838
 Vibration    12          0.824              1.325              0.748
 Vibration    13          0.837              1.293              0.709
 Vibration    14          0.855              1.251              0.660
 Vibration    15          0.862              1.236              0.643
 Vibration    16          0.901              1.148              0.552
 Vibration    17          0.911              1.127              0.532
 Vibration    18          0.940              1.068              0.480
 Vibration    19          0.953              1.042              0.458

 Optimization completed.
    -- Stationary point found.
 Normal termination of Gaussian 16 at Mon Jul 13 16:10:05 2020.
