 Gaussian 16, Revision C.01,
 Gaussian 16:  ES64L-G16RevC.01  3-Jul-2019

 ----------------------------------------------------------------------
 #p opt=addgic freq td wb97xd/cc-pvdz nosymm int=ultrafine scrf=(solven
 t=CarbonTetraChloride)
 ----------------------------------------------------------------------

 ------------------------------------------------
 NM 2D-scan of HBT TD-WB97XD pVDZ in CTC Relaxed.
 ------------------------------------------------
 Symbolic Z-matrix:
 Charge =  0 Multiplicity = 1

 SCF Done:  E(RwB97XD) =  -1028.81107250     A.U. after   15 cycles
 Total Energy, E(TD-HF/TD-DFT) =  -1028.68766041
 SCF Done:  E(RwB97XD) =  -1028.81166594     A.U. after   11 cycles
 Total Energy, E(TD-HF/TD-DFT) =  -1028.68776418
 SCF Done:  E(RwB97XD) =  -1028.81140767     A.U. after   11 cycles
 Total Energy, E(TD-HF/TD-DFT) =  -1028.68783657
 SCF Done:  E(RwB97XD) =  -1028.81142735     A.U. after    9 cycles
 Total Energy, E(TD-HF/TD-DFT) =  -1028.68790701
 SCF Done:  E(RwB97XD) =  -1028.81135114     A.U. after    9 cycles
 Total Energy, E(TD-HF/TD-DFT) =  -1028.68790978
 SCF Done:  E(RwB97XD) =  -1028.81128892     A.U. after   10 cycles
 Total Energy, E(TD-HF/TD-DFT) =  -1028.68791013
 SCF Done:  E(RwB97XD) =  -1028.81129761     A.U. after    8 cycles
 Total Energy, E(TD-HF/TD-DFT) =  -1028.68791056
 Optimization completed.
    -- Stationary point found.
 Normal termination of Gaussian 16 at Mon Jul 13 15:10:05 2020.

 ----------------------------------------------------------------------
 #P Geom=AllCheck Guess=TCheck SCRF=Check GenChk RwB97XD TD(FC,Read)/CC
 -pVDZ Freq
 ----------------------------------------------------------------------

 Structure from the checkpoint file:  "config_6_1.chk"
 ------------------------------------------------
 NM 2D-scan of HBT TD-WB97XD pVDZ in CTC Relaxed.
 ------------------------------------------------
 Charge =  0 Multiplicity = 1

                          Input orientation:
 ---------------------------------------------------------------------
 Center     Atomic      Atomic             Coordinates (Angstroms)
 Number     Number       Type             X           Y           Z
 ---------------------------------------------------------------------
      1          6           0        1.762556   -3.271904   -0.000051
      2          6           0        1.001025   -2.103124   -0.000022
      3          6           0        1.648543   -0.835225    0.000018
      4          6           0        3.057438   -0.742128    0.000031
      5          6           0        3.795727   -1.907756    0.000000
      6          6           0        3.157380   -3.162991   -0.000041
      7          1           0        1.288135   -4.254080   -0.000082
      8          1           0        3.525056    0.242998    0.000062
      9          1           0        4.886048   -1.858995    0.000007
     10          1           0        3.760334   -4.072197   -0.000065
     11          7           0        0.827327    0.219469    0.000038
     12         16           0       -0.753963   -1.867092   -0.000030
     13          6           0       -1.424374    0.993658   -0.000005
     14          6           0       -2.832172    0.905758   -0.000004
     15          6           0       -0.862627    2.377869   -0.000003
     16          6           0       -3.636375    2.052324    0.000037
     17          1           0       -3.305274   -0.077803   -0.000020
     18          6           0       -1.711971    3.502713    0.000054
     19          6           0       -3.090547    3.353307    0.000075
     20          1           0       -4.720883    1.930002    0.000046
     21          1           0       -1.228795    4.480253    0.000063
     22          1           0       -3.744092    4.225617    0.000113
     23          6           0       -0.493286   -0.087287    0.000002
     24          8           0        0.417618    2.591833   -0.000063
     25          1           0        0.875197    1.589803   -0.000076
 ---------------------------------------------------------------------

 SCF Done:  E(RwB97XD) =  -1028.81129761     A.U. after    1 cycles

 Excitation energies and oscillator strengths:

 Excited state symmetry could not be determined.
 Excited State   1:      Singlet-?Sym    3.3575 eV  369.27 nm  f=0.5548  <S**2>=0.000
      59 -> 60         0.69209
 This state for optimization and/or second-order correction.
 Total Energy, E(TD-HF/TD-DFT) =  -1028.68791054
 Copying the excited state density for this state as the 1-particle RhoCI density.

 Excited state symmetry could not be determined.
 Excited State   2:      Singlet-?Sym    4.3832 eV  282.86 nm  f=0.3662  <S**2>=0.000
      57 -> 60         0.13716
      58 -> 60         0.65891
      59 -> 62        -0.10240
      59 -> 64        -0.11303

 Excited state symmetry could not be determined.
 Excited State   3:      Singlet-?Sym    4.6770 eV  265.09 nm  f=0.0333  <S**2>=0.000
      55 -> 61        -0.11147
      57 -> 60         0.58037
      57 -> 62        -0.14870
      58 -> 60        -0.13308
      58 -> 61        -0.18618
      59 -> 61        -0.24443

 Alpha  occ. eigenvalues --  -89.09721 -19.26247 -14.47717 -10.40618 -10.37647
 Alpha  occ. eigenvalues --  -10.35402 -10.35336 -10.32661 -10.32535 -10.32093
 Alpha  occ. eigenvalues --  -10.31750 -10.31733 -10.31634 -10.31569 -10.30038
 Alpha  occ. eigenvalues --  -10.29670  -8.11574  -6.06446  -6.06092  -6.05616
 Alpha  occ. eigenvalues --   -1.15603  -1.09141  -0.96930  -0.95312  -0.91852
 Alpha  occ. eigenvalues --   -0.88880  -0.85107  -0.84051  -0.82307  -0.75938
 Alpha  occ. eigenvalues --   -0.71134  -0.70295  -0.68755  -0.68426  -0.63336
 Alpha  occ. eigenvalues --   -0.60650  -0.58954  -0.58262  -0.55547  -0.54304
 Alpha  occ. eigenvalues --   -0.54226  -0.53205  -0.52517  -0.51272  -0.49909
 Alpha  occ. eigenvalues --   -0.49755  -0.47535  -0.46118  -0.45507  -0.44828
 Alpha  occ. eigenvalues --   -0.43789  -0.42735  -0.42426  -0.40311  -0.36514
 Alpha  occ. eigenvalues --   -0.35978  -0.32597  -0.31149  -0.27657
 Alpha virt. eigenvalues --   -0.01777   0.04724   0.06922   0.06946   0.07668
 Alpha virt. eigenvalues --    0.10783   0.12619   0.15032   0.15891   0.17864
 Alpha virt. eigenvalues --    0.18782   0.20832   0.21672   0.22388   0.22459

 Mulliken charges:
               1
     1  C    0.008328
     2  C   -0.234837
     3  C    0.269770
     4  C   -0.015363
     5  C    0.011163
     6  C   -0.005964
     7  H    0.021477
     8  H    0.022384
     9  H    0.021283
    10  H    0.022479
    11  N   -0.328239
    12  S    0.167677
    13  C   -0.117562
    14  C   -0.016029
    15  C    0.109129
    16  C   -0.024864
    17  H    0.006784
    18  C    0.000562
    19  C    0.026678
    20  H    0.008893
    21  H    0.013860
    22  H    0.020084
    23  C    0.079021
    24  O   -0.268074
    25  H    0.201359
 Sum of Mulliken charges =  -0.00000

 Dipole moment (field-independent basis, Debye):
    X=              0.2780    Y=             -2.8023    Z=             -0.0000  Tot=              2.8161
 Quadrupole moment (field-independent basis, Debye-Ang):
   XX=            -83.3486   YY=            -90.1274   ZZ=           -104.4189
   XY=             -6.8842   XZ=             -0.0002   YZ=              0.0006

  Exact polarizability:     381.312    -163.203     347.739      -0.002       0.004      63.472
 Approx polarizability:     277.613     -35.581     262.747      -0.001       0.003      82.463

 ******    2 imaginary frequencies (negative Signs) ******

                      1                      2                      3
                      A                      A                      A
 Frequencies --   -139.9414               -38.1200                41.6099
 Red. masses --      2.7839                 7.4031                 6.3849
 Frc consts  --      0.0321                 0.0063                 0.0065
 IR Inten    --     78.4509                 0.1712                 1.4031

                      4                      5                      6
                      A                      A                      A
 Frequencies --    103.3723               175.4422               189.8533
 Red. masses --      4.4133                 5.8449                 4.3751
 Frc consts  --      0.0278                 0.1060                 0.0929
 IR Inten    --      0.1254                 0.6033                55.6381

                      7                      8                      9
                      A                      A                      A
 Frequencies --    222.3166               268.1156               268.7549
 Red. masses --      5.3042                 4.7870                 7.5360
 Frc consts  --      0.1545                 0.2027                 0.3207
 IR Inten    --      0.0515                 0.2397                18.6066

                     10                     11                     12
                      A                      A                      A
 Frequencies --    380.2879               392.5760               436.6847
 Red. masses --      4.8909                 7.7188                 3.2037
 Frc consts  --      0.4167                 0.7009                 0.3599
 IR Inten    --      0.4342                 4.7396                 5.1379

                     13                     14                     15
                      A                      A                      A
 Frequencies --    438.0061               482.3190               494.5845
 Red. masses --      4.5806                 4.7413                 3.1651
 Frc consts  --      0.5178                 0.6499                 0.4562
 IR Inten    --     12.4430                 0.0079                 0.2351

                     16                     17                     18
                      A                      A                      A
 Frequencies --    503.4233               531.9950               553.7807
 Red. masses --      8.8877                 8.3442                 3.9039
 Frc consts  --      1.3271                 1.3914                 0.7054
 IR Inten    --      0.1397                15.8224                 0.2240

                     19                     20                     21
                      A                      A                      A
 Frequencies --    580.2112               629.2916               695.0234
 Red. masses --      7.4742                 7.0821                 6.8857
 Frc consts  --      1.4825                 1.6524                 1.9597
 IR Inten    --      1.3087                37.7205                 0.0841

                     22                     23                     24
                      A                      A                      A
 Frequencies --    700.4890               730.7298               737.0483
 Red. masses --      1.7327                 9.3194                 1.9919
 Frc consts  --      0.5009                 2.9319                 0.6375
 IR Inten    --     38.2881                12.6554                22.9648

                     25                     26                     27
                      A                      A                      A
 Frequencies --    761.0953               767.2977               806.7452
 Red. masses --      1.9301                 1.9284                 6.1988
 Frc consts  --      0.6587                 0.6689                 2.3770
 IR Inten    --     26.8913                60.1713                21.3929

                     28                     29                     30
                      A                      A                      A
 Frequencies --    826.2539               858.0816               897.5485
 Red. masses --      1.5786                 1.4196                 5.2387
 Frc consts  --      0.6349                 0.6158                 2.4865
 IR Inten    --      0.0054                 1.0086               126.7048

                     31                     32                     33
                      A                      A                      A
 Frequencies --    914.2209               939.9843               951.4193
 Red. masses --      1.3622                 4.3228                 1.3460
 Frc consts  --      0.6708                 2.2504                 0.7178
 IR Inten    --      5.4651                79.1835                 1.6061

                     34                     35                     36
                      A                      A                      A
 Frequencies --    959.2356               998.5512              1011.3932
 Red. masses --      1.3761                 1.2961                 4.1593
 Frc consts  --      0.7460                 0.7614                 2.5068
 IR Inten    --      0.6752                 0.0138                11.9803

                     37                     38                     39
                      A                      A                      A
 Frequencies --   1037.5044              1046.7697              1079.3359
 Red. masses --      2.2301                 1.9080                 4.9978
 Frc consts  --      1.4143                 1.2318                 3.4304
 IR Inten    --      0.9195                 6.2156                56.3679

                     40                     41                     42
                      A                      A                      A
 Frequencies --   1137.2171              1151.0064              1172.3395
 Red. masses --      1.3699                 1.3199                 1.1669
 Frc consts  --      1.0438                 1.0302                 0.9449
 IR Inten    --     52.3780                18.8084                74.9750

                     43                     44                     45
                      A                      A                      A
 Frequencies --   1177.5110              1187.3612              1249.9324
 Red. masses --      1.1598                 1.0575                 1.9626
 Frc consts  --      0.9474                 0.8784                 1.8066
 IR Inten    --     79.3232                63.3043               132.3101

                     46                     47                     48
                      A                      A                      A
 Frequencies --   1256.2828              1286.6185              1351.0013
 Red. masses --      3.7372                 1.8151                 2.6840
 Frc consts  --      3.4751                 1.7703                 2.8863
 IR Inten    --     26.8940                12.7676               102.2344

                     49                     50                     51
                      A                      A                      A
 Frequencies --   1372.2316              1401.9080              1423.6173
 Red. masses --      5.8964                 2.1247                 2.5415
 Frc consts  --      6.5417                 2.4603                 3.0347
 IR Inten    --    197.5170                 3.9519                57.4445

                     52                     53                     54
                      A                      A                      A
 Frequencies --   1449.8561              1477.5720              1503.2071
 Red. masses --      3.4730                 3.3136                 4.8716
 Frc consts  --      4.3014                 4.2623                 6.4857
 IR Inten    --    326.4513               336.2295               523.0265

                     55                     56                     57
                      A                      A                      A
 Frequencies --   1537.9420              1547.6488              1557.9464
 Red. masses --      4.6447                 4.8254                 4.6791
 Frc consts  --      6.4728                 6.8097                 6.6914
 IR Inten    --    129.0793               168.6430               266.1869

                     58                     59                     60
                      A                      A                      A
 Frequencies --   1617.7128              1649.7218              1660.0918
 Red. masses --      6.0835                 5.4017                 4.8351
 Frc consts  --      9.3801                 8.6616                 7.8509
 IR Inten    --    166.9052               832.2878               116.2339

                     61                     62                     63
                      A                      A                      A
 Frequencies --   1885.0502              3204.7428              3207.9045
 Red. masses --      1.1089                 1.0870                 1.0857
 Frc consts  --      2.3216                 6.5776                 6.5829
 IR Inten    --    194.3000                11.4391                 6.2189

                     64                     65                     66
                      A                      A                      A
 Frequencies --   3216.9688              3217.9616              3226.7048
 Red. masses --      1.0899                 1.0901                 1.0921
 Frc consts  --      6.6455                 6.6506                 6.6994
 IR Inten    --      3.2073                 3.7653                19.2012

                     67                     68                     69
                      A                      A                      A
 Frequencies --   3227.5897              3235.0896              3240.1735
 Red. masses --      1.0954                 1.0995                 1.0987
 Frc consts  --      6.7234                 6.7798                 6.7960
 IR Inten    --     11.5038                30.2970                15.5599

 - Thermochemistry -
 -------------------
 Temperature   298.150 Kelvin.  Pressure   1.00000 Atm.
 Atom     1 has atomic number  6 and mass  12.00000

 Molecular mass:   227.04049 amu.
 Principal axes and moments of inertia in atomic units:
                           1         2         3
     Eigenvalues --  1344.980996317.361457662.34244
           X           -0.70080   0.71336   0.00000
           Y            0.71336   0.70080  -0.00001
           Z            0.00001   0.00001   1.00000
 This molecule is an asymmetric top.
 Rotational symmetry number  1.
 Warning -- assumption of classical behavior for rotation
           may cause significant error
 Rotational temperatures (Kelvin)      0.06440     0.01371     0.01130
 Rotational constants (GHZ):           1.34183     0.28568     0.23553
    2 imaginary frequencies ignored.
 Zero-point vibrational energy     479955.3 (Joules/Mol)
                                  114.71207 (Kcal/Mol)
 Warning -- explicit consideration of  17 degrees of freedom as
           vibrations may cause significant error
 Vibrational temperatures:     59.87   148.73   252.42   273.16   319.86
          (Kelvin)            385.76   386.68   547.15   564.83   628.29
                              630.19   693.95   711.60   724.31   765.42
                              796.77   834.79   905.41   999.98  1007.85
                             1051.36  1060.45  1095.05  1103.97  1160.73
                             1188.80  1234.59  1291.37  1315.36  1352.43
                             1368.88  1380.13  1436.69  1455.17  1492.74
                             1506.07  1552.92  1636.20  1656.04  1686.74
                             1694.18  1708.35  1798.37  1807.51  1851.16
                             1943.79  1974.34  2017.03  2048.27  2086.02
                             2125.90  2162.78  2212.76  2226.72  2241.54
                             2327.53  2373.58  2388.50  2712.17  4610.91
                             4615.46  4628.50  4629.93  4642.51  4643.78
                             4654.57  4661.89

 Zero-point correction=                           0.182805 (Hartree/Particle)
 Thermal correction to Energy=                    0.193854
 Thermal correction to Enthalpy=                  0.194798
 Thermal correction to Gibbs Free Energy=         0.145159
 Sum of electronic and zero-point Energies=          -1028.505105
 Sum of electronic and thermal Energies=             -1028.494057
 Sum of electronic and thermal Enthalpies=           -1028.493113
 Sum of electronic and thermal Free Energies=        -1028.542752

                     E (Thermal)             CV                S
                      KCal/Mol        Cal/Mol-Kelvin    Cal/Mol-Kelvin
 Total                  121.645             45.915            104.474
 Electronic               0.000              0.000              0.000
 Translational            0.889              2.981             42.162
 Rotational               0.889              2.981             32.543
 Vibrational            119.868             39.954             29.769
 Vibration     1          0.594              1.981              5.181
 Vibration     2          0.605              1.947              3.390
 Vibration     3          0.627              1.873              2.376
 Vibration     4          0.633              1.854              2.229
 Vibration     5          0.648              1.807              1.940
 Vibration     6          0.673              1.732              1.608
 Vibration     7          0.673              1.731              1.604
 Vibration     8          0.750              1.512              1.038
 Vibration     9          0.760              1.486              0.990
 Vibration    10          0.797              1.390              0.837
 Vibration    11          0.798              1.387              0.833
 Vibration    12          0.839              1.289              0.704
 Vibration    13          0.850              1.262              0.672
 Vibration    14          0.859              1.242              0.650
 Vibration    15          0.887              1.179              0.583
 Vibration    16          0.909              1.131              0.536
 Vibration    17          0.937              1.074              0.485

 Optimization completed.
    -- Stationary point found.
 Normal termination of Gaussian 16 at Mon Jul 13 15:27:47 2020.
