 Gaussian 16, Revision C.01,
 Gaussian 16:  ES64L-G16RevC.01  3-Jul-2019

 ----------------------------------------------------------------------
 #p opt=addgic freq td wb97xd/cc-pvdz nosymm int=ultrafine scrf=(solven
 t=CarbonTetraChloride)
 ----------------------------------------------------------------------

 ------------------------------------------------
 NM 2D-scan of HBT TD-WB97XD pVDZ in CTC Relaxed.
 ------------------------------------------------
 Symbolic Z-matrix:
 Charge =  0 Multiplicity = 1

 SCF Done:  E(RwB97XD) =  -1028.78090586     A.U. after   16 cycles
 Total Energy, E(TD-HF/TD-DFT) =  -1028.67311718
 SCF Done:  E(RwB97XD) =  -1028.79705978     A.U. after   13 cycles
 Total Energy, E(TD-HF/TD-DFT) =  -1028.69506681
 SCF Done:  E(RwB97XD) =  -1028.80329308     A.U. after   13 cycles
 Total Energy, E(TD-HF/TD-DFT) =  -1028.69742128
 SCF Done:  E(RwB97XD) =  -1028.80287744     A.U. after   12 cycles
 Total Energy, E(TD-HF/TD-DFT) =  -1028.69810254
 SCF Done:  E(RwB97XD) =  -1028.80290616     A.U. after   10 cycles
 Total Energy, E(TD-HF/TD-DFT) =  -1028.69811475
 Optimization completed.
    -- Stationary point found.
 Normal termination of Gaussian 16 at Mon Jul 13 16:51:54 2020.

 ----------------------------------------------------------------------
 #P Geom=AllCheck Guess=TCheck SCRF=Check GenChk RwB97XD TD(FC,Read)/CC
 -pVDZ Freq
 ----------------------------------------------------------------------

 Structure from the checkpoint file:  "config_10_6.chk"
 ------------------------------------------------
 NM 2D-scan of HBT TD-WB97XD pVDZ in CTC Relaxed.
 ------------------------------------------------
 Charge =  0 Multiplicity = 1

                          Input orientation:
 ---------------------------------------------------------------------
 Center     Atomic      Atomic             Coordinates (Angstroms)
 Number     Number       Type             X           Y           Z
 ---------------------------------------------------------------------
      1          6           0        1.709709   -3.287916   -0.000005
      2          6           0        1.015646   -2.081221   -0.000011
      3          6           0        1.717930   -0.864570   -0.000028
      4          6           0        3.118739   -0.824397   -0.000036
      5          6           0        3.799398   -2.033388   -0.000030
      6          6           0        3.106658   -3.252059   -0.000016
      7          1           0        1.179224   -4.240499    0.000007
      8          1           0        3.641706    0.132270   -0.000047
      9          1           0        4.890447   -2.033615   -0.000037
     10          1           0        3.663360   -4.189779   -0.000013
     11          7           0        0.881052    0.200257   -0.000035
     12         16           0       -0.732857   -1.772905    0.000003
     13          6           0       -1.405123    1.055676    0.000002
     14          6           0       -2.782045    0.880959   -0.000022
     15          6           0       -0.870462    2.448804    0.000044
     16          6           0       -3.680849    1.984978    0.000012
     17          1           0       -3.199744   -0.129073   -0.000066
     18          6           0       -1.824338    3.515045    0.000076
     19          6           0       -3.205100    3.292598    0.000065
     20          1           0       -4.753729    1.786970   -0.000002
     21          1           0       -1.408728    4.524300    0.000116
     22          1           0       -3.900151    4.133294    0.000093
     23          6           0       -0.458177   -0.032694   -0.000015
     24          8           0        0.367870    2.680663    0.000051
     25          1           0        1.175591    1.181633   -0.000027
 ---------------------------------------------------------------------

 SCF Done:  E(RwB97XD) =  -1028.80290616     A.U. after    1 cycles

 Excitation energies and oscillator strengths:

 Excited state symmetry could not be determined.
 Excited State   1:      Singlet-?Sym    2.8515 eV  434.80 nm  f=0.4358  <S**2>=0.000
      59 -> 60         0.69633
 This state for optimization and/or second-order correction.
 Total Energy, E(TD-HF/TD-DFT) =  -1028.69811476
 Copying the excited state density for this state as the 1-particle RhoCI density.

 Excited state symmetry could not be determined.
 Excited State   2:      Singlet-?Sym    3.6258 eV  341.95 nm  f=0.0000  <S**2>=0.000
      57 -> 60         0.68352
      57 -> 62         0.11765
      57 -> 64         0.11390

 Excited state symmetry could not be determined.
 Excited State   3:      Singlet-?Sym    4.3331 eV  286.13 nm  f=0.4584  <S**2>=0.000
      58 -> 60         0.68068

 Alpha  occ. eigenvalues --  -89.10744 -19.21070 -14.52093 -10.42318 -10.37278
 Alpha  occ. eigenvalues --  -10.36351 -10.35924 -10.33551 -10.33031 -10.32679
 Alpha  occ. eigenvalues --  -10.32475 -10.31499 -10.31328 -10.30667 -10.29143
 Alpha  occ. eigenvalues --  -10.28264  -8.12676  -6.07561  -6.07182  -6.06694
 Alpha  occ. eigenvalues --   -1.13214  -1.09523  -0.98440  -0.95123  -0.93222
 Alpha  occ. eigenvalues --   -0.89187  -0.86568  -0.84078  -0.80990  -0.76057
 Alpha  occ. eigenvalues --   -0.73449  -0.71875  -0.69061  -0.67582  -0.64974
 Alpha  occ. eigenvalues --   -0.60983  -0.59775  -0.56649  -0.56037  -0.55702
 Alpha  occ. eigenvalues --   -0.54996  -0.53641  -0.53094  -0.50812  -0.49028
 Alpha  occ. eigenvalues --   -0.48769  -0.48285  -0.46961  -0.45519  -0.44816
 Alpha  occ. eigenvalues --   -0.44366  -0.42917  -0.42097  -0.40201  -0.36877
 Alpha  occ. eigenvalues --   -0.33718  -0.31644  -0.31494  -0.25782
 Alpha virt. eigenvalues --   -0.02132   0.03655   0.05913   0.06321   0.09343
 Alpha virt. eigenvalues --    0.10662   0.12381   0.14566   0.16082   0.17185
 Alpha virt. eigenvalues --    0.18741   0.20014   0.20977   0.21340   0.23044

 Mulliken charges:
               1
     1  C    0.013755
     2  C   -0.248217
     3  C    0.255981
     4  C   -0.010020
     5  C    0.014279
     6  C    0.000419
     7  H    0.026732
     8  H    0.033120
     9  H    0.028254
    10  H    0.027247
    11  N   -0.109901
    12  S    0.199603
    13  C   -0.108365
    14  C   -0.024603
    15  C    0.117902
    16  C   -0.038402
    17  H    0.002254
    18  C   -0.030865
    19  C    0.033984
    20  H    0.002091
    21  H    0.000641
    22  H    0.014042
    23  C    0.066564
    24  O   -0.401957
    25  H    0.135460
 Sum of Mulliken charges =  -0.00000

 Dipole moment (field-independent basis, Debye):
    X=              1.9884    Y=             -5.6489    Z=             -0.0001  Tot=              5.9886
 Quadrupole moment (field-independent basis, Debye-Ang):
   XX=            -82.3052   YY=            -95.3465   ZZ=           -104.2422
   XY=             -6.5674   XZ=             -0.0002   YZ=             -0.0001

  Exact polarizability:     349.075    -122.416     298.069      -0.002       0.003      63.322
 Approx polarizability:     274.988     -38.186     266.189      -0.001       0.002      82.104

 ******    1 imaginary frequencies (negative Signs) ******

                      1                      2                      3
                      A                      A                      A
 Frequencies --    -70.6535                44.0126               105.6332
 Red. masses --      6.6972                 6.4605                 4.8940
 Frc consts  --      0.0197                 0.0074                 0.0322
 IR Inten    --      1.5842                 1.7188                 0.1754

                      4                      5                      6
                      A                      A                      A
 Frequencies --    111.9390               175.1343               225.5157
 Red. masses --      5.7349                 5.2625                 5.4210
 Frc consts  --      0.0423                 0.0951                 0.1624
 IR Inten    --      7.7642                 0.0849                 0.2919

                      7                      8                      9
                      A                      A                      A
 Frequencies --    263.3843               270.9945               317.2990
 Red. masses --      7.5968                 4.6164                 7.4481
 Frc consts  --      0.3105                 0.1997                 0.4418
 IR Inten    --      1.0862                 0.8649                 4.5843

                     10                     11                     12
                      A                      A                      A
 Frequencies --    350.8983               383.2993               431.3955
 Red. masses --      4.7961                 8.6458                 3.4264
 Frc consts  --      0.3479                 0.7484                 0.3757
 IR Inten    --      0.9943                 5.9955                 4.0557

                     13                     14                     15
                      A                      A                      A
 Frequencies --    451.5095               501.1070               509.1949
 Red. masses --      4.5706                 8.3932                 3.1972
 Frc consts  --      0.5490                 1.2418                 0.4884
 IR Inten    --      2.9197                 9.3792                 0.5015

                     16                     17                     18
                      A                      A                      A
 Frequencies --    539.5917               556.3217               561.7949
 Red. masses --      8.7717                 3.8164                 6.7946
 Frc consts  --      1.5047                 0.6959                 1.2635
 IR Inten    --      9.8501                 1.0192                30.9243

                     19                     20                     21
                      A                      A                      A
 Frequencies --    568.6151               639.2918               688.7460
 Red. masses --      7.4198                 6.1393                 1.5625
 Frc consts  --      1.4134                 1.4783                 0.4367
 IR Inten    --     18.4037                53.4176                39.1800

                     22                     23                     24
                      A                      A                      A
 Frequencies --    702.0296               728.0375               743.0552
 Red. masses --      6.3329                 8.1401                 2.5657
 Frc consts  --      1.8389                 2.5421                 0.8346
 IR Inten    --      1.4548                 3.7999                13.2753

                     25                     26                     27
                      A                      A                      A
 Frequencies --    761.7692               766.8027               811.7448
 Red. masses --      1.7514                 1.6148                 6.4049
 Frc consts  --      0.5988                 0.5594                 2.4866
 IR Inten    --      7.5731                63.6298                18.1851

                     28                     29                     30
                      A                      A                      A
 Frequencies --    828.5000               842.0738               866.4215
 Red. masses --      1.1022                 1.7691                 1.3777
 Frc consts  --      0.4458                 0.7391                 0.6093
 IR Inten    --     70.8659                 9.0947                 5.5988

                     31                     32                     33
                      A                      A                      A
 Frequencies --    888.3518               906.1701               953.5809
 Red. masses --      4.9519                 1.4284                 1.3630
 Frc consts  --      2.3025                 0.6911                 0.7302
 IR Inten    --      3.5016                 9.5311                 1.0111

                     34                     35                     36
                      A                      A                      A
 Frequencies --    957.3333               957.9190              1004.3355
 Red. masses --      5.3887                 1.3481                 1.2940
 Frc consts  --      2.9098                 0.7288                 0.7690
 IR Inten    --      1.1338                 1.6986                 0.0078

                     37                     38                     39
                      A                      A                      A
 Frequencies --   1043.2806              1052.6249              1081.0602
 Red. masses --      2.2117                 2.1736                 4.1107
 Frc consts  --      1.4184                 1.4190                 2.8305
 IR Inten    --      0.3514                 8.2440                 1.4653

                     40                     41                     42
                      A                      A                      A
 Frequencies --   1108.0215              1150.3788              1159.7762
 Red. masses --      1.5933                 1.3198                 1.1850
 Frc consts  --      1.1525                 1.0291                 0.9391
 IR Inten    --     40.5129                 5.3243                70.4713

                     43                     44                     45
                      A                      A                      A
 Frequencies --   1180.0705              1214.6269              1248.1271
 Red. masses --      1.1387                 1.8805                 2.2713
 Frc consts  --      0.9343                 1.6346                 2.0847
 IR Inten    --     27.5109                84.3033                26.2145

                     46                     47                     48
                      A                      A                      A
 Frequencies --   1286.4640              1298.9910              1335.8803
 Red. masses --      1.6646                 1.8677                 4.7981
 Frc consts  --      1.6231                 1.8568                 5.0449
 IR Inten    --    121.8501                21.8714                23.4069

                     49                     50                     51
                      A                      A                      A
 Frequencies --   1370.0008              1392.3814              1399.0619
 Red. masses --      3.4945                 2.3823                 3.4049
 Frc consts  --      3.8643                 2.7212                 3.9267
 IR Inten    --     94.2696                46.0709                20.8235

                     52                     53                     54
                      A                      A                      A
 Frequencies --   1440.6836              1478.0929              1512.4674
 Red. masses --      3.1745                 2.8166                 2.9620
 Frc consts  --      3.8821                 3.6256                 3.9921
 IR Inten    --    259.4774                 4.5223                26.3433

                     55                     56                     57
                      A                      A                      A
 Frequencies --   1529.6148              1569.7030              1589.7071
 Red. masses --      3.9543                 5.4659                 4.7597
 Frc consts  --      5.4511                 7.9351                 7.0870
 IR Inten    --     55.8015               204.2332                86.0185

                     58                     59                     60
                      A                      A                      A
 Frequencies --   1626.9528              1657.5986              1672.5584
 Red. masses --      6.9458                 6.5919                 6.7889
 Frc consts  --     10.8323                10.6714                11.1896
 IR Inten    --    171.7889                 7.4695               194.7775

                     61                     62                     63
                      A                      A                      A
 Frequencies --   3188.7777              3208.9446              3212.8459
 Red. masses --      1.0893                 1.0862                 1.0864
 Frc consts  --      6.5262                 6.5901                 6.6075
 IR Inten    --     19.2873                 2.1740                 6.0122

                     64                     65                     66
                      A                      A                      A
 Frequencies --   3221.1714              3224.1201              3232.9042
 Red. masses --      1.0919                 1.0902                 1.0961
 Frc consts  --      6.6750                 6.6767                 6.7499
 IR Inten    --     13.1615                 2.7487                 7.1914

                     67                     68                     69
                      A                      A                      A
 Frequencies --   3233.6465              3240.4975              3386.7076
 Red. masses --      1.0989                 1.0995                 1.0851
 Frc consts  --      6.7700                 6.8022                 7.3328
 IR Inten    --     27.7747                13.9186               843.7891

 - Thermochemistry -
 -------------------
 Temperature   298.150 Kelvin.  Pressure   1.00000 Atm.
 Atom     1 has atomic number  6 and mass  12.00000

 Molecular mass:   227.04049 amu.
 Principal axes and moments of inertia in atomic units:
                           1         2         3
     Eigenvalues --  1308.915216444.437247753.35245
           X           -0.70289   0.71130   0.00000
           Y            0.71130   0.70289  -0.00001
           Z            0.00001   0.00001   1.00000
 This molecule is an asymmetric top.
 Rotational symmetry number  1.
 Warning -- assumption of classical behavior for rotation
           may cause significant error
 Rotational temperatures (Kelvin)      0.06617     0.01344     0.01117
 Rotational constants (GHZ):           1.37881     0.28005     0.23277
    1 imaginary frequencies ignored.
 Zero-point vibrational energy     490238.9 (Joules/Mol)
                                  117.16991 (Kcal/Mol)
 Warning -- explicit consideration of  18 degrees of freedom as
           vibrations may cause significant error
 Vibrational temperatures:     63.32   151.98   161.06   251.98   324.47
          (Kelvin)            378.95   389.90   456.52   504.86   551.48
                              620.68   649.62   720.98   732.62   776.35
                              800.42   808.30   818.11   919.80   990.95
                             1010.06  1047.48  1069.09  1096.02  1103.26
                             1167.92  1192.03  1211.56  1246.59  1278.14
                             1303.78  1371.99  1377.39  1378.23  1445.01
                             1501.05  1514.49  1555.40  1594.20  1655.14
                             1668.66  1697.86  1747.58  1795.78  1850.93
                             1868.96  1922.03  1971.13  2003.33  2012.94
                             2072.82  2126.65  2176.10  2200.77  2258.45
                             2287.23  2340.82  2384.91  2406.44  4587.94
                             4616.96  4622.57  4634.55  4638.79  4651.43
                             4652.50  4662.35  4872.72

 Zero-point correction=                           0.186722 (Hartree/Particle)
 Thermal correction to Energy=                    0.198285
 Thermal correction to Enthalpy=                  0.199229
 Thermal correction to Gibbs Free Energy=         0.148567
 Sum of electronic and zero-point Energies=          -1028.511393
 Sum of electronic and thermal Energies=             -1028.499830
 Sum of electronic and thermal Enthalpies=           -1028.498886
 Sum of electronic and thermal Free Energies=        -1028.549547

                     E (Thermal)             CV                S
                      KCal/Mol        Cal/Mol-Kelvin    Cal/Mol-Kelvin
 Total                  124.426             47.641            106.627
 Electronic               0.000              0.000              0.000
 Translational            0.889              2.981             42.162
 Rotational               0.889              2.981             32.547
 Vibrational            122.648             41.679             31.917
 Vibration     1          0.595              1.980              5.070
 Vibration     2          0.605              1.945              3.348
 Vibration     3          0.607              1.940              3.235
 Vibration     4          0.627              1.873              2.380
 Vibration     5          0.650              1.802              1.914
 Vibration     6          0.670              1.740              1.639
 Vibration     7          0.675              1.727              1.590
 Vibration     8          0.704              1.641              1.324
 Vibration     9          0.728              1.573              1.162
 Vibration    10          0.752              1.506              1.026
 Vibration    11          0.792              1.402              0.854
 Vibration    12          0.810              1.358              0.791
 Vibration    13          0.856              1.248              0.655
 Vibration    14          0.864              1.230              0.636
 Vibration    15          0.895              1.163              0.566
 Vibration    16          0.912              1.126              0.531
 Vibration    17          0.917              1.114              0.520
 Vibration    18          0.925              1.099              0.507

 Optimization completed.
    -- Stationary point found.
 Normal termination of Gaussian 16 at Mon Jul 13 17:10:00 2020.
