 Gaussian 16, Revision C.01,
 Gaussian 16:  ES64L-G16RevC.01  3-Jul-2019

 ----------------------------------------------------------------------
 #p opt=addgic freq td wb97xd/cc-pvdz nosymm int=ultrafine scrf=(solven
 t=CarbonTetraChloride)
 ----------------------------------------------------------------------

 ------------------------------------------------
 NM 2D-scan of HBT TD-WB97XD pVDZ in CTC Relaxed.
 ------------------------------------------------
 Symbolic Z-matrix:
 Charge =  0 Multiplicity = 1

 SCF Done:  E(RwB97XD) =  -1028.80477584     A.U. after   15 cycles
 Total Energy, E(TD-HF/TD-DFT) =  -1028.68960427
 SCF Done:  E(RwB97XD) =  -1028.79850399     A.U. after   14 cycles
 Total Energy, E(TD-HF/TD-DFT) =  -1028.69043427
 SCF Done:  E(RwB97XD) =  -1028.80324655     A.U. after   13 cycles
 Total Energy, E(TD-HF/TD-DFT) =  -1028.69211560
 SCF Done:  E(RwB97XD) =  -1028.80346258     A.U. after   11 cycles
 Total Energy, E(TD-HF/TD-DFT) =  -1028.69216472
 SCF Done:  E(RwB97XD) =  -1028.80340315     A.U. after   10 cycles
 Total Energy, E(TD-HF/TD-DFT) =  -1028.69217190
 SCF Done:  E(RwB97XD) =  -1028.80338383     A.U. after    9 cycles
 Total Energy, E(TD-HF/TD-DFT) =  -1028.69217257
 SCF Done:  E(RwB97XD) =  -1028.80337692     A.U. after    9 cycles
 Total Energy, E(TD-HF/TD-DFT) =  -1028.69217293
 Optimization completed.
    -- Stationary point found.
 Normal termination of Gaussian 16 at Mon Jul 13 15:20:34 2020.

 ----------------------------------------------------------------------
 #P Geom=AllCheck Guess=TCheck SCRF=Check GenChk RwB97XD TD(FC,Read)/CC
 -pVDZ Freq
 ----------------------------------------------------------------------

 Structure from the checkpoint file:  "config_7_15.chk"
 ------------------------------------------------
 NM 2D-scan of HBT TD-WB97XD pVDZ in CTC Relaxed.
 ------------------------------------------------
 Charge =  0 Multiplicity = 1

                          Input orientation:
 ---------------------------------------------------------------------
 Center     Atomic      Atomic             Coordinates (Angstroms)
 Number     Number       Type             X           Y           Z
 ---------------------------------------------------------------------
      1          6           0        1.567083   -3.274770   -0.000191
      2          6           0        0.988174   -2.007720   -0.000074
      3          6           0        1.768047   -0.811678    0.000078
      4          6           0        3.169879   -0.928780    0.000127
      5          6           0        3.739544   -2.195448    0.000005
      6          6           0        2.956157   -3.362056   -0.000155
      7          1           0        0.945067   -4.170822   -0.000298
      8          1           0        3.789409   -0.031524    0.000255
      9          1           0        4.827183   -2.284981    0.000039
     10          1           0        3.437798   -4.340579   -0.000241
     11          7           0        1.021619    0.342011    0.000187
     12         16           0       -0.716904   -1.636333   -0.000047
     13          6           0       -1.317987    1.077195    0.000069
     14          6           0       -2.683568    0.760945    0.000153
     15          6           0       -0.911954    2.497033   -0.000084
     16          6           0       -3.650722    1.773866    0.000134
     17          1           0       -3.004782   -0.282660    0.000257
     18          6           0       -1.926301    3.484075   -0.000133
     19          6           0       -3.274972    3.126701   -0.000004
     20          1           0       -4.707164    1.501826    0.000216
     21          1           0       -1.606459    4.526887   -0.000289
     22          1           0       -4.041961    3.901898   -0.000040
     23          6           0       -0.314377    0.078903    0.000079
     24          8           0        0.334679    2.810267   -0.000364
     25          1           0        1.091647    1.489630    0.000426
 ---------------------------------------------------------------------

 SCF Done:  E(RwB97XD) =  -1028.80337692     A.U. after    1 cycles

 Excitation energies and oscillator strengths:

 Excited state symmetry could not be determined.
 Excited State   1:      Singlet-?Sym    3.0260 eV  409.73 nm  f=0.4469  <S**2>=0.000
      59 -> 60         0.69562
 This state for optimization and/or second-order correction.
 Total Energy, E(TD-HF/TD-DFT) =  -1028.69217295
 Copying the excited state density for this state as the 1-particle RhoCI density.

 Excited state symmetry could not be determined.
 Excited State   2:      Singlet-?Sym    4.0745 eV  304.29 nm  f=0.0000  <S**2>=0.000
      57 -> 60         0.68526
      57 -> 62         0.11159
      57 -> 64         0.11561

 Excited state symmetry could not be determined.
 Excited State   3:      Singlet-?Sym    4.3017 eV  288.22 nm  f=0.3277  <S**2>=0.000
      58 -> 60         0.67956

 Alpha  occ. eigenvalues --  -89.10021 -19.22492 -14.51719 -10.41363 -10.37419
 Alpha  occ. eigenvalues --  -10.36365 -10.35988 -10.33070 -10.32631 -10.32246
 Alpha  occ. eigenvalues --  -10.32154 -10.31745 -10.31232 -10.31102 -10.29548
 Alpha  occ. eigenvalues --  -10.28915  -8.12051  -6.06911  -6.06558  -6.06078
 Alpha  occ. eigenvalues --   -1.12119  -1.09448  -0.97899  -0.95553  -0.93112
 Alpha  occ. eigenvalues --   -0.89027  -0.86390  -0.83626  -0.81806  -0.75813
 Alpha  occ. eigenvalues --   -0.72016  -0.71846  -0.68495  -0.67537  -0.64381
 Alpha  occ. eigenvalues --   -0.60975  -0.59513  -0.57069  -0.55294  -0.55170
 Alpha  occ. eigenvalues --   -0.54664  -0.53821  -0.52995  -0.50484  -0.49608
 Alpha  occ. eigenvalues --   -0.48974  -0.48039  -0.46708  -0.45265  -0.45148
 Alpha  occ. eigenvalues --   -0.44143  -0.43163  -0.42012  -0.40512  -0.36695
 Alpha  occ. eigenvalues --   -0.33253  -0.33235  -0.31299  -0.26660
 Alpha virt. eigenvalues --   -0.01957   0.04054   0.05879   0.06651   0.08734
 Alpha virt. eigenvalues --    0.10602   0.14015   0.14856   0.16439   0.17612
 Alpha virt. eigenvalues --    0.18587   0.20445   0.20714   0.21503   0.22602

 Mulliken charges:
               1
     1  C    0.020053
     2  C   -0.224730
     3  C    0.262492
     4  C   -0.014283
     5  C    0.008908
     6  C    0.000766
     7  H    0.024090
     8  H    0.028601
     9  H    0.025276
    10  H    0.025289
    11  N   -0.235499
    12  S    0.193671
    13  C   -0.096615
    14  C   -0.031680
    15  C    0.126177
    16  C   -0.027911
    17  H    0.014668
    18  C   -0.015046
    19  C    0.030612
    20  H    0.003852
    21  H    0.006451
    22  H    0.017113
    23  C    0.062977
    24  O   -0.419790
    25  H    0.214561
 Sum of Mulliken charges =  -0.00000

 Dipole moment (field-independent basis, Debye):
    X=              1.0537    Y=             -4.9675    Z=              0.0011  Tot=              5.0780
 Quadrupole moment (field-independent basis, Debye-Ang):
   XX=            -82.4399   YY=            -94.6704   ZZ=           -104.2544
   XY=             -6.8709   XZ=              0.0011   YZ=              0.0033

  Exact polarizability:     347.846    -126.641     305.180      -0.004       0.003      63.205
 Approx polarizability:     272.586     -34.745     264.616      -0.002       0.000      82.114

 ******    1 imaginary frequencies (negative Signs) ******

                      1                      2                      3
                      A                      A                      A
 Frequencies --   -357.5686                31.6140                70.0369
 Red. masses --      1.9525                 6.3152                 4.7131
 Frc consts  --      0.1471                 0.0037                 0.0136
 IR Inten    --    824.4822                 1.5500                 0.3146

                      4                      5                      6
                      A                      A                      A
 Frequencies --    122.1129               159.4321               185.1718
 Red. masses --      6.0187                 5.3966                 6.3291
 Frc consts  --      0.0529                 0.0808                 0.1279
 IR Inten    --      0.6129                 9.2418                 0.1813

                      7                      8                      9
                      A                      A                      A
 Frequencies --    217.9384               269.5353               286.1139
 Red. masses --      5.5568                 4.6227                 6.7829
 Frc consts  --      0.1555                 0.1979                 0.3271
 IR Inten    --      0.1185                 0.0698                13.9840

                     10                     11                     12
                      A                      A                      A
 Frequencies --    362.2839               403.7510               435.3677
 Red. masses --      5.0040                 9.4791                 3.9803
 Frc consts  --      0.3870                 0.9104                 0.4445
 IR Inten    --      0.7496                13.7128               199.4283

                     13                     14                     15
                      A                      A                      A
 Frequencies --    437.4460               464.2073               505.1662
 Red. masses --      3.2919                 4.5995                 3.1875
 Frc consts  --      0.3711                 0.5840                 0.4793
 IR Inten    --      3.6198                 1.6471                 0.4213

                     16                     17                     18
                      A                      A                      A
 Frequencies --    507.4458               545.5854               558.8970
 Red. masses --      8.7923                 8.7218                 3.8713
 Frc consts  --      1.3339                 1.5296                 0.7125
 IR Inten    --      2.4001                 2.8042                 0.3401

                     19                     20                     21
                      A                      A                      A
 Frequencies --    571.0539               589.9028               673.3608
 Red. masses --      7.3097                 6.3066                 6.2154
 Frc consts  --      1.4044                 1.2930                 1.6604
 IR Inten    --     26.5499                34.5501                 4.7312

                     22                     23                     24
                      A                      A                      A
 Frequencies --    697.9533               721.6618               742.6789
 Red. masses --      1.5554                 6.2868                 2.6178
 Frc consts  --      0.4464                 1.9291                 0.8507
 IR Inten    --     41.4026                 5.2906                15.4983

                     25                     26                     27
                      A                      A                      A
 Frequencies --    760.7655               767.1213               772.8427
 Red. masses --      1.7459                 1.6685                 4.6491
 Frc consts  --      0.5954                 0.5785                 1.6361
 IR Inten    --      4.7472                85.8226                73.0796

                     28                     29                     30
                      A                      A                      A
 Frequencies --    823.4709               828.3258               869.1701
 Red. masses --      1.8136                 6.1416                 1.3823
 Frc consts  --      0.7246                 2.4827                 0.6153
 IR Inten    --      0.1608                20.9873                 0.9453

                     31                     32                     33
                      A                      A                      A
 Frequencies --    903.6510               934.2116               954.3299
 Red. masses --      1.3999                 5.5723                 1.3706
 Frc consts  --      0.6735                 2.8653                 0.7355
 IR Inten    --      5.5577                52.5164                 0.3489

                     34                     35                     36
                      A                      A                      A
 Frequencies --    957.3518              1003.3762              1034.5210
 Red. masses --      1.3510                 1.2982                 4.7754
 Frc consts  --      0.7295                 0.7700                 3.0112
 IR Inten    --      2.0576                 0.0000               201.9957

                     37                     38                     39
                      A                      A                      A
 Frequencies --   1045.6732              1051.0615              1104.8550
 Red. masses --      2.0457                 2.0747                 3.1698
 Frc consts  --      1.3179                 1.3504                 2.2798
 IR Inten    --      1.6665                 1.2276               132.5223

                     40                     41                     42
                      A                      A                      A
 Frequencies --   1130.8125              1133.2487              1155.6579
 Red. masses --      1.4994                 1.0562                 1.3524
 Frc consts  --      1.1297                 0.7992                 1.0642
 IR Inten    --      6.6415                72.0321                 9.8159

                     43                     44                     45
                      A                      A                      A
 Frequencies --   1168.0273              1178.9528              1252.3429
 Red. masses --      1.2113                 1.1856                 1.7959
 Frc consts  --      0.9737                 0.9709                 1.6595
 IR Inten    --     70.4288                 6.8189                69.0552

                     46                     47                     48
                      A                      A                      A
 Frequencies --   1266.4602              1305.2905              1337.5280
 Red. masses --      2.5526                 2.2309                 4.4151
 Frc consts  --      2.4122                 2.2394                 4.6536
 IR Inten    --     31.0284                10.9488                 7.1745

                     49                     50                     51
                      A                      A                      A
 Frequencies --   1352.7441              1381.0962              1403.9510
 Red. masses --      6.3204                 3.0318                 2.4545
 Frc consts  --      6.8143                 3.4072                 2.8504
 IR Inten    --    194.2996                93.4319                18.4389

                     52                     53                     54
                      A                      A                      A
 Frequencies --   1442.6711              1477.6414              1493.7790
 Red. masses --      2.9938                 3.3595                 3.7992
 Frc consts  --      3.6712                 4.3217                 4.9948
 IR Inten    --    562.8248                 5.8345                97.5683

                     55                     56                     57
                      A                      A                      A
 Frequencies --   1512.0854              1546.9277              1568.8056
 Red. masses --      3.8011                 5.1783                 4.5977
 Frc consts  --      5.1205                 7.3009                 6.6669
 IR Inten    --    126.9209                68.7233                30.1189

                     58                     59                     60
                      A                      A                      A
 Frequencies --   1620.8842              1625.9663              1660.1132
 Red. masses --      5.8575                 5.9684                 6.5207
 Frc consts  --      9.0671                 9.2967                10.5882
 IR Inten    --    158.5155               417.0713               100.1334

                     61                     62                     63
                      A                      A                      A
 Frequencies --   2123.2042              3205.0870              3209.4935
 Red. masses --      1.1086                 1.0871                 1.0860
 Frc consts  --      2.9444                 6.5799                 6.5913
 IR Inten    --    859.2316                22.5128                 3.9220

                     64                     65                     66
                      A                      A                      A
 Frequencies --   3216.9848              3218.9446              3227.2786
 Red. masses --      1.0878                 1.0903                 1.0933
 Frc consts  --      6.6327                 6.6564                 6.7093
 IR Inten    --      6.0715                 3.1581                16.9596

                     67                     68                     69
                      A                      A                      A
 Frequencies --   3229.6042              3236.4487              3238.8144
 Red. masses --      1.0955                 1.0995                 1.0986
 Frc consts  --      6.7322                 6.7855                 6.7897
 IR Inten    --      8.1551                18.4239                19.0738

 - Thermochemistry -
 -------------------
 Temperature   298.150 Kelvin.  Pressure   1.00000 Atm.
 Atom     1 has atomic number  6 and mass  12.00000

 Molecular mass:   227.04049 amu.
 Principal axes and moments of inertia in atomic units:
                           1         2         3
     Eigenvalues --  1297.308856345.091977642.40079
           X           -0.70148   0.71269   0.00002
           Y            0.71269   0.70148   0.00001
           Z            0.00000  -0.00002   1.00000
 This molecule is an asymmetric top.
 Rotational symmetry number  1.
 Warning -- assumption of classical behavior for rotation
           may cause significant error
 Rotational temperatures (Kelvin)      0.06676     0.01365     0.01133
 Rotational constants (GHZ):           1.39114     0.28443     0.23615
    1 imaginary frequencies ignored.
 Zero-point vibrational energy     480242.6 (Joules/Mol)
                                  114.78073 (Kcal/Mol)
 Warning -- explicit consideration of  19 degrees of freedom as
           vibrations may cause significant error
 Vibrational temperatures:     45.49   100.77   175.69   229.39   266.42
          (Kelvin)            313.56   387.80   411.65   521.25   580.91
                              626.40   629.39   667.89   726.82   730.10
                              784.98   804.13   821.62   848.74   968.82
                             1004.20  1038.31  1068.55  1094.57  1103.72
                             1111.95  1184.79  1191.78  1250.54  1300.15
                             1344.12  1373.07  1377.42  1443.63  1488.44
                             1504.49  1512.24  1589.64  1626.99  1630.49
                             1662.73  1680.53  1696.25  1801.84  1822.15
                             1878.02  1924.40  1946.30  1987.09  2019.97
                             2075.68  2126.00  2149.21  2175.55  2225.68
                             2257.16  2332.09  2339.40  2388.53  3054.82
                             4611.41  4617.75  4628.52  4631.34  4643.33
                             4646.68  4656.53  4659.93

 Zero-point correction=                           0.182915 (Hartree/Particle)
 Thermal correction to Energy=                    0.194824
 Thermal correction to Enthalpy=                  0.195768
 Thermal correction to Gibbs Free Energy=         0.143902
 Sum of electronic and zero-point Energies=          -1028.509258
 Sum of electronic and thermal Energies=             -1028.497349
 Sum of electronic and thermal Enthalpies=           -1028.496405
 Sum of electronic and thermal Free Energies=        -1028.548271

                     E (Thermal)             CV                S
                      KCal/Mol        Cal/Mol-Kelvin    Cal/Mol-Kelvin
 Total                  122.254             48.171            109.161
 Electronic               0.000              0.000              0.000
 Translational            0.889              2.981             42.162
 Rotational               0.889              2.981             32.509
 Vibrational            120.476             42.209             34.490
 Vibration     1          0.594              1.983              5.725
 Vibration     2          0.598              1.968              4.152
 Vibration     3          0.610              1.931              3.067
 Vibration     4          0.621              1.892              2.557
 Vibration     5          0.631              1.860              2.276
 Vibration     6          0.646              1.814              1.976
 Vibration     7          0.674              1.729              1.599
 Vibration     8          0.684              1.699              1.497
 Vibration     9          0.736              1.550              1.112
 Vibration    10          0.769              1.462              0.949
 Vibration    11          0.796              1.393              0.841
 Vibration    12          0.798              1.389              0.835
 Vibration    13          0.822              1.329              0.754
 Vibration    14          0.860              1.239              0.645
 Vibration    15          0.863              1.233              0.640
 Vibration    16          0.901              1.149              0.553
 Vibration    17          0.914              1.120              0.526
 Vibration    18          0.927              1.094              0.502
 Vibration    19          0.947              1.053              0.467

 Optimization completed.
    -- Stationary point found.
 Normal termination of Gaussian 16 at Mon Jul 13 15:38:45 2020.
