 Gaussian 16, Revision C.01,
 Gaussian 16:  ES64L-G16RevC.01  3-Jul-2019

 ----------------------------------------------------------------------
 #p opt=addgic freq td wb97xd/cc-pvdz nosymm int=ultrafine scrf=(solven
 t=CarbonTetraChloride)
 ----------------------------------------------------------------------

 ------------------------------------------------
 NM 2D-scan of HBT TD-WB97XD pVDZ in CTC Relaxed.
 ------------------------------------------------
 Symbolic Z-matrix:
 Charge =  0 Multiplicity = 1

 SCF Done:  E(RwB97XD) =  -1028.57877192     A.U. after   15 cycles
 Total Energy, E(TD-HF/TD-DFT) =  -1028.44782012
 SCF Done:  E(RwB97XD) =  -1028.76639926     A.U. after   13 cycles
 Total Energy, E(TD-HF/TD-DFT) =  -1028.63725212
 SCF Done:  E(RwB97XD) =  -1028.79149710     A.U. after   15 cycles
 Total Energy, E(TD-HF/TD-DFT) =  -1028.66668836
 SCF Done:  E(RwB97XD) =  -1028.80582522     A.U. after   13 cycles
 Total Energy, E(TD-HF/TD-DFT) =  -1028.67984162
 SCF Done:  E(RwB97XD) =  -1028.80705545     A.U. after   12 cycles
 Total Energy, E(TD-HF/TD-DFT) =  -1028.68036130
 SCF Done:  E(RwB97XD) =  -1028.80713636     A.U. after   10 cycles
 Total Energy, E(TD-HF/TD-DFT) =  -1028.68041797
 SCF Done:  E(RwB97XD) =  -1028.80721352     A.U. after    9 cycles
 Total Energy, E(TD-HF/TD-DFT) =  -1028.68042470
 Optimization completed.
    -- Stationary point found.
 Normal termination of Gaussian 16 at Mon Jul 13 17:53:30 2020.

 ----------------------------------------------------------------------
 #P Geom=AllCheck Guess=TCheck SCRF=Check GenChk RwB97XD TD(FC,Read)/CC
 -pVDZ Freq
 ----------------------------------------------------------------------

 Structure from the checkpoint file:  "config_2_2.chk"
 ------------------------------------------------
 NM 2D-scan of HBT TD-WB97XD pVDZ in CTC Relaxed.
 ------------------------------------------------
 Charge =  0 Multiplicity = 1

                          Input orientation:
 ---------------------------------------------------------------------
 Center     Atomic      Atomic             Coordinates (Angstroms)
 Number     Number       Type             X           Y           Z
 ---------------------------------------------------------------------
      1          6           0        1.753097   -3.313387   -0.000033
      2          6           0        0.967594   -2.156294   -0.000018
      3          6           0        1.622480   -0.875235   -0.000001
      4          6           0        3.039342   -0.773411    0.000008
      5          6           0        3.788646   -1.921366   -0.000007
      6          6           0        3.149492   -3.183820   -0.000028
      7          1           0        1.301319   -4.306418   -0.000047
      8          1           0        3.483910    0.222310    0.000023
      9          1           0        4.878677   -1.868428   -0.000002
     10          1           0        3.759858   -4.088558   -0.000040
     11          7           0        0.859788    0.204608    0.000004
     12         16           0       -0.782802   -1.898857   -0.000016
     13          6           0       -1.386836    1.011747   -0.000012
     14          6           0       -2.817565    0.908197   -0.000022
     15          6           0       -0.886600    2.420752    0.000009
     16          6           0       -3.637108    2.023871    0.000029
     17          1           0       -3.267614   -0.086277   -0.000059
     18          6           0       -1.751449    3.517459    0.000072
     19          6           0       -3.119066    3.343446    0.000088
     20          1           0       -4.719118    1.881595    0.000026
     21          1           0       -1.284117    4.502407    0.000096
     22          1           0       -3.788919    4.203439    0.000135
     23          6           0       -0.468143   -0.070345   -0.000009
     24          8           0        0.388742    2.794921   -0.000040
     25          1           0        0.945998    1.991200   -0.000057
 ---------------------------------------------------------------------

 SCF Done:  E(RwB97XD) =  -1028.80721352     A.U. after    1 cycles

 Excitation energies and oscillator strengths:

 Excited state symmetry could not be determined.
 Excited State   1:      Singlet-?Sym    3.4501 eV  359.36 nm  f=0.7270  <S**2>=0.000
      59 -> 60         0.69045
 This state for optimization and/or second-order correction.
 Total Energy, E(TD-HF/TD-DFT) =  -1028.68042467
 Copying the excited state density for this state as the 1-particle RhoCI density.

 Excited state symmetry could not be determined.
 Excited State   2:      Singlet-?Sym    4.3730 eV  283.52 nm  f=0.2017  <S**2>=0.000
      57 -> 60        -0.25910
      58 -> 60        -0.60567
      59 -> 63         0.16093

 Excited state symmetry could not be determined.
 Excited State   3:      Singlet-?Sym    4.5264 eV  273.91 nm  f=0.0501  <S**2>=0.000
      57 -> 60         0.56342
      57 -> 64        -0.13820
      58 -> 60        -0.24510
      58 -> 61        -0.11483
      59 -> 61         0.24783

 Alpha  occ. eigenvalues --  -89.09215 -19.29010 -14.46652 -10.40039 -10.38433
 Alpha  occ. eigenvalues --  -10.35035 -10.34551 -10.33490 -10.32366 -10.32340
 Alpha  occ. eigenvalues --  -10.31833 -10.31455 -10.31190 -10.31120 -10.30497
 Alpha  occ. eigenvalues --  -10.30168  -8.10971  -6.05844  -6.05509  -6.05014
 Alpha  occ. eigenvalues --   -1.17482  -1.08103  -0.96547  -0.95440  -0.91049
 Alpha  occ. eigenvalues --   -0.88742  -0.84986  -0.84187  -0.82206  -0.76018
 Alpha  occ. eigenvalues --   -0.71040  -0.70126  -0.69083  -0.68105  -0.63197
 Alpha  occ. eigenvalues --   -0.59990  -0.58867  -0.58337  -0.55825  -0.54370
 Alpha  occ. eigenvalues --   -0.53359  -0.53013  -0.52507  -0.50958  -0.50419
 Alpha  occ. eigenvalues --   -0.49000  -0.48099  -0.45752  -0.45430  -0.44643
 Alpha  occ. eigenvalues --   -0.43571  -0.42861  -0.42130  -0.39796  -0.37420
 Alpha  occ. eigenvalues --   -0.36376  -0.32116  -0.31490  -0.27817
 Alpha virt. eigenvalues --   -0.01915   0.05211   0.06740   0.06920   0.07105
 Alpha virt. eigenvalues --    0.11295   0.12177   0.15083   0.15684   0.17639
 Alpha virt. eigenvalues --    0.18584   0.20454   0.21690   0.22240   0.22755

 Mulliken charges:
               1
     1  C    0.001675
     2  C   -0.215274
     3  C    0.229536
     4  C   -0.014892
     5  C    0.010685
     6  C   -0.011208
     7  H    0.020139
     8  H    0.014409
     9  H    0.017729
    10  H    0.020494
    11  N   -0.333731
    12  S    0.140940
    13  C   -0.095488
    14  C   -0.012584
    15  C    0.083165
    16  C   -0.013101
    17  H    0.010874
    18  C    0.020850
    19  C    0.019744
    20  H    0.012440
    21  H    0.019626
    22  H    0.022107
    23  C    0.070973
    24  O   -0.178468
    25  H    0.159361
 Sum of Mulliken charges =  -0.00000

 Dipole moment (field-independent basis, Debye):
    X=             -0.2218    Y=             -1.4555    Z=             -0.0000  Tot=              1.4723
 Quadrupole moment (field-independent basis, Debye-Ang):
   XX=            -83.1035   YY=            -88.8206   ZZ=           -104.6316
   XY=             -6.6450   XZ=             -0.0002   YZ=              0.0005

  Exact polarizability:     411.149    -200.258     401.489      -0.002       0.004      63.685
 Approx polarizability:     283.253     -37.396     266.231      -0.001       0.003      82.595

                      1                      2                      3
                      A                      A                      A
 Frequencies --     21.2593                63.5991               106.7135
 Red. masses --      5.8503                 6.0368                 5.6135
 Frc consts  --      0.0016                 0.0144                 0.0377
 IR Inten    --      1.0662                 0.0163                 2.1102

                      4                      5                      6
                      A                      A                      A
 Frequencies --    107.4616               182.9649               224.4261
 Red. masses --      4.5431                 6.7238                 5.4235
 Frc consts  --      0.0309                 0.1326                 0.1609
 IR Inten    --      0.5085                 0.6316                 0.0000

                      7                      8                      9
                      A                      A                      A
 Frequencies --    254.0114               264.6219               276.7067
 Red. masses --      8.4822                 4.7867                 6.3143
 Frc consts  --      0.3225                 0.1975                 0.2849
 IR Inten    --     13.3758                 0.3030                14.7494

                     10                     11                     12
                      A                      A                      A
 Frequencies --    383.7792               397.3713               437.0965
 Red. masses --      8.4448                 4.7296                 3.2753
 Frc consts  --      0.7328                 0.4400                 0.3687
 IR Inten    --     13.4382                 0.2070                 4.7633

                     13                     14                     15
                      A                      A                      A
 Frequencies --    474.9126               493.4853               495.7333
 Red. masses --      4.5996                 4.4258                 9.2633
 Frc consts  --      0.6112                 0.6350                 1.3413
 IR Inten    --     19.7985                 0.0239                 1.1471

                     16                     17                     18
                      A                      A                      A
 Frequencies --    505.4376               523.3352               543.9616
 Red. masses --      3.1321                 8.1898                 3.8357
 Frc consts  --      0.4714                 1.3215                 0.6687
 IR Inten    --      0.4991                26.0056                 0.6372

                     19                     20                     21
                      A                      A                      A
 Frequencies --    578.0125               628.9831               650.2304
 Red. masses --      7.8030                 7.5622                 7.2490
 Frc consts  --      1.5360                 1.7627                 1.8058
 IR Inten    --     85.6218                54.2463                 1.9672

                     22                     23                     24
                      A                      A                      A
 Frequencies --    698.3579               707.9222               730.2303
 Red. masses --      6.8444                 1.6020                 1.8771
 Frc consts  --      1.9667                 0.4730                 0.5897
 IR Inten    --      8.5646                76.6131                30.3504

                     25                     26                     27
                      A                      A                      A
 Frequencies --    748.3731               764.8160               772.4154
 Red. masses --      1.8074                 1.3701                 1.8779
 Frc consts  --      0.5964                 0.4722                 0.6601
 IR Inten    --     36.3308                 1.8473                85.0778

                     28                     29                     30
                      A                      A                      A
 Frequencies --    790.4087               832.7483               856.6059
 Red. masses --      6.8875                 1.4918                 1.4404
 Frc consts  --      2.5352                 0.6095                 0.6227
 IR Inten    --     19.4901                 0.1984                 2.0280

                     31                     32                     33
                      A                      A                      A
 Frequencies --    885.2603               930.8095               937.4844
 Red. masses --      6.3330                 1.3403                 7.0418
 Frc consts  --      2.9242                 0.6842                 3.6464
 IR Inten    --     47.8522                 2.8821                10.8485

                     34                     35                     36
                      A                      A                      A
 Frequencies --    951.5240               969.4479               997.9110
 Red. masses --      1.3456                 1.3404                 1.3022
 Frc consts  --      0.7178                 0.7422                 0.7640
 IR Inten    --      1.9528                 0.0301                 0.0146

                     37                     38                     39
                      A                      A                      A
 Frequencies --   1033.6884              1039.6498              1061.0768
 Red. masses --      2.1893                 2.3095                 5.0340
 Frc consts  --      1.3783                 1.4707                 3.3393
 IR Inten    --      1.9731                 4.8746                23.8437

                     40                     41                     42
                      A                      A                      A
 Frequencies --   1131.5412              1145.9636              1173.7309
 Red. masses --      1.5706                 1.2954                 1.1751
 Frc consts  --      1.1849                 1.0023                 0.9538
 IR Inten    --     29.4499                16.1071                29.9408

                     43                     44                     45
                      A                      A                      A
 Frequencies --   1177.2546              1212.6442              1228.4096
 Red. masses --      1.1720                 2.8435                 1.9107
 Frc consts  --      0.9570                 2.4636                 1.6988
 IR Inten    --      1.9692               211.5392                46.6302

                     46                     47                     48
                      A                      A                      A
 Frequencies --   1256.9782              1272.9619              1354.4925
 Red. masses --      2.4840                 1.6191                 2.8359
 Frc consts  --      2.3123                 1.5458                 3.0655
 IR Inten    --    250.6493                 1.6227                99.6697

                     49                     50                     51
                      A                      A                      A
 Frequencies --   1364.2449              1397.4136              1418.1830
 Red. masses --      5.3004                 2.0268                 2.2260
 Frc consts  --      5.8122                 2.3319                 2.6378
 IR Inten    --     21.2040               167.1439               207.0813

                     52                     53                     54
                      A                      A                      A
 Frequencies --   1454.9706              1470.4144              1520.1885
 Red. masses --      2.1379                 3.0061                 5.3172
 Frc consts  --      2.6666                 3.8294                 7.2399
 IR Inten    --     59.8681                25.2662               126.4858

                     55                     56                     57
                      A                      A                      A
 Frequencies --   1529.1850              1545.4769              1564.8935
 Red. masses --      6.1711                 5.1791                 3.7865
 Frc consts  --      8.5022                 7.2883                 5.4634
 IR Inten    --    696.8262                13.7629                61.4393

                     58                     59                     60
                      A                      A                      A
 Frequencies --   1596.5167              1640.5406              1655.9804
 Red. masses --      5.6849                 5.5551                 6.0350
 Frc consts  --      8.5373                 8.8088                 9.7507
 IR Inten    --     67.0123               361.4200               197.4715

                     61                     62                     63
                      A                      A                      A
 Frequencies --   3202.6632              3206.8504              3215.3750
 Red. masses --      1.0867                 1.0857                 1.0895
 Frc consts  --      6.5671                 6.5785                 6.6368
 IR Inten    --      3.1303                 4.7658                 4.1667

                     64                     65                     66
                      A                      A                      A
 Frequencies --   3217.3541              3225.8151              3226.0225
 Red. masses --      1.0902                 1.0952                 1.0927
 Frc consts  --      6.6491                 6.7144                 6.7003
 IR Inten    --      4.0605                16.4758                19.9404

                     67                     68                     69
                      A                      A                      A
 Frequencies --   3234.3442              3239.5616              3480.1306
 Red. masses --      1.1000                 1.0993                 1.0671
 Frc consts  --      6.7796                 6.7972                 7.6146
 IR Inten    --     38.4267                24.8362                 9.0294

 - Thermochemistry -
 -------------------
 Temperature   298.150 Kelvin.  Pressure   1.00000 Atm.
 Atom     1 has atomic number  6 and mass  12.00000

 Molecular mass:   227.04049 amu.
 Principal axes and moments of inertia in atomic units:
                           1         2         3
     Eigenvalues --  1393.210856388.797237782.00808
           X           -0.69162   0.72226   0.00000
           Y            0.72226   0.69162  -0.00001
           Z            0.00001   0.00000   1.00000
 This molecule is an asymmetric top.
 Rotational symmetry number  1.
 Warning -- assumption of classical behavior for rotation
           may cause significant error
 Rotational temperatures (Kelvin)      0.06217     0.01356     0.01113
 Rotational constants (GHZ):           1.29538     0.28249     0.23191
 Zero-point vibrational energy     488572.4 (Joules/Mol)
                                  116.77162 (Kcal/Mol)
 Warning -- explicit consideration of  19 degrees of freedom as
           vibrations may cause significant error
 Vibrational temperatures:     30.59    91.50   153.54   154.61   263.25
          (Kelvin)            322.90   365.47   380.73   398.12   552.17
                              571.73   628.88   683.29   710.02   713.25
                              727.21   752.96   782.64   831.63   904.97
                              935.54  1004.78  1018.54  1050.64  1076.74
                             1100.40  1111.33  1137.22  1198.14  1232.46
                             1273.69  1339.23  1348.83  1369.03  1394.82
                             1435.77  1487.25  1495.82  1526.65  1628.04
                             1648.79  1688.74  1693.81  1744.72  1767.41
                             1808.51  1831.51  1948.81  1962.84  2010.57
                             2040.45  2093.38  2115.60  2187.21  2200.16
                             2223.60  2251.53  2297.03  2360.37  2382.59
                             4607.92  4613.94  4626.21  4629.05  4641.23
                             4641.53  4653.50  4661.01  5007.13

 Zero-point correction=                           0.186087 (Hartree/Particle)
 Thermal correction to Energy=                    0.198641
 Thermal correction to Enthalpy=                  0.199585
 Thermal correction to Gibbs Free Energy=         0.145921
 Sum of electronic and zero-point Energies=          -1028.494337
 Sum of electronic and thermal Energies=             -1028.481784
 Sum of electronic and thermal Enthalpies=           -1028.480840
 Sum of electronic and thermal Free Energies=        -1028.534503

                     E (Thermal)             CV                S
                      KCal/Mol        Cal/Mol-Kelvin    Cal/Mol-Kelvin
 Total                  124.649             50.169            112.944
 Electronic               0.000              0.000              0.000
 Translational            0.889              2.981             42.162
 Rotational               0.889              2.981             32.604
 Vibrational            122.871             44.207             38.177
 Vibration     1          0.593              1.985              6.513
 Vibration     2          0.597              1.972              4.342
 Vibration     3          0.606              1.944              3.328
 Vibration     4          0.606              1.943              3.314
 Vibration     5          0.630              1.863              2.298
 Vibration     6          0.649              1.804              1.923
 Vibration     7          0.665              1.756              1.703
 Vibration     8          0.671              1.738              1.631
 Vibration     9          0.678              1.717              1.554
 Vibration    10          0.753              1.505              1.024
 Vibration    11          0.764              1.476              0.972
 Vibration    12          0.797              1.389              0.836
 Vibration    13          0.832              1.306              0.724
 Vibration    14          0.849              1.264              0.675
 Vibration    15          0.851              1.259              0.669
 Vibration    16          0.861              1.238              0.645
 Vibration    17          0.878              1.198              0.602
 Vibration    18          0.899              1.153              0.557
 Vibration    19          0.935              1.079              0.489

 Optimization completed.
    -- Stationary point found.
 Normal termination of Gaussian 16 at Mon Jul 13 18:11:38 2020.
