 Gaussian 16, Revision C.01,
 Gaussian 16:  ES64L-G16RevC.01  3-Jul-2019

 ----------------------------------------------------------------------
 #p opt=addgic freq td wb97xd/cc-pvdz nosymm int=ultrafine scrf=(solven
 t=CarbonTetraChloride)
 ----------------------------------------------------------------------

 ------------------------------------------------
 NM 2D-scan of HBT TD-WB97XD pVDZ in CTC Relaxed.
 ------------------------------------------------
 Symbolic Z-matrix:
 Charge =  0 Multiplicity = 1

 SCF Done:  E(RwB97XD) =  -1028.80112072     A.U. after   16 cycles
 Total Energy, E(TD-HF/TD-DFT) =  -1028.68679121
 SCF Done:  E(RwB97XD) =  -1028.79612374     A.U. after   14 cycles
 Total Energy, E(TD-HF/TD-DFT) =  -1028.68913029
 SCF Done:  E(RwB97XD) =  -1028.80061838     A.U. after   13 cycles
 Total Energy, E(TD-HF/TD-DFT) =  -1028.69081674
 SCF Done:  E(RwB97XD) =  -1028.80090906     A.U. after   11 cycles
 Total Energy, E(TD-HF/TD-DFT) =  -1028.69088000
 SCF Done:  E(RwB97XD) =  -1028.80084455     A.U. after   10 cycles
 Total Energy, E(TD-HF/TD-DFT) =  -1028.69088939
 SCF Done:  E(RwB97XD) =  -1028.80082120     A.U. after    9 cycles
 Total Energy, E(TD-HF/TD-DFT) =  -1028.69089003
 SCF Done:  E(RwB97XD) =  -1028.80081150     A.U. after    9 cycles
 Total Energy, E(TD-HF/TD-DFT) =  -1028.69089022
 Optimization completed.
    -- Stationary point found.
 Normal termination of Gaussian 16 at Tue Jul 14 13:44:42 2020.

 ----------------------------------------------------------------------
 #P Geom=AllCheck Guess=TCheck SCRF=Check GenChk RwB97XD TD(FC,Read)/CC
 -pVDZ Freq
 ----------------------------------------------------------------------

 Structure from the checkpoint file:  "config_7_17.chk"
 ------------------------------------------------
 NM 2D-scan of HBT TD-WB97XD pVDZ in CTC Relaxed.
 ------------------------------------------------
 Charge =  0 Multiplicity = 1

                          Input orientation:
 ---------------------------------------------------------------------
 Center     Atomic      Atomic             Coordinates (Angstroms)
 Number     Number       Type             X           Y           Z
 ---------------------------------------------------------------------
      1          6           0        1.540411   -3.276171   -0.000348
      2          6           0        0.986566   -1.998004   -0.000119
      3          6           0        1.783864   -0.812805    0.000171
      4          6           0        3.183046   -0.957747    0.000261
      5          6           0        3.729161   -2.235786    0.000021
      6          6           0        2.926803   -3.389406   -0.000286
      7          1           0        0.899900   -4.159096   -0.000553
      8          1           0        3.821221   -0.073647    0.000504
      9          1           0        4.815088   -2.344048    0.000081
     10          1           0        3.391373   -4.376114   -0.000455
     11          7           0        1.050624    0.354920    0.000387
     12         16           0       -0.710019   -1.606284   -0.000060
     13          6           0       -1.301844    1.090537    0.000130
     14          6           0       -2.660706    0.744416    0.000286
     15          6           0       -0.923265    2.516528   -0.000183
     16          6           0       -3.650296    1.734199    0.000233
     17          1           0       -2.961552   -0.305048    0.000498
     18          6           0       -1.960144    3.480350   -0.000298
     19          6           0       -3.301341    3.093509   -0.000049
     20          1           0       -4.700500    1.439248    0.000389
     21          1           0       -1.664534    4.530328   -0.000618
     22          1           0       -4.083988    3.853000   -0.000135
     23          6           0       -0.288208    0.102752    0.000178
     24          8           0        0.317089    2.851987   -0.000745
     25          1           0        1.133580    1.489217    0.000816
 ---------------------------------------------------------------------

 SCF Done:  E(RwB97XD) =  -1028.80081150     A.U. after    1 cycles

 Excitation energies and oscillator strengths:

 Excited state symmetry could not be determined.
 Excited State   1:      Singlet-?Sym    2.9911 eV  414.51 nm  f=0.4424  <S**2>=0.000
      59 -> 60         0.69597
 This state for optimization and/or second-order correction.
 Total Energy, E(TD-HF/TD-DFT) =  -1028.69089023
 Copying the excited state density for this state as the 1-particle RhoCI density.

 Excited state symmetry could not be determined.
 Excited State   2:      Singlet-?Sym    3.9789 eV  311.60 nm  f=0.0000  <S**2>=0.000
      57 -> 60         0.68501
      57 -> 62         0.11319
      57 -> 64         0.11606

 Excited state symmetry could not be determined.
 Excited State   3:      Singlet-?Sym    4.2826 eV  289.51 nm  f=0.3127  <S**2>=0.000
      58 -> 60         0.68115

 Alpha  occ. eigenvalues --  -89.09991 -19.22185 -14.52163 -10.41443 -10.37633
 Alpha  occ. eigenvalues --  -10.36234 -10.36034 -10.33103 -10.32733 -10.32302
 Alpha  occ. eigenvalues --  -10.32204 -10.31702 -10.31201 -10.31011 -10.29511
 Alpha  occ. eigenvalues --  -10.28852  -8.12042  -6.06901  -6.06547  -6.06066
 Alpha  occ. eigenvalues --   -1.12048  -1.09217  -0.98003  -0.95625  -0.93175
 Alpha  occ. eigenvalues --   -0.89032  -0.86518  -0.83571  -0.81766  -0.75795
 Alpha  occ. eigenvalues --   -0.72228  -0.71914  -0.68489  -0.67479  -0.64539
 Alpha  occ. eigenvalues --   -0.60995  -0.59544  -0.57008  -0.55378  -0.55161
 Alpha  occ. eigenvalues --   -0.54768  -0.53923  -0.53012  -0.50360  -0.49472
 Alpha  occ. eigenvalues --   -0.48903  -0.48164  -0.46762  -0.45316  -0.45093
 Alpha  occ. eigenvalues --   -0.44124  -0.43120  -0.42062  -0.40407  -0.36712
 Alpha  occ. eigenvalues --   -0.33332  -0.32916  -0.31301  -0.26545
 Alpha virt. eigenvalues --   -0.01985   0.03993   0.05738   0.06687   0.08834
 Alpha virt. eigenvalues --    0.10617   0.14047   0.14879   0.16479   0.17610
 Alpha virt. eigenvalues --    0.18456   0.20281   0.20514   0.21410   0.22362

 Mulliken charges:
               1
     1  C    0.021141
     2  C   -0.222320
     3  C    0.260225
     4  C   -0.014485
     5  C    0.008419
     6  C    0.001597
     7  H    0.024359
     8  H    0.029040
     9  H    0.025613
    10  H    0.025597
    11  N   -0.227529
    12  S    0.194532
    13  C   -0.091008
    14  C   -0.034429
    15  C    0.123470
    16  C   -0.027740
    17  H    0.016845
    18  C   -0.016542
    19  C    0.030938
    20  H    0.003482
    21  H    0.005880
    22  H    0.016833
    23  C    0.061396
    24  O   -0.423704
    25  H    0.208389
 Sum of Mulliken charges =  -0.00000

 Dipole moment (field-independent basis, Debye):
    X=              1.1582    Y=             -5.1754    Z=              0.0022  Tot=              5.3034
 Quadrupole moment (field-independent basis, Debye-Ang):
   XX=            -82.2292   YY=            -95.3142   ZZ=           -104.2507
   XY=             -6.8136   XZ=              0.0023   YZ=              0.0065

  Exact polarizability:     346.556    -125.082     303.779      -0.006       0.003      63.187
 Approx polarizability:     272.261     -34.563     264.802      -0.003      -0.002      82.079

 ******    1 imaginary frequencies (negative Signs) ******

                      1                      2                      3
                      A                      A                      A
 Frequencies --   -170.9384                29.6032                66.6942
 Red. masses --      3.5278                 6.3792                 4.5769
 Frc consts  --      0.0607                 0.0033                 0.0120
 IR Inten    --    317.1587                 1.5651                 0.2727

                      4                      5                      6
                      A                      A                      A
 Frequencies --    124.7990               186.5711               188.6458
 Red. masses --      5.9867                 6.3470                 5.2627
 Frc consts  --      0.0549                 0.1302                 0.1103
 IR Inten    --      0.8481                 0.1796                35.8445

                      7                      8                      9
                      A                      A                      A
 Frequencies --    218.4287               269.5500               293.5502
 Red. masses --      5.6303                 4.6127                 6.6983
 Frc consts  --      0.1583                 0.1975                 0.3401
 IR Inten    --      0.1257                 0.0519                13.9507

                     10                     11                     12
                      A                      A                      A
 Frequencies --    361.2794               405.2634               437.1584
 Red. masses --      4.9949                 9.4426                 3.3123
 Frc consts  --      0.3841                 0.9137                 0.3730
 IR Inten    --      0.8126                 7.4909                 3.2556

                     13                     14                     15
                      A                      A                      A
 Frequencies --    463.0824               485.0802               506.3686
 Red. masses --      4.5199                 3.4398                 3.1934
 Frc consts  --      0.5711                 0.4769                 0.4824
 IR Inten    --      1.9991               263.6038                 0.3716

                     16                     17                     18
                      A                      A                      A
 Frequencies --    508.7476               545.5202               559.1815
 Red. masses --      8.4798                 8.7596                 3.8737
 Frc consts  --      1.2931                 1.5359                 0.7136
 IR Inten    --      1.3269                 3.1543                 0.3219

                     19                     20                     21
                      A                      A                      A
 Frequencies --    569.3874               595.6828               684.7369
 Red. masses --      7.1554                 5.8448                 6.0575
 Frc consts  --      1.3668                 1.2219                 1.6734
 IR Inten    --     18.3927                65.8921                 2.3438

                     22                     23                     24
                      A                      A                      A
 Frequencies --    698.7502               723.9961               742.6881
 Red. masses --      1.5367                 6.2348                 2.6627
 Frc consts  --      0.4421                 1.9255                 0.8653
 IR Inten    --     42.2629                 5.4848                15.5836

                     25                     26                     27
                      A                      A                      A
 Frequencies --    759.3929               766.8195               784.8211
 Red. masses --      1.7268                 1.6470                 3.8332
 Frc consts  --      0.5867                 0.5706                 1.3911
 IR Inten    --      5.2539                84.4632                77.7920

                     28                     29                     30
                      A                      A                      A
 Frequencies --    822.9395               829.2551               869.9647
 Red. masses --      1.8738                 6.1637                 1.3797
 Frc consts  --      0.7477                 2.4973                 0.6152
 IR Inten    --      0.3522                21.1091                 0.9387

                     31                     32                     33
                      A                      A                      A
 Frequencies --    903.0293               939.4138               953.5293
 Red. masses --      1.4059                 5.2814                 1.3680
 Frc consts  --      0.6755                 2.7461                 0.7328
 IR Inten    --      5.7005                44.8346                 0.2362

                     34                     35                     36
                      A                      A                      A
 Frequencies --    957.8653              1003.5337              1048.4934
 Red. masses --      1.3517                 1.2993                 2.1227
 Frc consts  --      0.7307                 0.7710                 1.3749
 IR Inten    --      2.2373                 0.0002                20.2827

                     37                     38                     39
                      A                      A                      A
 Frequencies --   1050.7915              1053.8817              1104.2551
 Red. masses --      2.2587                 3.1725                 1.0586
 Frc consts  --      1.4694                 2.0760                 0.7605
 IR Inten    --     61.9987               122.4301                73.6056

                     40                     41                     42
                      A                      A                      A
 Frequencies --   1113.1057              1133.7141              1157.8257
 Red. masses --      2.6001                 1.5291                 1.3744
 Frc consts  --      1.8981                 1.1580                 1.0855
 IR Inten    --    169.3300                28.6082                 4.1561

                     43                     44                     45
                      A                      A                      A
 Frequencies --   1170.1863              1179.2262              1253.7718
 Red. masses --      1.2264                 1.2068                 1.8114
 Frc consts  --      0.9895                 0.9887                 1.6776
 IR Inten    --     56.2450                 3.6587                66.0865

                     46                     47                     48
                      A                      A                      A
 Frequencies --   1264.7505              1304.9890              1334.8258
 Red. masses --      2.6132                 2.1519                 4.3083
 Frc consts  --      2.4629                 2.1592                 4.5227
 IR Inten    --     37.5429                 9.5212                 3.9434

                     49                     50                     51
                      A                      A                      A
 Frequencies --   1350.9129              1380.5106              1403.8404
 Red. masses --      6.2889                 3.1876                 2.4767
 Frc consts  --      6.7621                 3.5793                 2.8758
 IR Inten    --    181.1596               123.7057                27.4011

                     52                     53                     54
                      A                      A                      A
 Frequencies --   1442.2246              1477.2994              1492.5692
 Red. masses --      2.8990                 3.2436                 3.5970
 Frc consts  --      3.5528                 4.1708                 4.7213
 IR Inten    --    496.3683                12.5384                69.7623

                     55                     56                     57
                      A                      A                      A
 Frequencies --   1511.1394              1549.4268              1569.0763
 Red. masses --      3.6657                 5.3057                 4.5844
 Frc consts  --      4.9319                 7.5048                 6.6500
 IR Inten    --    127.6575                79.7110                31.4143

                     58                     59                     60
                      A                      A                      A
 Frequencies --   1618.9697              1624.8828              1660.4994
 Red. masses --      5.8468                 6.0398                 6.5311
 Frc consts  --      9.0292                 9.3954                10.6099
 IR Inten    --    262.5207               247.8761                93.4201

                     61                     62                     63
                      A                      A                      A
 Frequencies --   2225.1758              3205.3996              3208.8729
 Red. masses --      1.1024                 1.0870                 1.0861
 Frc consts  --      3.2160                 6.5802                 6.5891
 IR Inten    --    968.7982                24.5208                 3.7627

                     64                     65                     66
                      A                      A                      A
 Frequencies --   3216.5252              3218.4083              3227.6340
 Red. masses --      1.0876                 1.0903                 1.0933
 Frc consts  --      6.6298                 6.6539                 6.7108
 IR Inten    --      7.9962                 3.2158                15.7730

                     67                     68                     69
                      A                      A                      A
 Frequencies --   3228.9431              3235.8691              3238.5588
 Red. masses --      1.0955                 1.0995                 1.0986
 Frc consts  --      6.7293                 6.7833                 6.7889
 IR Inten    --      7.4687                17.4286                20.0536

 - Thermochemistry -
 -------------------
 Temperature   298.150 Kelvin.  Pressure   1.00000 Atm.
 Atom     1 has atomic number  6 and mass  12.00000

 Molecular mass:   227.04049 amu.
 Principal axes and moments of inertia in atomic units:
                           1         2         3
     Eigenvalues --  1293.844046355.612787649.45669
           X           -0.70086   0.71330   0.00004
           Y            0.71330   0.70086   0.00004
           Z           -0.00000  -0.00005   1.00000
 This molecule is an asymmetric top.
 Rotational symmetry number  1.
 Warning -- assumption of classical behavior for rotation
           may cause significant error
 Rotational temperatures (Kelvin)      0.06694     0.01363     0.01132
 Rotational constants (GHZ):           1.39487     0.28396     0.23593
    1 imaginary frequencies ignored.
 Zero-point vibrational energy     481568.0 (Joules/Mol)
                                  115.09752 (Kcal/Mol)
 Warning -- explicit consideration of  19 degrees of freedom as
           vibrations may cause significant error
 Vibrational temperatures:     42.59    95.96   179.56   268.43   271.42
          (Kelvin)            314.27   387.82   422.35   519.80   583.08
                              628.97   666.27   697.92   728.55   731.97
                              784.88   804.54   819.22   857.05   985.18
                             1005.35  1041.67  1068.56  1092.60  1103.28
                             1129.18  1184.03  1193.11  1251.69  1299.26
                             1351.61  1371.92  1378.15  1443.86  1508.55
                             1511.85  1516.30  1588.78  1601.51  1631.16
                             1665.85  1683.64  1696.64  1803.90  1819.69
                             1877.59  1920.52  1943.66  1986.25  2019.81
                             2075.04  2125.50  2147.47  2174.19  2229.28
                             2257.55  2329.34  2337.84  2389.09  3201.53
                             4611.86  4616.85  4627.86  4630.57  4643.85
                             4645.73  4655.69  4659.56

 Zero-point correction=                           0.183420 (Hartree/Particle)
 Thermal correction to Energy=                    0.195218
 Thermal correction to Enthalpy=                  0.196162
 Thermal correction to Gibbs Free Energy=         0.144477
 Sum of electronic and zero-point Energies=          -1028.507471
 Sum of electronic and thermal Energies=             -1028.495672
 Sum of electronic and thermal Enthalpies=           -1028.494728
 Sum of electronic and thermal Free Energies=        -1028.546413

                     E (Thermal)             CV                S
                      KCal/Mol        Cal/Mol-Kelvin    Cal/Mol-Kelvin
 Total                  122.501             47.932            108.780
 Electronic               0.000              0.000              0.000
 Translational            0.889              2.981             42.162
 Rotational               0.889              2.981             32.509
 Vibrational            120.724             41.970             34.109
 Vibration     1          0.593              1.984              5.856
 Vibration     2          0.598              1.970              4.249
 Vibration     3          0.610              1.928              3.025
 Vibration     4          0.632              1.858              2.262
 Vibration     5          0.633              1.855              2.241
 Vibration     6          0.646              1.813              1.972
 Vibration     7          0.674              1.729              1.599
 Vibration     8          0.688              1.686              1.453
 Vibration     9          0.735              1.552              1.117
 Vibration    10          0.770              1.459              0.944
 Vibration    11          0.797              1.389              0.836
 Vibration    12          0.821              1.332              0.757
 Vibration    13          0.841              1.283              0.696
 Vibration    14          0.862              1.236              0.642
 Vibration    15          0.864              1.231              0.637
 Vibration    16          0.901              1.149              0.554
 Vibration    17          0.915              1.120              0.525
 Vibration    18          0.925              1.097              0.505
 Vibration    19          0.953              1.041              0.457

 Optimization completed.
    -- Stationary point found.
 Normal termination of Gaussian 16 at Tue Jul 14 14:04:24 2020.
