 Gaussian 16, Revision C.01,
 Gaussian 16:  ES64L-G16RevC.01  3-Jul-2019

 ----------------------------------------------------------------------
 #p opt=addgic freq td wb97xd/cc-pvdz nosymm int=ultrafine scrf=(solven
 t=CarbonTetraChloride)
 ----------------------------------------------------------------------

 ------------------------------------------------
 NM 2D-scan of HBT TD-WB97XD pVDZ in CTC Relaxed.
 ------------------------------------------------
 Symbolic Z-matrix:
 Charge =  0 Multiplicity = 1

 SCF Done:  E(RwB97XD) =  -1028.80746937     A.U. after   15 cycles
 Total Energy, E(TD-HF/TD-DFT) =  -1028.69374450
 SCF Done:  E(RwB97XD) =  -1028.79936575     A.U. after   14 cycles
 Total Energy, E(TD-HF/TD-DFT) =  -1028.69188785
 SCF Done:  E(RwB97XD) =  -1028.80614358     A.U. after   11 cycles
 Total Energy, E(TD-HF/TD-DFT) =  -1028.69466375
 SCF Done:  E(RwB97XD) =  -1028.80636726     A.U. after    9 cycles
 Total Energy, E(TD-HF/TD-DFT) =  -1028.69467457
 SCF Done:  E(RwB97XD) =  -1028.80639907     A.U. after    9 cycles
 Total Energy, E(TD-HF/TD-DFT) =  -1028.69467514
 SCF Done:  E(RwB97XD) =  -1028.80640578     A.U. after    8 cycles
 Total Energy, E(TD-HF/TD-DFT) =  -1028.69467528
 Optimization completed.
    -- Stationary point found.
 Normal termination of Gaussian 16 at Mon Jul 13 15:56:41 2020.

 ----------------------------------------------------------------------
 #P Geom=AllCheck Guess=TCheck SCRF=Check GenChk RwB97XD TD(FC,Read)/CC
 -pVDZ Freq
 ----------------------------------------------------------------------

 Structure from the checkpoint file:  "config_8_4.chk"
 ------------------------------------------------
 NM 2D-scan of HBT TD-WB97XD pVDZ in CTC Relaxed.
 ------------------------------------------------
 Charge =  0 Multiplicity = 1

                          Input orientation:
 ---------------------------------------------------------------------
 Center     Atomic      Atomic             Coordinates (Angstroms)
 Number     Number       Type             X           Y           Z
 ---------------------------------------------------------------------
      1          6           0        1.724676   -3.278246   -0.000216
      2          6           0        1.001021   -2.085291   -0.000111
      3          6           0        1.682061   -0.839253    0.000064
      4          6           0        3.085656   -0.784262    0.000163
      5          6           0        3.790652   -1.974580    0.000055
      6          6           0        3.120811   -3.210118   -0.000137
      7          1           0        1.217942   -4.244089   -0.000343
      8          1           0        3.586193    0.184390    0.000314
      9          1           0        4.881646   -1.953808    0.000123
     10          1           0        3.698474   -4.135378   -0.000213
     11          7           0        0.862938    0.235251    0.000156
     12         16           0       -0.747705   -1.816437   -0.000101
     13          6           0       -1.403820    1.021878    0.000055
     14          6           0       -2.796026    0.879169    0.000133
     15          6           0       -0.861964    2.414636   -0.000098
     16          6           0       -3.648203    2.002041    0.000145
     17          1           0       -3.237473   -0.119909    0.000214
     18          6           0       -1.765895    3.506158   -0.000120
     19          6           0       -3.142407    3.310088    0.000030
     20          1           0       -4.727255    1.839920    0.000230
     21          1           0       -1.318991    4.501113   -0.000279
     22          1           0       -3.822011    4.162673    0.000016
     23          6           0       -0.462855   -0.055583    0.000034
     24          8           0        0.395649    2.654232   -0.000455
     25          1           0        0.982209    1.361321    0.000422
 ---------------------------------------------------------------------

 SCF Done:  E(RwB97XD) =  -1028.80640578     A.U. after    1 cycles

 Excitation energies and oscillator strengths:

 Excited state symmetry could not be determined.
 Excited State   1:      Singlet-?Sym    3.0403 eV  407.80 nm  f=0.4513  <S**2>=0.000
      59 -> 60         0.69506
 This state for optimization and/or second-order correction.
 Total Energy, E(TD-HF/TD-DFT) =  -1028.69467525
 Copying the excited state density for this state as the 1-particle RhoCI density.

 Excited state symmetry could not be determined.
 Excited State   2:      Singlet-?Sym    4.1116 eV  301.55 nm  f=0.0000  <S**2>=0.000
      56 -> 60         0.68550
      56 -> 62         0.10996
      56 -> 64         0.11636

 Excited state symmetry could not be determined.
 Excited State   3:      Singlet-?Sym    4.3425 eV  285.52 nm  f=0.4168  <S**2>=0.000
      58 -> 60         0.67661

 Alpha  occ. eigenvalues --  -89.10469 -19.22729 -14.50740 -10.41670 -10.36823
 Alpha  occ. eigenvalues --  -10.36598 -10.36128 -10.33243 -10.32456 -10.32247
 Alpha  occ. eigenvalues --  -10.32177 -10.31768 -10.31692 -10.31058 -10.29478
 Alpha  occ. eigenvalues --  -10.28766  -8.12359  -6.07238  -6.06876  -6.06383
 Alpha  occ. eigenvalues --   -1.12779  -1.09961  -0.97822  -0.95042  -0.92859
 Alpha  occ. eigenvalues --   -0.89090  -0.86054  -0.83893  -0.81606  -0.75965
 Alpha  occ. eigenvalues --   -0.72059  -0.71389  -0.68650  -0.67825  -0.64302
 Alpha  occ. eigenvalues --   -0.60878  -0.59485  -0.57096  -0.55318  -0.55258
 Alpha  occ. eigenvalues --   -0.54580  -0.53541  -0.52858  -0.51024  -0.49678
 Alpha  occ. eigenvalues --   -0.49031  -0.47959  -0.46644  -0.45240  -0.45169
 Alpha  occ. eigenvalues --   -0.44169  -0.43091  -0.41878  -0.40630  -0.36711
 Alpha  occ. eigenvalues --   -0.33382  -0.33297  -0.31294  -0.26596
 Alpha virt. eigenvalues --   -0.01982   0.04038   0.06254   0.06314   0.08679
 Alpha virt. eigenvalues --    0.10488   0.12579   0.14754   0.16052   0.17539
 Alpha virt. eigenvalues --    0.18923   0.20455   0.21224   0.21636   0.22880

 Mulliken charges:
               1
     1  C    0.012036
     2  C   -0.239117
     3  C    0.274975
     4  C   -0.012332
     5  C    0.012921
     6  C   -0.002570
     7  H    0.025321
     8  H    0.029825
     9  H    0.025420
    10  H    0.025376
    11  N   -0.207940
    12  S    0.192735
    13  C   -0.123001
    14  C   -0.019652
    15  C    0.124807
    16  C   -0.033503
    17  H    0.004211
    18  C   -0.010552
    19  C    0.031354
    20  H    0.004394
    21  H    0.005878
    22  H    0.016297
    23  C    0.063875
    24  O   -0.398528
    25  H    0.197771
 Sum of Mulliken charges =   0.00000

 Dipole moment (field-independent basis, Debye):
    X=              1.1445    Y=             -4.6398    Z=              0.0012  Tot=              4.7788
 Quadrupole moment (field-independent basis, Debye-Ang):
   XX=            -82.9675   YY=            -93.3220   ZZ=           -104.3281
   XY=             -6.8777   XZ=              0.0013   YZ=              0.0036

  Exact polarizability:     352.893    -129.669     308.839      -0.004       0.005      63.359
 Approx polarizability:     274.636     -35.972     266.570      -0.003       0.002      82.261

                      1                      2                      3
                      A                      A                      A
 Frequencies --     24.5258                38.2277               107.9087
 Red. masses --      6.2813                 6.9108                 5.4384
 Frc consts  --      0.0022                 0.0060                 0.0373
 IR Inten    --      0.0957                 2.2418                62.4045

                      4                      5                      6
                      A                      A                      A
 Frequencies --    109.7196               177.4599               219.5080
 Red. masses --      4.7836                 5.6241                 5.3576
 Frc consts  --      0.0339                 0.1044                 0.1521
 IR Inten    --      0.0534                 0.2260                 0.1726

                      7                      8                      9
                      A                      A                      A
 Frequencies --    236.6296               268.2038               291.0612
 Red. masses --      5.5177                 4.6909                 5.5929
 Frc consts  --      0.1820                 0.1988                 0.2792
 IR Inten    --    122.7941                 0.2823                76.9961

                     10                     11                     12
                      A                      A                      A
 Frequencies --    363.8470               397.8114               436.7136
 Red. masses --      5.1122                10.3274                 3.2600
 Frc consts  --      0.3987                 0.9629                 0.3663
 IR Inten    --      0.8958                 2.5873                 5.0040

                     13                     14                     15
                      A                      A                      A
 Frequencies --    465.8223               500.2350               501.7281
 Red. masses --      4.7287                 3.1569                 6.2500
 Frc consts  --      0.6045                 0.4654                 0.9270
 IR Inten    --      0.8797                 0.5512               140.2018

                     16                     17                     18
                      A                      A                      A
 Frequencies --    510.7962               547.6356               556.2943
 Red. masses --      4.6177                 7.0993                 3.8558
 Frc consts  --      0.7099                 1.2544                 0.7030
 IR Inten    --    146.8456                39.9754                 0.4998

                     19                     20                     21
                      A                      A                      A
 Frequencies --    581.8909               599.7104               669.0077
 Red. masses --      7.8735                 5.5005                 6.8163
 Frc consts  --      1.5707                 1.1656                 1.7975
 IR Inten    --     73.0930                95.5823                10.1561

                     22                     23                     24
                      A                      A                      A
 Frequencies --    693.5354               708.0060               740.9967
 Red. masses --      1.6112                 6.2186                 2.4925
 Frc consts  --      0.4566                 1.8366                 0.8063
 IR Inten    --     36.8717                 7.7006                14.3959

                     25                     26                     27
                      A                      A                      A
 Frequencies --    764.8825               768.1500               804.9972
 Red. masses --      1.7567                 1.7684                 5.5233
 Frc consts  --      0.6055                 0.6148                 2.1088
 IR Inten    --      0.1040                90.9144                14.8742

                     28                     29                     30
                      A                      A                      A
 Frequencies --    828.9032               834.5015               864.8119
 Red. masses --      4.0073                 1.6529                 1.3933
 Frc consts  --      1.6222                 0.6782                 0.6140
 IR Inten    --    109.4521                 0.0001                 0.8948

                     31                     32                     33
                      A                      A                      A
 Frequencies --    908.7595               937.5150               954.7025
 Red. masses --      1.4008                 5.8437                 1.3728
 Frc consts  --      0.6816                 3.0262                 0.7372
 IR Inten    --      6.1569                25.3178                 0.7941

                     34                     35                     36
                      A                      A                      A
 Frequencies --    956.2657              1002.6706              1043.8645
 Red. masses --      1.3471                 1.2946                 2.2570
 Frc consts  --      0.7258                 0.7668                 1.4490
 IR Inten    --      1.5444                 0.0071                 6.4254

                     37                     38                     39
                      A                      A                      A
 Frequencies --   1049.4452              1063.7983              1117.4253
 Red. masses --      2.2659                 3.6112                 1.6825
 Frc consts  --      1.4703                 2.4078                 1.2378
 IR Inten    --     15.7958                65.6068               207.6635

                     40                     41                     42
                      A                      A                      A
 Frequencies --   1137.2182              1152.5576              1155.9966
 Red. masses --      1.8480                 1.0593                 1.3805
 Frc consts  --      1.4081                 0.8290                 1.0870
 IR Inten    --    156.2499                65.9695                 9.2442

                     43                     44                     45
                      A                      A                      A
 Frequencies --   1166.8398              1180.0547              1259.6451
 Red. masses --      1.2035                 1.1685                 1.7517
 Frc consts  --      0.9654                 0.9587                 1.6376
 IR Inten    --    224.8550                 1.9049               105.8108

                     46                     47                     48
                      A                      A                      A
 Frequencies --   1264.4207              1306.5345              1338.1605
 Red. masses --      2.7384                 2.0957                 4.6014
 Frc consts  --      2.5794                 2.1078                 4.8547
 IR Inten    --     33.3243                47.8281                57.5238

                     49                     50                     51
                      A                      A                      A
 Frequencies --   1362.4523              1393.2632              1405.7926
 Red. masses --      6.2626                 2.6932                 2.1154
 Frc consts  --      6.8493                 3.0802                 2.4631
 IR Inten    --    174.2217                 2.3898                 5.6535

                     52                     53                     54
                      A                      A                      A
 Frequencies --   1439.7675              1481.2815              1496.1877
 Red. masses --      3.4702                 3.1535                 3.1789
 Frc consts  --      4.2383                 4.0768                 4.1927
 IR Inten    --    687.3822                 2.8338                40.0340

                     55                     56                     57
                      A                      A                      A
 Frequencies --   1536.7209              1546.7253              1575.5933
 Red. masses --      5.0981                 4.7125                 4.6774
 Frc consts  --      7.0933                 6.6425                 6.8414
 IR Inten    --     75.3813               130.0177                64.7510

                     58                     59                     60
                      A                      A                      A
 Frequencies --   1626.5715              1638.7960              1663.4981
 Red. masses --      5.7745                 5.3374                 6.7392
 Frc consts  --      9.0014                 8.4456                10.9876
 IR Inten    --    107.8748               524.3465               163.2175

                     61                     62                     63
                      A                      A                      A
 Frequencies --   2145.2473              3197.0017              3210.9538
 Red. masses --      1.1276                 1.0886                 1.0861
 Frc consts  --      3.0575                 6.5552                 6.5979
 IR Inten    --   1004.8056                19.7052                 5.3331

                     64                     65                     66
                      A                      A                      A
 Frequencies --   3213.9440              3220.8622              3224.8465
 Red. masses --      1.0872                 1.0902                 1.0925
 Frc consts  --      6.6167                 6.6637                 6.6942
 IR Inten    --      1.6092                 3.1740                19.2545

                     67                     68                     69
                      A                      A                      A
 Frequencies --   3231.4090              3236.5308              3238.3026
 Red. masses --      1.0955                 1.0989                 1.0995
 Frc consts  --      6.7398                 6.7821                 6.7933
 IR Inten    --      9.3685                20.4534                13.9941

 - Thermochemistry -
 -------------------
 Temperature   298.150 Kelvin.  Pressure   1.00000 Atm.
 Atom     1 has atomic number  6 and mass  12.00000

 Molecular mass:   227.04049 amu.
 Principal axes and moments of inertia in atomic units:
                           1         2         3
     Eigenvalues --  1331.467676350.338547681.80617
           X           -0.70096   0.71320   0.00001
           Y            0.71320   0.70096   0.00001
           Z            0.00000  -0.00002   1.00000
 This molecule is an asymmetric top.
 Rotational symmetry number  1.
 Warning -- assumption of classical behavior for rotation
           may cause significant error
 Rotational temperatures (Kelvin)      0.06505     0.01364     0.01128
 Rotational constants (GHZ):           1.35545     0.28420     0.23494
 Zero-point vibrational energy     482664.1 (Joules/Mol)
                                  115.35950 (Kcal/Mol)
 Warning -- explicit consideration of  20 degrees of freedom as
           vibrations may cause significant error
 Vibrational temperatures:     35.29    55.00   155.26   157.86   255.33
          (Kelvin)            315.82   340.46   385.89   418.77   523.49
                              572.36   628.33   670.21   719.73   721.87
                              734.92   787.93   800.38   837.21   862.85
                              962.55   997.84  1018.66  1066.13  1100.50
                             1105.20  1158.21  1192.61  1200.66  1244.27
                             1307.50  1348.87  1373.60  1375.85  1442.62
                             1501.89  1509.92  1530.57  1607.73  1636.20
                             1658.27  1663.22  1678.82  1697.84  1812.35
                             1819.22  1879.81  1925.31  1960.26  2004.60
                             2022.62  2071.50  2131.23  2152.68  2211.00
                             2225.39  2266.93  2340.27  2357.86  2393.40
                             3086.53  4599.77  4619.85  4624.15  4634.10
                             4639.83  4649.28  4656.65  4659.20

 Zero-point correction=                           0.183837 (Hartree/Particle)
 Thermal correction to Energy=                    0.196380
 Thermal correction to Enthalpy=                  0.197324
 Thermal correction to Gibbs Free Energy=         0.143406
 Sum of electronic and zero-point Energies=          -1028.510838
 Sum of electronic and thermal Energies=             -1028.498295
 Sum of electronic and thermal Enthalpies=           -1028.497351
 Sum of electronic and thermal Free Energies=        -1028.551269

                     E (Thermal)             CV                S
                      KCal/Mol        Cal/Mol-Kelvin    Cal/Mol-Kelvin
 Total                  123.230             49.734            113.481
 Electronic               0.000              0.000              0.000
 Translational            0.889              2.981             42.162
 Rotational               0.889              2.981             32.541
 Vibrational            121.453             43.773             38.778
 Vibration     1          0.593              1.985              6.229
 Vibration     2          0.594              1.982              5.349
 Vibration     3          0.606              1.943              3.306
 Vibration     4          0.606              1.941              3.274
 Vibration     5          0.628              1.870              2.355
 Vibration     6          0.647              1.811              1.963
 Vibration     7          0.656              1.785              1.828
 Vibration     8          0.673              1.732              1.608
 Vibration     9          0.687              1.690              1.468
 Vibration    10          0.737              1.547              1.106
 Vibration    11          0.764              1.475              0.971
 Vibration    12          0.797              1.390              0.837
 Vibration    13          0.823              1.326              0.749
 Vibration    14          0.856              1.249              0.658
 Vibration    15          0.857              1.246              0.654
 Vibration    16          0.866              1.226              0.632
 Vibration    17          0.903              1.145              0.549
 Vibration    18          0.912              1.126              0.531
 Vibration    19          0.939              1.070              0.482
 Vibration    20          0.958              1.032              0.450

 Optimization completed.
    -- Stationary point found.
 Normal termination of Gaussian 16 at Mon Jul 13 16:15:38 2020.
