 Gaussian 16, Revision C.01,
 Gaussian 16:  ES64L-G16RevC.01  3-Jul-2019

 ----------------------------------------------------------------------
 #p opt=addgic freq td wb97xd/cc-pvdz nosymm int=ultrafine scrf=(solven
 t=CarbonTetraChloride)
 ----------------------------------------------------------------------

 ------------------------------------------------
 NM 2D-scan of HBT TD-WB97XD pVDZ in CTC Relaxed.
 ------------------------------------------------
 Symbolic Z-matrix:
 Charge =  0 Multiplicity = 1

 SCF Done:  E(RwB97XD) =  -1028.79887955     A.U. after   16 cycles
 Total Energy, E(TD-HF/TD-DFT) =  -1028.68500189
 SCF Done:  E(RwB97XD) =  -1028.79486250     A.U. after   14 cycles
 Total Energy, E(TD-HF/TD-DFT) =  -1028.68835356
 SCF Done:  E(RwB97XD) =  -1028.79917547     A.U. after   13 cycles
 Total Energy, E(TD-HF/TD-DFT) =  -1028.69001354
 SCF Done:  E(RwB97XD) =  -1028.79949541     A.U. after   11 cycles
 Total Energy, E(TD-HF/TD-DFT) =  -1028.69008495
 SCF Done:  E(RwB97XD) =  -1028.79943451     A.U. after   10 cycles
 Total Energy, E(TD-HF/TD-DFT) =  -1028.69009508
 SCF Done:  E(RwB97XD) =  -1028.79942146     A.U. after    9 cycles
 Total Energy, E(TD-HF/TD-DFT) =  -1028.69009567
 SCF Done:  E(RwB97XD) =  -1028.79941570     A.U. after    9 cycles
 Total Energy, E(TD-HF/TD-DFT) =  -1028.69009576
 Optimization completed.
    -- Stationary point found.
 Normal termination of Gaussian 16 at Tue Jul 14 15:21:06 2020.

 ----------------------------------------------------------------------
 #P Geom=AllCheck Guess=TCheck SCRF=Check GenChk RwB97XD TD(FC,Read)/CC
 -pVDZ Freq
 ----------------------------------------------------------------------

 Structure from the checkpoint file:  "config_7_18.chk"
 ------------------------------------------------
 NM 2D-scan of HBT TD-WB97XD pVDZ in CTC Relaxed.
 ------------------------------------------------
 Charge =  0 Multiplicity = 1

                          Input orientation:
 ---------------------------------------------------------------------
 Center     Atomic      Atomic             Coordinates (Angstroms)
 Number     Number       Type             X           Y           Z
 ---------------------------------------------------------------------
      1          6           0        1.527049   -3.276784   -0.000383
      2          6           0        0.985694   -1.993292   -0.000125
      3          6           0        1.791584   -0.813669    0.000196
      4          6           0        3.189294   -0.972309    0.000288
      5          6           0        3.723662   -2.255824    0.000017
      6          6           0        2.911942   -3.402876   -0.000322
      7          1           0        0.877469   -4.153044   -0.000610
      8          1           0        3.836580   -0.094853    0.000557
      9          1           0        4.808610   -2.373413    0.000079
     10          1           0        3.367940   -4.393559   -0.000513
     11          7           0        1.065005    0.360903    0.000440
     12         16           0       -0.706626   -1.591297   -0.000055
     13          6           0       -1.293746    1.097494    0.000149
     14          6           0       -2.649020    0.736475    0.000321
     15          6           0       -0.929081    2.526477   -0.000199
     16          6           0       -3.649809    1.714291    0.000257
     17          1           0       -2.938426   -0.316151    0.000561
     18          6           0       -1.977222    3.478334   -0.000338
     19          6           0       -3.314395    3.076708   -0.000064
     20          1           0       -4.696667    1.407826    0.000427
     21          1           0       -1.693916    4.531729   -0.000700
     22          1           0       -4.104775    3.828202   -0.000167
     23          6           0       -0.275290    0.114687    0.000210
     24          8           0        0.307864    2.873264   -0.000829
     25          1           0        1.155206    1.488988    0.000908
 ---------------------------------------------------------------------

 SCF Done:  E(RwB97XD) =  -1028.79941570     A.U. after    1 cycles

 Excitation energies and oscillator strengths:

 Excited state symmetry could not be determined.
 Excited State   1:      Singlet-?Sym    2.9747 eV  416.79 nm  f=0.4407  <S**2>=0.000
      59 -> 60         0.69614
 This state for optimization and/or second-order correction.
 Total Energy, E(TD-HF/TD-DFT) =  -1028.69009577
 Copying the excited state density for this state as the 1-particle RhoCI density.

 Excited state symmetry could not be determined.
 Excited State   2:      Singlet-?Sym    3.9324 eV  315.29 nm  f=0.0000  <S**2>=0.000
      57 -> 60         0.68482
      57 -> 62         0.11378
      57 -> 64         0.11610

 Excited state symmetry could not be determined.
 Excited State   3:      Singlet-?Sym    4.2724 eV  290.20 nm  f=0.3048  <S**2>=0.000
      58 -> 60         0.68186

 Alpha  occ. eigenvalues --  -89.09974 -19.22045 -14.52375 -10.41484 -10.37735
 Alpha  occ. eigenvalues --  -10.36173 -10.36055 -10.33119 -10.32785 -10.32331
 Alpha  occ. eigenvalues --  -10.32230 -10.31679 -10.31187 -10.30970 -10.29495
 Alpha  occ. eigenvalues --  -10.28824  -8.12034  -6.06893  -6.06538  -6.06057
 Alpha  occ. eigenvalues --   -1.12034  -1.09097  -0.98055  -0.95664  -0.93201
 Alpha  occ. eigenvalues --   -0.89035  -0.86580  -0.83544  -0.81748  -0.75787
 Alpha  occ. eigenvalues --   -0.72333  -0.71947  -0.68488  -0.67460  -0.64618
 Alpha  occ. eigenvalues --   -0.61004  -0.59557  -0.56984  -0.55418  -0.55169
 Alpha  occ. eigenvalues --   -0.54820  -0.53969  -0.53017  -0.50299  -0.49404
 Alpha  occ. eigenvalues --   -0.48872  -0.48221  -0.46788  -0.45342  -0.45073
 Alpha  occ. eigenvalues --   -0.44112  -0.43092  -0.42089  -0.40354  -0.36721
 Alpha  occ. eigenvalues --   -0.33372  -0.32762  -0.31300  -0.26491
 Alpha virt. eigenvalues --   -0.01999   0.03963   0.05669   0.06704   0.08880
 Alpha virt. eigenvalues --    0.10624   0.14050   0.14893   0.16489   0.17613
 Alpha virt. eigenvalues --    0.18374   0.20142   0.20458   0.21365   0.22259

 Mulliken charges:
               1
     1  C    0.021659
     2  C   -0.221127
     3  C    0.259130
     4  C   -0.014611
     5  C    0.008176
     6  C    0.002007
     7  H    0.024484
     8  H    0.029226
     9  H    0.025774
    10  H    0.025752
    11  N   -0.224029
    12  S    0.194643
    13  C   -0.088334
    14  C   -0.035396
    15  C    0.121603
    16  C   -0.027449
    17  H    0.017899
    18  C   -0.017358
    19  C    0.031096
    20  H    0.003336
    21  H    0.005621
    22  H    0.016709
    23  C    0.060609
    24  O   -0.424452
    25  H    0.205030
 Sum of Mulliken charges =  -0.00000

 Dipole moment (field-independent basis, Debye):
    X=              1.2123    Y=             -5.2750    Z=              0.0024  Tot=              5.4126
 Quadrupole moment (field-independent basis, Debye-Ang):
   XX=            -82.1243   YY=            -95.6359   ZZ=           -104.2492
   XY=             -6.7778   XZ=              0.0026   YZ=              0.0073

  Exact polarizability:     345.981    -124.405     303.241      -0.006       0.003      63.179
 Approx polarizability:     272.120     -34.468     264.890      -0.004      -0.002      82.063

 ******    1 imaginary frequencies (negative Signs) ******

                      1                      2                      3
                      A                      A                      A
 Frequencies --    -52.6192                28.5454                61.9678
 Red. masses --      4.9094                 6.4622                 4.4790
 Frc consts  --      0.0080                 0.0031                 0.0101
 IR Inten    --    119.7104                 1.5929                 0.2284

                      4                      5                      6
                      A                      A                      A
 Frequencies --    125.7614               187.0008               209.6790
 Red. masses --      5.9320                 6.3523                 5.6913
 Frc consts  --      0.0553                 0.1309                 0.1474
 IR Inten    --      0.9756                 0.1063                53.3200

                      7                      8                      9
                      A                      A                      A
 Frequencies --    218.9547               269.4575               287.5066
 Red. masses --      5.6755                 4.6012                 6.3802
 Frc consts  --      0.1603                 0.1968                 0.3107
 IR Inten    --      0.1310                 0.0412                15.3471

                     10                     11                     12
                      A                      A                      A
 Frequencies --    360.5536               404.7404               436.7336
 Red. masses --      4.9774                 9.4056                 3.3217
 Frc consts  --      0.3812                 0.9078                 0.3733
 IR Inten    --      0.8520                 5.5377                 3.0921

                     13                     14                     15
                      A                      A                      A
 Frequencies --    462.3949               506.8625               506.9125
 Red. masses --      4.4722                 3.2262                 7.2585
 Frc consts  --      0.5634                 0.4883                 1.0989
 IR Inten    --      2.1634                 1.4280                62.1501

                     16                     17                     18
                      A                      A                      A
 Frequencies --    516.1907               545.4498               559.2795
 Red. masses --      4.0475                 8.7624                 3.8755
 Frc consts  --      0.6354                 1.5360                 0.7142
 IR Inten    --    157.8366                 3.4386                 0.3090

                     19                     20                     21
                      A                      A                      A
 Frequencies --    568.6879               601.1977               692.1435
 Red. masses --      7.0910                 5.5097                 6.2205
 Frc consts  --      1.3512                 1.1733                 1.7558
 IR Inten    --     14.6537                92.4974                 2.4924

                     22                     23                     24
                      A                      A                      A
 Frequencies --    698.9922               724.3678               742.6227
 Red. masses --      1.5244                 6.1164                 2.6876
 Frc consts  --      0.4388                 1.8909                 0.8733
 IR Inten    --     42.9134                 5.2897                15.6709

                     25                     26                     27
                      A                      A                      A
 Frequencies --    758.2612               766.6452               796.8289
 Red. masses --      1.7189                 1.6285                 3.4883
 Frc consts  --      0.5823                 0.5639                 1.3050
 IR Inten    --      6.0741                83.0476                75.1303

                     28                     29                     30
                      A                      A                      A
 Frequencies --    822.2198               827.8883               870.1362
 Red. masses --      1.9241                 5.8015                 1.3791
 Frc consts  --      0.7664                 2.3428                 0.6152
 IR Inten    --      0.5200                22.5025                 0.9333

                     31                     32                     33
                      A                      A                      A
 Frequencies --    902.4299               943.4822               953.0086
 Red. masses --      1.4103                 5.1641                 1.3668
 Frc consts  --      0.6767                 2.7084                 0.7314
 IR Inten    --      5.7353                37.6674                 0.1793

                     34                     35                     36
                      A                      A                      A
 Frequencies --    957.9958              1003.6661              1034.4840
 Red. masses --      1.3522                 1.3000                 1.9557
 Frc consts  --      0.7312                 0.7716                 1.2331
 IR Inten    --      2.3076                 0.0008                 6.5272

                     37                     38                     39
                      A                      A                      A
 Frequencies --   1050.8829              1065.6693              1090.1984
 Red. masses --      2.0791                 3.5398                 1.0594
 Frc consts  --      1.3528                 2.3685                 0.7418
 IR Inten    --      6.5598               149.3671                74.2982

                     40                     41                     42
                      A                      A                      A
 Frequencies --   1114.0457              1133.9460              1153.5610
 Red. masses --      1.8237                 1.7299                 1.2380
 Frc consts  --      1.3335                 1.3105                 0.9707
 IR Inten    --    172.3007                99.8474                17.7250

                     43                     44                     45
                      A                      A                      A
 Frequencies --   1164.4099              1180.0205              1234.0940
 Red. masses --      1.3174                 1.2241                 1.8983
 Frc consts  --      1.0524                 1.0043                 1.7034
 IR Inten    --     33.4382                 1.0929                30.7948

                     46                     47                     48
                      A                      A                      A
 Frequencies --   1261.5759              1304.3679              1332.9215
 Red. masses --      2.7047                 2.0356                 4.3702
 Frc consts  --      2.5363                 2.0405                 4.5747
 IR Inten    --     27.1801                 9.0900                 3.6030

                     49                     50                     51
                      A                      A                      A
 Frequencies --   1350.1548              1376.7399              1401.0961
 Red. masses --      6.2555                 3.3603                 2.4985
 Frc consts  --      6.7186                 3.7526                 2.8898
 IR Inten    --    176.5206                71.2652                17.0292

                     52                     53                     54
                      A                      A                      A
 Frequencies --   1432.4091              1477.1132              1492.0039
 Red. masses --      3.3544                 3.1923                 3.4948
 Frc consts  --      4.0551                 4.1037                 4.5836
 IR Inten    --    611.0909                16.2299                57.1387

                     55                     56                     57
                      A                      A                      A
 Frequencies --   1510.9082              1549.3121              1568.6458
 Red. masses --      3.6046                 5.3038                 4.8022
 Frc consts  --      4.8482                 7.5009                 6.9621
 IR Inten    --    126.9471                85.5140                28.7805

                     58                     59                     60
                      A                      A                      A
 Frequencies --   1614.9626              1624.4651              1660.6328
 Red. masses --      6.2239                 6.1062                 6.5425
 Frc consts  --      9.5640                 9.4938                10.6303
 IR Inten    --    320.3749               156.8464                89.4860

                     61                     62                     63
                      A                      A                      A
 Frequencies --   2278.2800              3203.2483              3208.8182
 Red. masses --      1.1001                 1.0879                 1.0861
 Frc consts  --      3.3642                 6.5771                 6.5889
 IR Inten    --   1009.0802                22.1698                 3.7670

                     64                     65                     66
                      A                      A                      A
 Frequencies --   3215.7882              3218.3530              3227.3633
 Red. masses --      1.0872                 1.0903                 1.0931
 Frc consts  --      6.6245                 6.6535                 6.7084
 IR Inten    --      5.8540                 3.0605                15.2928

                     67                     68                     69
                      A                      A                      A
 Frequencies --   3228.7600              3235.8006              3238.1809
 Red. masses --      1.0955                 1.0996                 1.0986
 Frc consts  --      6.7285                 6.7832                 6.7873
 IR Inten    --      7.2973                17.7499                21.9623

 - Thermochemistry -
 -------------------
 Temperature   298.150 Kelvin.  Pressure   1.00000 Atm.
 Atom     1 has atomic number  6 and mass  12.00000

 Molecular mass:   227.04049 amu.
 Principal axes and moments of inertia in atomic units:
                           1         2         3
     Eigenvalues --  1292.309776360.871547653.18113
           X           -0.70050   0.71365   0.00004
           Y            0.71365   0.70050   0.00004
           Z           -0.00000  -0.00006   1.00000
 This molecule is an asymmetric top.
 Rotational symmetry number  1.
 Warning -- assumption of classical behavior for rotation
           may cause significant error
 Rotational temperatures (Kelvin)      0.06702     0.01362     0.01132
 Rotational constants (GHZ):           1.39652     0.28373     0.23582
    1 imaginary frequencies ignored.
 Zero-point vibrational energy     481806.6 (Joules/Mol)
                                  115.15455 (Kcal/Mol)
 Warning -- explicit consideration of  19 degrees of freedom as
           vibrations may cause significant error
 Vibrational temperatures:     41.07    89.16   180.94   269.05   301.68
          (Kelvin)            315.03   387.69   413.66   518.76   582.33
                              628.36   665.28   729.26   729.33   742.68
                              784.78   804.68   818.22   864.99   995.84
                             1005.69  1042.20  1068.47  1090.97  1103.03
                             1146.46  1182.99  1191.15  1251.93  1298.40
                             1357.46  1371.17  1378.34  1444.05  1488.39
                             1511.99  1533.26  1568.55  1602.86  1631.50
                             1659.72  1675.33  1697.79  1775.59  1815.13
                             1876.69  1917.78  1942.57  1980.82  2015.86
                             2060.92  2125.24  2146.66  2173.86  2229.11
                             2256.93  2323.57  2337.24  2389.28  3277.94
                             4608.76  4616.77  4626.80  4630.49  4643.46
                             4645.47  4655.60  4659.02

 Zero-point correction=                           0.183510 (Hartree/Particle)
 Thermal correction to Energy=                    0.195268
 Thermal correction to Enthalpy=                  0.196212
 Thermal correction to Gibbs Free Energy=         0.144550
 Sum of electronic and zero-point Energies=          -1028.506585
 Sum of electronic and thermal Energies=             -1028.494828
 Sum of electronic and thermal Enthalpies=           -1028.493884
 Sum of electronic and thermal Free Energies=        -1028.545546

                     E (Thermal)             CV                S
                      KCal/Mol        Cal/Mol-Kelvin    Cal/Mol-Kelvin
 Total                  122.532             47.850            108.733
 Electronic               0.000              0.000              0.000
 Translational            0.889              2.981             42.162
 Rotational               0.889              2.981             32.509
 Vibrational            120.755             41.888             34.062
 Vibration     1          0.593              1.984              5.928
 Vibration     2          0.597              1.972              4.394
 Vibration     3          0.611              1.927              3.010
 Vibration     4          0.632              1.858              2.257
 Vibration     5          0.642              1.826              2.046
 Vibration     6          0.647              1.812              1.968
 Vibration     7          0.674              1.729              1.600
 Vibration     8          0.685              1.697              1.489
 Vibration     9          0.735              1.554              1.120
 Vibration    10          0.770              1.460              0.945
 Vibration    11          0.797              1.390              0.837
 Vibration    12          0.820              1.333              0.759
 Vibration    13          0.862              1.235              0.641
 Vibration    14          0.862              1.235              0.641
 Vibration    15          0.871              1.214              0.619
 Vibration    16          0.901              1.150              0.554
 Vibration    17          0.915              1.119              0.525
 Vibration    18          0.925              1.099              0.507
 Vibration    19          0.959              1.029              0.448

                           ! Non-Optimized Parameters !
 Normal termination of Gaussian 16 at Tue Jul 14 15:38:56 2020.
