 Gaussian 16, Revision C.01,
 Gaussian 16:  ES64L-G16RevC.01  3-Jul-2019

 ----------------------------------------------------------------------
 #p opt=addgic freq td wb97xd/cc-pvdz nosymm int=ultrafine scrf=(solven
 t=CarbonTetraChloride)
 ----------------------------------------------------------------------

 ------------------------------------------------
 NM 2D-scan of HBT TD-WB97XD pVDZ in CTC Relaxed.
 ------------------------------------------------
 Symbolic Z-matrix:
 Charge =  0 Multiplicity = 1

 SCF Done:  E(RwB97XD) =  -1028.79671317     A.U. after   15 cycles
 Total Energy, E(TD-HF/TD-DFT) =  -1028.66528717
 SCF Done:  E(RwB97XD) =  -1028.82020024     A.U. after   13 cycles
 Total Energy, E(TD-HF/TD-DFT) =  -1028.69105155
 SCF Done:  E(RwB97XD) =  -1028.82007862     A.U. after   12 cycles
 Total Energy, E(TD-HF/TD-DFT) =  -1028.69262170
 SCF Done:  E(RwB97XD) =  -1028.82057734     A.U. after   11 cycles
 Total Energy, E(TD-HF/TD-DFT) =  -1028.69280931
 SCF Done:  E(RwB97XD) =  -1028.82066677     A.U. after   10 cycles
 Total Energy, E(TD-HF/TD-DFT) =  -1028.69290401
 SCF Done:  E(RwB97XD) =  -1028.82069708     A.U. after    9 cycles
 Total Energy, E(TD-HF/TD-DFT) =  -1028.69290563
 Optimization completed.
    -- Stationary point found.
 Normal termination of Gaussian 16 at Mon Jul 13 17:13:54 2020.

 ----------------------------------------------------------------------
 #P Geom=AllCheck Guess=TCheck SCRF=Check GenChk RwB97XD TD(FC,Read)/CC
 -pVDZ Freq
 ----------------------------------------------------------------------

 Structure from the checkpoint file:  "config_3_10.chk"
 ------------------------------------------------
 NM 2D-scan of HBT TD-WB97XD pVDZ in CTC Relaxed.
 ------------------------------------------------
 Charge =  0 Multiplicity = 1

                          Input orientation:
 ---------------------------------------------------------------------
 Center     Atomic      Atomic             Coordinates (Angstroms)
 Number     Number       Type             X           Y           Z
 ---------------------------------------------------------------------
      1          6           0        1.635405   -3.287579   -0.000022
      2          6           0        0.978242   -2.059281   -0.000006
      3          6           0        1.708992   -0.824015   -0.000011
      4          6           0        3.127886   -0.864097   -0.000031
      5          6           0        3.763078   -2.088469   -0.000047
      6          6           0        3.030212   -3.295223   -0.000043
      7          1           0        1.074515   -4.223029   -0.000019
      8          1           0        3.684216    0.073784   -0.000034
      9          1           0        4.853877   -2.128495   -0.000062
     10          1           0        3.561220   -4.248226   -0.000055
     11          7           0        0.968612    0.291010    0.000005
     12         16           0       -0.741549   -1.729892    0.000017
     13          6           0       -1.340010    1.044155    0.000029
     14          6           0       -2.743592    0.811887    0.000016
     15          6           0       -0.906925    2.456057    0.000040
     16          6           0       -3.643886    1.865882    0.000012
     17          1           0       -3.111643   -0.215495    0.000005
     18          6           0       -1.847527    3.494574    0.000034
     19          6           0       -3.206989    3.211570    0.000020
     20          1           0       -4.713877    1.651959    0.000000
     21          1           0       -1.467866    4.516704    0.000044
     22          1           0       -3.935593    4.022715    0.000016
     23          6           0       -0.366884    0.024342    0.000024
     24          8           0        0.368007    2.777623    0.000069
     25          1           0        0.903215    1.915121    0.000104
 ---------------------------------------------------------------------

 SCF Done:  E(RwB97XD) =  -1028.82069708     A.U. after    1 cycles

 Excitation energies and oscillator strengths:

 Excited state symmetry could not be determined.
 Excited State   1:      Singlet-?Sym    3.4774 eV  356.54 nm  f=0.6922  <S**2>=0.000
      59 -> 60         0.68929
 This state for optimization and/or second-order correction.
 Total Energy, E(TD-HF/TD-DFT) =  -1028.69290563
 Copying the excited state density for this state as the 1-particle RhoCI density.

 Excited state symmetry could not be determined.
 Excited State   2:      Singlet-?Sym    4.3897 eV  282.44 nm  f=0.2060  <S**2>=0.000
      57 -> 60        -0.27420
      58 -> 60        -0.60240
      59 -> 62        -0.14710

 Excited state symmetry could not be determined.
 Excited State   3:      Singlet-?Sym    4.5882 eV  270.23 nm  f=0.0663  <S**2>=0.000
      57 -> 60         0.55845
      57 -> 62        -0.12277
      58 -> 60        -0.26502
      58 -> 61        -0.12210
      59 -> 61         0.23053

 Alpha  occ. eigenvalues --  -89.09026 -19.28387 -14.47114 -10.39821 -10.38161
 Alpha  occ. eigenvalues --  -10.35000 -10.34786 -10.32646 -10.32325 -10.32177
 Alpha  occ. eigenvalues --  -10.31982 -10.31408 -10.31398 -10.31274 -10.30487
 Alpha  occ. eigenvalues --  -10.30341  -8.10960  -6.05810  -6.05472  -6.05018
 Alpha  occ. eigenvalues --   -1.17123  -1.08273  -0.96709  -0.95669  -0.91761
 Alpha  occ. eigenvalues --   -0.88804  -0.84957  -0.84464  -0.82315  -0.75969
 Alpha  occ. eigenvalues --   -0.71116  -0.70161  -0.69144  -0.68265  -0.63465
 Alpha  occ. eigenvalues --   -0.60356  -0.58898  -0.58601  -0.55912  -0.54425
 Alpha  occ. eigenvalues --   -0.53748  -0.53142  -0.52900  -0.50819  -0.50423
 Alpha  occ. eigenvalues --   -0.49335  -0.47760  -0.45894  -0.45573  -0.44753
 Alpha  occ. eigenvalues --   -0.43902  -0.42907  -0.42272  -0.40006  -0.37357
 Alpha  occ. eigenvalues --   -0.36449  -0.32111  -0.31481  -0.28006
 Alpha virt. eigenvalues --   -0.01817   0.05149   0.06976   0.07139   0.07418
 Alpha virt. eigenvalues --    0.11136   0.13800   0.15154   0.16246   0.18019
 Alpha virt. eigenvalues --    0.18561   0.20994   0.21652   0.22342   0.22723

 Mulliken charges:
               1
     1  C    0.013601
     2  C   -0.221378
     3  C    0.228197
     4  C   -0.017051
     5  C    0.007858
     6  C   -0.007135
     7  H    0.017962
     8  H    0.016657
     9  H    0.018565
    10  H    0.020339
    11  N   -0.358635
    12  S    0.155648
    13  C   -0.085684
    14  C   -0.020152
    15  C    0.086118
    16  C   -0.012548
    17  H    0.015403
    18  C    0.009605
    19  C    0.022326
    20  H    0.011394
    21  H    0.018965
    22  H    0.022805
    23  C    0.082977
    24  O   -0.202445
    25  H    0.176608
 Sum of Mulliken charges =   0.00000

 Dipole moment (field-independent basis, Debye):
    X=             -0.4621    Y=             -1.9960    Z=              0.0000  Tot=              2.0488
 Quadrupole moment (field-independent basis, Debye-Ang):
   XX=            -83.2278   YY=            -89.2803   ZZ=           -104.4003
   XY=             -6.9666   XZ=             -0.0000   YZ=              0.0001

  Exact polarizability:     400.987    -190.972     383.653      -0.003       0.003      63.421
 Approx polarizability:     278.935     -36.521     261.538      -0.001       0.001      82.405

                      1                      2                      3
                      A                      A                      A
 Frequencies --     41.9849                64.3484               109.7747
 Red. masses --      6.0177                 5.8497                 4.8574
 Frc consts  --      0.0062                 0.0143                 0.0345
 IR Inten    --      1.4251                 0.0117                 0.2183

                      4                      5                      6
                      A                      A                      A
 Frequencies --    114.0662               180.4645               223.2955
 Red. masses --      5.6441                 6.5566                 5.3902
 Frc consts  --      0.0433                 0.1258                 0.1583
 IR Inten    --      1.9785                 1.1390                 0.0000

                      7                      8                      9
                      A                      A                      A
 Frequencies --    268.4214               270.3589               305.1539
 Red. masses --      7.7448                 4.8306                 6.7341
 Frc consts  --      0.3288                 0.2080                 0.3695
 IR Inten    --     25.6977                 0.0900                 5.1253

                     10                     11                     12
                      A                      A                      A
 Frequencies --    390.8386               400.7162               438.7990
 Red. masses --      4.6233                 9.2169                 3.2781
 Frc consts  --      0.4161                 0.8720                 0.3719
 IR Inten    --      0.1099                13.0501                 4.1967

                     13                     14                     15
                      A                      A                      A
 Frequencies --    491.2014               498.7084               504.9221
 Red. masses --      4.5382                 7.7663                 3.1556
 Frc consts  --      0.6451                 1.1380                 0.4740
 IR Inten    --      0.1849                 7.2428                 0.0198

                     16                     17                     18
                      A                      A                      A
 Frequencies --    515.4703               525.8700               552.1745
 Red. masses --      5.1309                 8.0131                 3.9856
 Frc consts  --      0.8032                 1.3056                 0.7160
 IR Inten    --     34.6493                18.4685                 0.1297

                     19                     20                     21
                      A                      A                      A
 Frequencies --    577.9747               642.6841               690.6733
 Red. masses --      7.6643                 6.6116                 9.1750
 Frc consts  --      1.5085                 1.6090                 2.5787
 IR Inten    --     37.9681                36.1671                31.1742

                     22                     23                     24
                      A                      A                      A
 Frequencies --    714.1837               716.8430               737.0216
 Red. masses --      7.2810                 1.7452                 1.8851
 Frc consts  --      2.1881                 0.5284                 0.6033
 IR Inten    --     17.5189                46.4378                32.7048

                     25                     26                     27
                      A                      A                      A
 Frequencies --    749.3128               771.7198               813.2746
 Red. masses --      1.8850                 2.0670                 6.4085
 Frc consts  --      0.6236                 0.7253                 2.4974
 IR Inten    --     24.9246                52.5323                17.3070

                     28                     29                     30
                      A                      A                      A
 Frequencies --    819.9135               860.7115               890.2078
 Red. masses --      1.6503                 1.4212                 6.4124
 Frc consts  --      0.6536                 0.6203                 2.9940
 IR Inten    --      1.2629                 0.7302                57.2205

                     31                     32                     33
                      A                      A                      A
 Frequencies --    918.5016               954.1684               961.2887
 Red. masses --      1.3440                 1.3422                 7.2274
 Frc consts  --      0.6681                 0.7200                 3.9350
 IR Inten    --      8.5494                 1.7744                 5.3337

                     34                     35                     36
                      A                      A                      A
 Frequencies --    966.8211               977.9407               999.9430
 Red. masses --      1.3508                 1.0707                 1.2996
 Frc consts  --      0.7439                 0.6033                 0.7656
 IR Inten    --      0.9979                63.8074                 0.0941

                     37                     38                     39
                      A                      A                      A
 Frequencies --   1040.1381              1041.1817              1077.1322
 Red. masses --      2.1862                 2.1081                 4.7629
 Frc consts  --      1.3936                 1.3465                 3.2558
 IR Inten    --      2.3959                 0.7735                48.6515

                     40                     41                     42
                      A                      A                      A
 Frequencies --   1135.5960              1148.6817              1176.5908
 Red. masses --      1.4633                 1.3224                 1.1477
 Frc consts  --      1.1118                 1.0280                 0.9361
 IR Inten    --     61.4903                14.9477                 3.9710

                     43                     44                     45
                      A                      A                      A
 Frequencies --   1179.6304              1229.3465              1242.9602
 Red. masses --      1.1968                 5.3109                 1.7236
 Frc consts  --      0.9812                 4.7290                 1.5689
 IR Inten    --     39.4259                43.5103               177.2940

                     46                     47                     48
                      A                      A                      A
 Frequencies --   1279.5037              1314.9018              1363.9969
 Red. masses --      1.6658                 3.4715                 2.7376
 Frc consts  --      1.6068                 3.5363                 3.0008
 IR Inten    --      4.2185               338.9910                28.5008

                     49                     50                     51
                      A                      A                      A
 Frequencies --   1374.3924              1402.2782              1442.0938
 Red. masses --      5.8948                 2.0003                 2.5530
 Frc consts  --      6.5605                 2.3174                 3.1281
 IR Inten    --     49.5027                 2.7666               166.8851

                     52                     53                     54
                      A                      A                      A
 Frequencies --   1474.2509              1504.1829              1521.5980
 Red. masses --      3.4988                 3.8301                 3.0046
 Frc consts  --      4.4804                 5.1057                 4.0986
 IR Inten    --     72.4958                77.1472               153.5113

                     55                     56                     57
                      A                      A                      A
 Frequencies --   1539.6961              1565.2977              1596.7161
 Red. masses --      4.5001                 7.0668                 4.1758
 Frc consts  --      6.2855                10.2016                 6.2726
 IR Inten    --      4.2991               446.4125               360.1154

                     58                     59                     60
                      A                      A                      A
 Frequencies --   1616.6762              1623.1356              1650.2879
 Red. masses --      2.1169                 4.6855                 5.0461
 Frc consts  --      3.2598                 7.2731                 8.0971
 IR Inten    --    297.7993               384.4142               157.5996

                     61                     62                     63
                      A                      A                      A
 Frequencies --   2807.8902              3208.0308              3208.1527
 Red. masses --      1.0795                 1.0864                 1.0864
 Frc consts  --      5.0145                 6.5875                 6.5881
 IR Inten    --     90.3787                12.0566                 2.5936

                     64                     65                     66
                      A                      A                      A
 Frequencies --   3219.0239              3220.0391              3228.0206
 Red. masses --      1.0899                 1.0889                 1.0941
 Frc consts  --      6.6542                 6.6519                 6.7169
 IR Inten    --      3.4061                 1.2527                16.6159

                     67                     68                     69
                      A                      A                      A
 Frequencies --   3231.2336              3237.1316              3239.9885
 Red. masses --      1.0954                 1.0989                 1.0986
 Frc consts  --      6.7382                 6.7848                 6.7951
 IR Inten    --     11.8090                41.4502                25.1718

 - Thermochemistry -
 -------------------
 Temperature   298.150 Kelvin.  Pressure   1.00000 Atm.
 Atom     1 has atomic number  6 and mass  12.00000

 Molecular mass:   227.04049 amu.
 Principal axes and moments of inertia in atomic units:
                           1         2         3
     Eigenvalues --  1328.921106343.159867672.08096
           X           -0.69901   0.71511   0.00000
           Y            0.71511   0.69901  -0.00001
           Z            0.00001   0.00000   1.00000
 This molecule is an asymmetric top.
 Rotational symmetry number  1.
 Warning -- assumption of classical behavior for rotation
           may cause significant error
 Rotational temperatures (Kelvin)      0.06518     0.01365     0.01129
 Rotational constants (GHZ):           1.35805     0.28452     0.23523
 Zero-point vibrational energy     489269.8 (Joules/Mol)
                                  116.93830 (Kcal/Mol)
 Warning -- explicit consideration of  19 degrees of freedom as
           vibrations may cause significant error
 Vibrational temperatures:     60.41    92.58   157.94   164.12   259.65
          (Kelvin)            321.27   386.20   388.99   439.05   562.33
                              576.54   631.33   706.73   717.53   726.47
                              741.65   756.61   794.46   831.58   924.68
                              993.72  1027.55  1031.38  1060.41  1078.09
                             1110.33  1170.12  1179.67  1238.37  1280.81
                             1321.52  1372.84  1383.08  1391.04  1407.04
                             1438.69  1496.53  1498.03  1549.75  1633.87
                             1652.70  1692.85  1697.23  1768.76  1788.34
                             1840.92  1891.85  1962.49  1977.44  2017.57
                             2074.85  2121.12  2164.18  2189.24  2215.28
                             2252.11  2297.32  2326.04  2335.33  2374.40
                             4039.93  4615.64  4615.82  4631.46  4632.92
                             4644.40  4649.02  4657.51  4661.62

 Zero-point correction=                           0.186353 (Hartree/Particle)
 Thermal correction to Energy=                    0.198629
 Thermal correction to Enthalpy=                  0.199573
 Thermal correction to Gibbs Free Energy=         0.147023
 Sum of electronic and zero-point Energies=          -1028.506553
 Sum of electronic and thermal Energies=             -1028.494277
 Sum of electronic and thermal Enthalpies=           -1028.493333
 Sum of electronic and thermal Free Energies=        -1028.545882

                     E (Thermal)             CV                S
                      KCal/Mol        Cal/Mol-Kelvin    Cal/Mol-Kelvin
 Total                  124.641             49.282            110.599
 Electronic               0.000              0.000              0.000
 Translational            0.889              2.981             42.162
 Rotational               0.889              2.981             32.536
 Vibrational            122.864             43.320             35.901
 Vibration     1          0.595              1.980              5.163
 Vibration     2          0.597              1.971              4.319
 Vibration     3          0.606              1.941              3.273
 Vibration     4          0.607              1.938              3.199
 Vibration     5          0.629              1.866              2.324
 Vibration     6          0.649              1.806              1.932
 Vibration     7          0.673              1.731              1.606
 Vibration     8          0.674              1.728              1.594
 Vibration     9          0.696              1.664              1.388
 Vibration    10          0.759              1.490              0.997
 Vibration    11          0.767              1.469              0.960
 Vibration    12          0.799              1.386              0.830
 Vibration    13          0.847              1.270              0.680
 Vibration    14          0.854              1.253              0.661
 Vibration    15          0.860              1.239              0.646
 Vibration    16          0.871              1.216              0.621
 Vibration    17          0.881              1.193              0.596
 Vibration    18          0.908              1.135              0.540
 Vibration    19          0.934              1.079              0.489

 Optimization completed.
    -- Stationary point found.
 Normal termination of Gaussian 16 at Mon Jul 13 17:31:38 2020.
