 Gaussian 16, Revision C.01,
 Gaussian 16:  ES64L-G16RevC.01  3-Jul-2019

 ----------------------------------------------------------------------
 #p opt=addgic freq td wb97xd/cc-pvdz nosymm int=ultrafine scrf=(solven
 t=CarbonTetraChloride)
 ----------------------------------------------------------------------

 ------------------------------------------------
 NM 2D-scan of HBT TD-WB97XD pVDZ in CTC Relaxed.
 ------------------------------------------------
 Symbolic Z-matrix:
 Charge =  0 Multiplicity = 1

 SCF Done:  E(RwB97XD) =  -1028.80673223     A.U. after   15 cycles
 Total Energy, E(TD-HF/TD-DFT) =  -1028.69424308
 SCF Done:  E(RwB97XD) =  -1028.79936083     A.U. after   14 cycles
 Total Energy, E(TD-HF/TD-DFT) =  -1028.69475541
 SCF Done:  E(RwB97XD) =  -1028.80656204     A.U. after   13 cycles
 Total Energy, E(TD-HF/TD-DFT) =  -1028.69812035
 SCF Done:  E(RwB97XD) =  -1028.80704843     A.U. after   11 cycles
 Total Energy, E(TD-HF/TD-DFT) =  -1028.69816778
 SCF Done:  E(RwB97XD) =  -1028.80709551     A.U. after    9 cycles
 Total Energy, E(TD-HF/TD-DFT) =  -1028.69816969
 SCF Done:  E(RwB97XD) =  -1028.80710242     A.U. after    9 cycles
 Total Energy, E(TD-HF/TD-DFT) =  -1028.69816969
 SCF Done:  E(RwB97XD) =  -1028.80710043     A.U. after    8 cycles
 Total Energy, E(TD-HF/TD-DFT) =  -1028.69816979
 Optimization completed.
    -- Stationary point found.
 Normal termination of Gaussian 16 at Mon Jul 13 15:58:34 2020.

 ----------------------------------------------------------------------
 #P Geom=AllCheck Guess=TCheck SCRF=Check GenChk RwB97XD TD(FC,Read)/CC
 -pVDZ Freq
 ----------------------------------------------------------------------

 Structure from the checkpoint file:  "config_8_11.chk"
 ------------------------------------------------
 NM 2D-scan of HBT TD-WB97XD pVDZ in CTC Relaxed.
 ------------------------------------------------
 Charge =  0 Multiplicity = 1

                          Input orientation:
 ---------------------------------------------------------------------
 Center     Atomic      Atomic             Coordinates (Angstroms)
 Number     Number       Type             X           Y           Z
 ---------------------------------------------------------------------
      1          6           0        1.628251   -3.282847   -0.000026
      2          6           0        0.994497   -2.041900   -0.000016
      3          6           0        1.740727   -0.832292   -0.000012
      4          6           0        3.144035   -0.880184   -0.000019
      5          6           0        3.765313   -2.120482   -0.000028
      6          6           0        3.022466   -3.312286   -0.000032
      7          1           0        1.048774   -4.206841   -0.000027
      8          1           0        3.719030    0.046182   -0.000016
      9          1           0        4.855400   -2.169428   -0.000033
     10          1           0        3.539593   -4.272542   -0.000039
     11          7           0        0.961364    0.287680   -0.000006
     12         16           0       -0.729158   -1.701640   -0.000006
     13          6           0       -1.351502    1.064381    0.000014
     14          6           0       -2.725895    0.810221    0.000011
     15          6           0       -0.893260    2.476517    0.000031
     16          6           0       -3.659718    1.863906    0.000026
     17          1           0       -3.090173   -0.219748   -0.000002
     18          6           0       -1.877239    3.498921    0.000043
     19          6           0       -3.239487    3.199576    0.000042
     20          1           0       -4.724575    1.626737    0.000024
     21          1           0       -1.512242    4.527015    0.000055
     22          1           0       -3.976079    4.003789    0.000052
     23          6           0       -0.373934    0.028715   -0.000000
     24          8           0        0.350376    2.767830    0.000033
     25          1           0        1.104937    1.374948    0.000022
 ---------------------------------------------------------------------

 SCF Done:  E(RwB97XD) =  -1028.80710043     A.U. after    1 cycles

 Excitation energies and oscillator strengths:

 Excited state symmetry could not be determined.
 Excited State   1:      Singlet-?Sym    2.9642 eV  418.28 nm  f=0.4442  <S**2>=0.000
      59 -> 60         0.69605
 This state for optimization and/or second-order correction.
 Total Energy, E(TD-HF/TD-DFT) =  -1028.69816978
 Copying the excited state density for this state as the 1-particle RhoCI density.

 Excited state symmetry could not be determined.
 Excited State   2:      Singlet-?Sym    3.8942 eV  318.38 nm  f=0.0000  <S**2>=0.000
      57 -> 60         0.68435
      57 -> 62         0.11500
      57 -> 64         0.11738

 Excited state symmetry could not be determined.
 Excited State   3:      Singlet-?Sym    4.3158 eV  287.28 nm  f=0.3817  <S**2>=0.000
      58 -> 60         0.67996

 Alpha  occ. eigenvalues --  -89.10356 -19.21888 -14.51901 -10.41710 -10.37394
 Alpha  occ. eigenvalues --  -10.36193 -10.36190 -10.33272 -10.32731 -10.32388
 Alpha  occ. eigenvalues --  -10.32269 -10.31658 -10.31205 -10.31003 -10.29386
 Alpha  occ. eigenvalues --  -10.28628  -8.12330  -6.07200  -6.06840  -6.06352
 Alpha  occ. eigenvalues --   -1.12499  -1.09428  -0.98091  -0.95320  -0.93148
 Alpha  occ. eigenvalues --   -0.89094  -0.86445  -0.83765  -0.81527  -0.75914
 Alpha  occ. eigenvalues --   -0.72366  -0.71946  -0.68593  -0.67675  -0.64731
 Alpha  occ. eigenvalues --   -0.60963  -0.59595  -0.56867  -0.55576  -0.55281
 Alpha  occ. eigenvalues --   -0.54839  -0.53749  -0.53038  -0.50667  -0.49363
 Alpha  occ. eigenvalues --   -0.48864  -0.48240  -0.46804  -0.45358  -0.44994
 Alpha  occ. eigenvalues --   -0.44214  -0.43105  -0.42050  -0.40380  -0.36757
 Alpha  occ. eigenvalues --   -0.33439  -0.32597  -0.31353  -0.26320
 Alpha virt. eigenvalues --   -0.02006   0.03900   0.05892   0.06414   0.08956
 Alpha virt. eigenvalues --    0.10608   0.13477   0.14737   0.16222   0.17451
 Alpha virt. eigenvalues --    0.18703   0.20300   0.20898   0.21431   0.22913

 Mulliken charges:
               1
     1  C    0.017197
     2  C   -0.234080
     3  C    0.266097
     4  C   -0.011547
     5  C    0.011276
     6  C    0.000016
     7  H    0.025262
     8  H    0.030147
     9  H    0.026275
    10  H    0.026006
    11  N   -0.185006
    12  S    0.197711
    13  C   -0.101950
    14  C   -0.027966
    15  C    0.121304
    16  C   -0.032071
    17  H    0.008793
    18  C   -0.017124
    19  C    0.031625
    20  H    0.003108
    21  H    0.004240
    22  H    0.015828
    23  C    0.058641
    24  O   -0.416061
    25  H    0.182278
 Sum of Mulliken charges =  -0.00000

 Dipole moment (field-independent basis, Debye):
    X=              1.3836    Y=             -5.2301    Z=             -0.0000  Tot=              5.4100
 Quadrupole moment (field-independent basis, Debye-Ang):
   XX=            -82.4632   YY=            -94.9495   ZZ=           -104.2578
   XY=             -6.7998   XZ=             -0.0001   YZ=              0.0001

  Exact polarizability:     348.840    -125.116     302.926      -0.002       0.002      63.253
 Approx polarizability:     273.157     -35.639     265.550      -0.001       0.002      82.104

                      1                      2                      3
                      A                      A                      A
 Frequencies --     34.3306                58.8902               111.0520
 Red. masses --      6.1961                 5.4971                 5.7078
 Frc consts  --      0.0043                 0.0112                 0.0415
 IR Inten    --      1.5421                 0.9168                22.2164

                      4                      5                      6
                      A                      A                      A
 Frequencies --    115.8016               181.7333               219.4395
 Red. masses --      5.5592                 5.8506                 5.4553
 Frc consts  --      0.0439                 0.1138                 0.1548
 IR Inten    --      0.4370                 0.1400                 0.1783

                      7                      8                      9
                      A                      A                      A
 Frequencies --    258.6455               269.8612               300.5134
 Red. masses --      7.7199                 4.6505                 6.5225
 Frc consts  --      0.3043                 0.1995                 0.3470
 IR Inten    --     15.9864                 0.2220                21.9788

                     10                     11                     12
                      A                      A                      A
 Frequencies --    359.6125               398.9371               435.6584
 Red. masses --      4.9902                 9.5334                 3.3141
 Frc consts  --      0.3802                 0.8939                 0.3706
 IR Inten    --      0.8792                 3.7033                 3.9036

                     13                     14                     15
                      A                      A                      A
 Frequencies --    461.6760               505.9434               505.9804
 Red. masses --      4.6516                 3.1911                 8.8944
 Frc consts  --      0.5842                 0.4813                 1.3416
 IR Inten    --      1.9130                 0.4932                 8.6791

                     16                     17                     18
                      A                      A                      A
 Frequencies --    541.9631               553.2642               557.9827
 Red. masses --      8.3744                 5.7470                 3.8586
 Frc consts  --      1.4493                 1.0365                 0.7078
 IR Inten    --      4.3124                76.1284                 0.4874

                     19                     20                     21
                      A                      A                      A
 Frequencies --    571.0338               619.4479               694.5901
 Red. masses --      7.3971                 5.5074                 1.5655
 Frc consts  --      1.4211                 1.2451                 0.4450
 IR Inten    --     23.6746               113.7815                38.5277

                     22                     23                     24
                      A                      A                      A
 Frequencies --    702.6303               715.8502               742.7924
 Red. masses --      7.6813                 6.0891                 2.7027
 Frc consts  --      2.2343                 1.8384                 0.8786
 IR Inten    --      3.5525                 4.0506                13.1568

                     25                     26                     27
                      A                      A                      A
 Frequencies --    762.9447               768.2418               820.0259
 Red. masses --      1.7411                 1.6630                 6.2443
 Frc consts  --      0.5971                 0.5783                 2.4740
 IR Inten    --      1.8092                90.3223                 9.7043

                     28                     29                     30
                      A                      A                      A
 Frequencies --    832.2013               844.0977               868.4222
 Red. masses --      1.7399                 3.7127                 1.3826
 Frc consts  --      0.7100                 1.5586                 0.6143
 IR Inten    --      0.0365                49.9932                 0.8729

                     31                     32                     33
                      A                      A                      A
 Frequencies --    904.5635               950.8425               954.0640
 Red. masses --      1.4093                 5.5547                 1.3678
 Frc consts  --      0.6794                 2.9589                 0.7335
 IR Inten    --      6.1389                10.7122                 0.3414

                     34                     35                     36
                      A                      A                      A
 Frequencies --    957.5129              1004.1417              1049.1659
 Red. masses --      1.3499                 1.2963                 2.1275
 Frc consts  --      0.7292                 0.7701                 1.3798
 IR Inten    --      1.9396                 0.0180                 2.8339

                     37                     38                     39
                      A                      A                      A
 Frequencies --   1051.3646              1059.7627              1080.3325
 Red. masses --      2.0959                 1.0622                 4.2589
 Frc consts  --      1.3650                 0.7028                 2.9286
 IR Inten    --      9.5353                71.4103                13.1302

                     40                     41                     42
                      A                      A                      A
 Frequencies --   1120.8989              1152.2213              1165.2915
 Red. masses --      1.5142                 1.3724                 1.2156
 Frc consts  --      1.1209                 1.0735                 0.9725
 IR Inten    --     49.5221                44.1852                57.8181

                     43                     44                     45
                      A                      A                      A
 Frequencies --   1176.7655              1194.4846              1261.0860
 Red. masses --      1.2050                 1.6242                 1.8152
 Frc consts  --      0.9831                 1.3654                 1.7008
 IR Inten    --    125.6383               146.3871               102.4807

                     46                     47                     48
                      A                      A                      A
 Frequencies --   1266.3723              1309.5499              1344.4853
 Red. masses --      2.3896                 2.0939                 5.6161
 Frc consts  --      2.2579                 2.1157                 5.9814
 IR Inten    --     29.1692                28.7339                15.8611

                     49                     50                     51
                      A                      A                      A
 Frequencies --   1359.7075              1391.5023              1405.1338
 Red. masses --      6.4751                 2.8394                 2.1373
 Frc consts  --      7.0533                 3.2392                 2.4863
 IR Inten    --    180.0899                20.0427                 6.5793

                     52                     53                     54
                      A                      A                      A
 Frequencies --   1438.1579              1484.5521              1496.3678
 Red. masses --      3.2182                 2.8270                 3.3173
 Frc consts  --      3.9218                 3.6709                 4.3764
 IR Inten    --    490.8360                 2.5591                47.9305

                     55                     56                     57
                      A                      A                      A
 Frequencies --   1533.1529              1546.0850              1576.0089
 Red. masses --      3.9314                 5.6445                 4.1923
 Frc consts  --      5.4446                 7.9496                 6.1350
 IR Inten    --     67.2412               157.5243                62.5433

                     58                     59                     60
                      A                      A                      A
 Frequencies --   1620.8742              1635.8200              1663.2710
 Red. masses --      5.8210                 6.0417                 6.7298
 Frc consts  --      9.0104                 9.5253                10.9693
 IR Inten    --    294.2318               148.8693               131.4116

                     61                     62                     63
                      A                      A                      A
 Frequencies --   2519.7860              3198.0724              3212.3126
 Red. masses --      1.1050                 1.0883                 1.0861
 Frc consts  --      4.1337                 6.5581                 6.6035
 IR Inten    --   1219.9711                24.4553                 4.3559

                     64                     65                     66
                      A                      A                      A
 Frequencies --   3214.5570              3222.2534              3224.8216
 Red. masses --      1.0868                 1.0904                 1.0927
 Frc consts  --      6.6169                 6.6706                 6.6953
 IR Inten    --      2.2000                 3.5929                16.5805

                     67                     68                     69
                      A                      A                      A
 Frequencies --   3232.9554              3237.0187              3239.4318
 Red. masses --      1.0955                 1.0988                 1.0995
 Frc consts  --      6.7465                 6.7835                 6.7979
 IR Inten    --      8.4876                25.3704                11.9443

 - Thermochemistry -
 -------------------
 Temperature   298.150 Kelvin.  Pressure   1.00000 Atm.
 Atom     1 has atomic number  6 and mass  12.00000

 Molecular mass:   227.04049 amu.
 Principal axes and moments of inertia in atomic units:
                           1         2         3
     Eigenvalues --  1307.050236379.326657686.37688
           X           -0.70132   0.71285   0.00000
           Y            0.71285   0.70132  -0.00001
           Z            0.00001   0.00000   1.00000
 This molecule is an asymmetric top.
 Rotational symmetry number  1.
 Warning -- assumption of classical behavior for rotation
           may cause significant error
 Rotational temperatures (Kelvin)      0.06627     0.01358     0.01127
 Rotational constants (GHZ):           1.38077     0.28290     0.23480
 Zero-point vibrational energy     486092.4 (Joules/Mol)
                                  116.17888 (Kcal/Mol)
 Warning -- explicit consideration of  20 degrees of freedom as
           vibrations may cause significant error
 Vibrational temperatures:     49.39    84.73   159.78   166.61   261.47
          (Kelvin)            315.72   372.13   388.27   432.37   517.40
                              573.98   626.82   664.25   727.94   727.99
                              779.76   796.02   802.81   821.59   891.25
                              999.36  1010.93  1029.95  1068.71  1097.71
                             1105.33  1179.83  1197.35  1214.47  1249.47
                             1301.47  1368.05  1372.69  1377.65  1444.74
                             1509.52  1512.68  1524.76  1554.36  1612.72
                             1657.79  1676.59  1693.10  1718.60  1814.42
                             1822.03  1884.15  1934.41  1956.32  2002.06
                             2021.67  2069.19  2135.94  2152.94  2205.87
                             2224.47  2267.53  2332.08  2353.58  2393.08
                             3625.41  4601.31  4621.80  4625.03  4636.10
                             4639.80  4651.50  4657.35  4660.82

 Zero-point correction=                           0.185143 (Hartree/Particle)
 Thermal correction to Energy=                    0.197496
 Thermal correction to Enthalpy=                  0.198440
 Thermal correction to Gibbs Free Energy=         0.145534
 Sum of electronic and zero-point Energies=          -1028.513027
 Sum of electronic and thermal Energies=             -1028.500674
 Sum of electronic and thermal Enthalpies=           -1028.499729
 Sum of electronic and thermal Free Energies=        -1028.552636

                     E (Thermal)             CV                S
                      KCal/Mol        Cal/Mol-Kelvin    Cal/Mol-Kelvin
 Total                  123.931             49.413            111.351
 Electronic               0.000              0.000              0.000
 Translational            0.889              2.981             42.162
 Rotational               0.889              2.981             32.527
 Vibrational            122.153             43.451             36.662
 Vibration     1          0.594              1.983              5.562
 Vibration     2          0.596              1.974              4.494
 Vibration     3          0.607              1.940              3.250
 Vibration     4          0.608              1.936              3.169
 Vibration     5          0.630              1.865              2.311
 Vibration     6          0.647              1.811              1.964
 Vibration     7          0.667              1.748              1.671
 Vibration     8          0.674              1.729              1.597
 Vibration     9          0.693              1.673              1.414
 Vibration    10          0.734              1.555              1.124
 Vibration    11          0.765              1.472              0.967
 Vibration    12          0.796              1.392              0.840
 Vibration    13          0.819              1.335              0.761
 Vibration    14          0.861              1.237              0.643
 Vibration    15          0.861              1.237              0.643
 Vibration    16          0.897              1.157              0.561
 Vibration    17          0.909              1.133              0.537
 Vibration    18          0.914              1.122              0.528
 Vibration    19          0.927              1.094              0.502
 Vibration    20          0.979              0.991              0.417

 Optimization completed.
    -- Stationary point found.
 Normal termination of Gaussian 16 at Mon Jul 13 16:16:19 2020.
