 Gaussian 16, Revision C.01,
 Gaussian 16:  ES64L-G16RevC.01  3-Jul-2019

 ----------------------------------------------------------------------
 #p opt=addgic freq td wb97xd/cc-pvdz nosymm int=ultrafine scrf=(solven
 t=CarbonTetraChloride)
 ----------------------------------------------------------------------

 ------------------------------------------------
 NM 2D-scan of HBT TD-WB97XD pVDZ in CTC Relaxed.
 ------------------------------------------------
 Symbolic Z-matrix:
 Charge =  0 Multiplicity = 1

 SCF Done:  E(RwB97XD) =  -1028.80069374     A.U. after   15 cycles
 Total Energy, E(TD-HF/TD-DFT) =  -1028.66934313
 SCF Done:  E(RwB97XD) =  -1028.82068117     A.U. after   13 cycles
 Total Energy, E(TD-HF/TD-DFT) =  -1028.69152722
 SCF Done:  E(RwB97XD) =  -1028.82041426     A.U. after   12 cycles
 Total Energy, E(TD-HF/TD-DFT) =  -1028.69285912
 SCF Done:  E(RwB97XD) =  -1028.82088573     A.U. after   11 cycles
 Total Energy, E(TD-HF/TD-DFT) =  -1028.69302679
 SCF Done:  E(RwB97XD) =  -1028.82098219     A.U. after   10 cycles
 Total Energy, E(TD-HF/TD-DFT) =  -1028.69313404
 SCF Done:  E(RwB97XD) =  -1028.82101160     A.U. after    8 cycles
 Total Energy, E(TD-HF/TD-DFT) =  -1028.69313560
 Optimization completed.
    -- Stationary point found.
 Normal termination of Gaussian 16 at Mon Jul 13 17:13:48 2020.

 ----------------------------------------------------------------------
 #P Geom=AllCheck Guess=TCheck SCRF=Check GenChk RwB97XD TD(FC,Read)/CC
 -pVDZ Freq
 ----------------------------------------------------------------------

 Structure from the checkpoint file:  "config_3_11.chk"
 ------------------------------------------------
 NM 2D-scan of HBT TD-WB97XD pVDZ in CTC Relaxed.
 ------------------------------------------------
 Charge =  0 Multiplicity = 1

                          Input orientation:
 ---------------------------------------------------------------------
 Center     Atomic      Atomic             Coordinates (Angstroms)
 Number     Number       Type             X           Y           Z
 ---------------------------------------------------------------------
      1          6           0        1.621025   -3.285054   -0.000027
      2          6           0        0.979002   -2.049248   -0.000015
      3          6           0        1.718895   -0.819407   -0.000009
      4          6           0        3.137396   -0.876541   -0.000016
      5          6           0        3.758749   -2.108952   -0.000028
      6          6           0        3.014834   -3.308744   -0.000034
      7          1           0        1.047905   -4.213036   -0.000032
      8          1           0        3.706272    0.053791   -0.000012
      9          1           0        4.849110   -2.159992   -0.000034
     10          1           0        3.536204   -4.267015   -0.000044
     11          7           0        0.982591    0.300575    0.000002
     12         16           0       -0.736758   -1.711288   -0.000005
     13          6           0       -1.333213    1.048902    0.000016
     14          6           0       -2.733406    0.800704    0.000014
     15          6           0       -0.910192    2.461750    0.000030
     16          6           0       -3.643957    1.845671    0.000025
     17          1           0       -3.090854   -0.230346    0.000004
     18          6           0       -1.860778    3.491730    0.000041
     19          6           0       -3.218293    3.194690    0.000038
     20          1           0       -4.711956    1.622095    0.000023
     21          1           0       -1.492819    4.518134    0.000051
     22          1           0       -3.954326    3.999138    0.000047
     23          6           0       -0.353915    0.036396    0.000006
     24          8           0        0.364230    2.782680    0.000035
     25          1           0        0.901986    1.918419    0.000031
 ---------------------------------------------------------------------

 SCF Done:  E(RwB97XD) =  -1028.82101160     A.U. after    1 cycles

 Excitation energies and oscillator strengths:

 Excited state symmetry could not be determined.
 Excited State   1:      Singlet-?Sym    3.4797 eV  356.31 nm  f=0.6901  <S**2>=0.000
      59 -> 60         0.68921
 This state for optimization and/or second-order correction.
 Total Energy, E(TD-HF/TD-DFT) =  -1028.69313558
 Copying the excited state density for this state as the 1-particle RhoCI density.

 Excited state symmetry could not be determined.
 Excited State   2:      Singlet-?Sym    4.3898 eV  282.43 nm  f=0.2001  <S**2>=0.000
      57 -> 60         0.28064
      58 -> 60         0.59956
      59 -> 62         0.14271

 Excited state symmetry could not be determined.
 Excited State   3:      Singlet-?Sym    4.5913 eV  270.04 nm  f=0.0707  <S**2>=0.000
      57 -> 60         0.55635
      57 -> 62        -0.12500
      58 -> 60        -0.27203
      58 -> 61        -0.12126
      59 -> 61         0.22722

 Alpha  occ. eigenvalues --  -89.08986 -19.28367 -14.47164 -10.39791 -10.38149
 Alpha  occ. eigenvalues --  -10.35043 -10.34753 -10.32579 -10.32324 -10.32154
 Alpha  occ. eigenvalues --  -10.32001 -10.31429 -10.31395 -10.31281 -10.30494
 Alpha  occ. eigenvalues --  -10.30371  -8.10940  -6.05787  -6.05449  -6.04999
 Alpha  occ. eigenvalues --   -1.17096  -1.08271  -0.96727  -0.95696  -0.91823
 Alpha  occ. eigenvalues --   -0.88806  -0.84973  -0.84481  -0.82315  -0.75966
 Alpha  occ. eigenvalues --   -0.71142  -0.70172  -0.69154  -0.68248  -0.63495
 Alpha  occ. eigenvalues --   -0.60376  -0.58909  -0.58620  -0.55927  -0.54433
 Alpha  occ. eigenvalues --   -0.53773  -0.53172  -0.52923  -0.50788  -0.50427
 Alpha  occ. eigenvalues --   -0.49344  -0.47714  -0.45905  -0.45587  -0.44763
 Alpha  occ. eigenvalues --   -0.43936  -0.42915  -0.42267  -0.40018  -0.37361
 Alpha  occ. eigenvalues --   -0.36452  -0.32096  -0.31492  -0.28026
 Alpha virt. eigenvalues --   -0.01813   0.05148   0.06962   0.07143   0.07477
 Alpha virt. eigenvalues --    0.11129   0.13930   0.15163   0.16337   0.18036
 Alpha virt. eigenvalues --    0.18558   0.21032   0.21638   0.22346   0.22718

 Mulliken charges:
               1
     1  C    0.014800
     2  C   -0.221147
     3  C    0.226786
     4  C   -0.017496
     5  C    0.007435
     6  C   -0.006719
     7  H    0.017741
     8  H    0.016820
     9  H    0.018614
    10  H    0.020305
    11  N   -0.360117
    12  S    0.156319
    13  C   -0.083847
    14  C   -0.021254
    15  C    0.086475
    16  C   -0.012220
    17  H    0.016348
    18  C    0.008581
    19  C    0.022447
    20  H    0.011343
    21  H    0.019018
    22  H    0.022898
    23  C    0.083395
    24  O   -0.204466
    25  H    0.177943
 Sum of Mulliken charges =  -0.00000

 Dipole moment (field-independent basis, Debye):
    X=             -0.4927    Y=             -2.0319    Z=             -0.0000  Tot=              2.0908
 Quadrupole moment (field-independent basis, Debye-Ang):
   XX=            -83.2233   YY=            -89.3318   ZZ=           -104.3820
   XY=             -6.9894   XZ=             -0.0001   YZ=              0.0001

  Exact polarizability:     400.051    -190.386     382.697      -0.003       0.003      63.400
 Approx polarizability:     278.608     -36.442     261.185      -0.001       0.002      82.392

                      1                      2                      3
                      A                      A                      A
 Frequencies --     42.7095                63.6864               109.0873
 Red. masses --      6.0209                 5.7696                 4.9157
 Frc consts  --      0.0065                 0.0138                 0.0345
 IR Inten    --      1.4370                 0.0065                 0.2058

                      4                      5                      6
                      A                      A                      A
 Frequencies --    111.9256               180.0076               223.3451
 Red. masses --      5.6227                 6.5519                 5.3807
 Frc consts  --      0.0415                 0.1251                 0.1581
 IR Inten    --      2.1173                 1.1839                 0.0000

                      7                      8                      9
                      A                      A                      A
 Frequencies --    267.8325               270.8223               304.4622
 Red. masses --      7.6922                 4.8301                 6.7072
 Frc consts  --      0.3251                 0.2087                 0.3663
 IR Inten    --     26.0374                 0.0758                 5.1317

                     10                     11                     12
                      A                      A                      A
 Frequencies --    390.1622               402.1062               438.9674
 Red. masses --      4.6080                 9.2355                 3.2699
 Frc consts  --      0.4133                 0.8798                 0.3712
 IR Inten    --      0.1005                13.4345                 4.1673

                     13                     14                     15
                      A                      A                      A
 Frequencies --    490.5796               499.1489               505.1527
 Red. masses --      4.5457                 7.7881                 3.1584
 Frc consts  --      0.6446                 1.1433                 0.4749
 IR Inten    --      0.1752                 6.6365                 0.0135

                     16                     17                     18
                      A                      A                      A
 Frequencies --    515.7218               525.6057               552.6347
 Red. masses --      5.0173                 8.2534                 3.9835
 Frc consts  --      0.7862                 1.3434                 0.7168
 IR Inten    --     32.1565                22.7674                 0.1308

                     19                     20                     21
                      A                      A                      A
 Frequencies --    577.5424               642.8922               694.6609
 Red. masses --      7.6635                 6.6025                 9.1290
 Frc consts  --      1.5061                 1.6078                 2.5955
 IR Inten    --     35.7903                33.8853                31.3347

                     22                     23                     24
                      A                      A                      A
 Frequencies --    715.6465               717.0687               737.2805
 Red. masses --      7.3328                 1.7272                 1.8660
 Frc consts  --      2.2127                 0.5233                 0.5976
 IR Inten    --     19.2629                47.3773                34.2626

                     25                     26                     27
                      A                      A                      A
 Frequencies --    748.5264               771.4014               814.7416
 Red. masses --      1.8911                 2.0909                 6.3260
 Frc consts  --      0.6243                 0.7331                 2.4741
 IR Inten    --     23.2330                51.8744                17.3246

                     28                     29                     30
                      A                      A                      A
 Frequencies --    818.4982               860.5670               890.0157
 Red. masses --      1.6641                 1.4223                 6.4111
 Frc consts  --      0.6569                 0.6206                 2.9921
 IR Inten    --      1.3999                 0.7734                58.8110

                     31                     32                     33
                      A                      A                      A
 Frequencies --    917.8635               953.7499               962.9355
 Red. masses --      1.3455                 1.3430                 7.2454
 Frc consts  --      0.6679                 0.7198                 3.9583
 IR Inten    --      7.6712                 1.8390                 5.6290

                     34                     35                     36
                      A                      A                      A
 Frequencies --    966.6596               987.6361               999.6969
 Red. masses --      1.3543                 1.0679                 1.2990
 Frc consts  --      0.7456                 0.6137                 0.7649
 IR Inten    --      0.3416                64.8351                 0.3639

                     37                     38                     39
                      A                      A                      A
 Frequencies --   1038.4250              1041.5055              1078.5486
 Red. masses --      2.1640                 2.1006                 4.6689
 Frc consts  --      1.3748                 1.3425                 3.2000
 IR Inten    --      2.4682                 0.8711                51.7080

                     40                     41                     42
                      A                      A                      A
 Frequencies --   1135.1612              1149.0628              1175.0648
 Red. masses --      1.4626                 1.3285                 1.1308
 Frc consts  --      1.1104                 1.0334                 0.9200
 IR Inten    --     63.6045                15.0986                 3.2048

                     43                     44                     45
                      A                      A                      A
 Frequencies --   1179.4396              1227.6950              1240.8581
 Red. masses --      1.1970                 4.3047                 1.8866
 Frc consts  --      0.9811                 3.8227                 1.7114
 IR Inten    --     39.9415                35.7001               170.9300

                     46                     47                     48
                      A                      A                      A
 Frequencies --   1279.4125              1316.6001              1363.7977
 Red. masses --      1.6769                 3.5789                 2.6910
 Frc consts  --      1.6172                 3.6552                 2.9489
 IR Inten    --      2.7947               332.0363                21.0460

                     49                     50                     51
                      A                      A                      A
 Frequencies --   1373.8728              1400.1293              1440.8507
 Red. masses --      5.8761                 2.0283                 2.6119
 Frc consts  --      6.5348                 2.3427                 3.1948
 IR Inten    --     53.9381                 1.2950               180.5027

                     52                     53                     54
                      A                      A                      A
 Frequencies --   1473.4171              1502.5549              1523.1517
 Red. masses --      3.5569                 3.8912                 2.9937
 Frc consts  --      4.5496                 5.1761                 4.0920
 IR Inten    --     71.0496                57.2273               175.2097

                     55                     56                     57
                      A                      A                      A
 Frequencies --   1540.5633              1567.8607              1597.7137
 Red. masses --      4.4655                 7.3905                 4.5367
 Frc consts  --      6.2442                10.7039                 6.8232
 IR Inten    --      1.3461               406.5442               349.1952

                     58                     59                     60
                      A                      A                      A
 Frequencies --   1618.4001              1622.7731              1649.6294
 Red. masses --      2.7650                 2.8664                 4.7728
 Frc consts  --      4.2670                 4.4474                 7.6523
 IR Inten    --    638.4009               118.2356               144.4923

                     61                     62                     63
                      A                      A                      A
 Frequencies --   2758.3699              3208.2039              3209.2006
 Red. masses --      1.0815                 1.0862                 1.0864
 Frc consts  --      4.8482                 6.5870                 6.5924
 IR Inten    --     97.0904                10.3348                 4.7189

                     64                     65                     66
                      A                      A                      A
 Frequencies --   3219.1523              3220.7566              3228.5304
 Red. masses --      1.0899                 1.0890                 1.0942
 Frc consts  --      6.6546                 6.6557                 6.7198
 IR Inten    --      3.2846                 1.5422                16.3461

                     67                     68                     69
                      A                      A                      A
 Frequencies --   3231.3039              3237.1416              3240.3752
 Red. masses --      1.0954                 1.0989                 1.0986
 Frc consts  --      6.7384                 6.7847                 6.7961
 IR Inten    --     11.5966                40.9991                25.7335

 - Thermochemistry -
 -------------------
 Temperature   298.150 Kelvin.  Pressure   1.00000 Atm.
 Atom     1 has atomic number  6 and mass  12.00000

 Molecular mass:   227.04049 amu.
 Principal axes and moments of inertia in atomic units:
                           1         2         3
     Eigenvalues --  1323.494736339.669567663.16428
           X           -0.69949   0.71464   0.00000
           Y            0.71464   0.69949  -0.00001
           Z            0.00001   0.00000   1.00000
 This molecule is an asymmetric top.
 Rotational symmetry number  1.
 Warning -- assumption of classical behavior for rotation
           may cause significant error
 Rotational temperatures (Kelvin)      0.06544     0.01366     0.01130
 Rotational constants (GHZ):           1.36362     0.28467     0.23551
 Zero-point vibrational energy     489038.6 (Joules/Mol)
                                  116.88302 (Kcal/Mol)
 Warning -- explicit consideration of  19 degrees of freedom as
           vibrations may cause significant error
 Vibrational temperatures:     61.45    91.63   156.95   161.04   258.99
          (Kelvin)            321.34   385.35   389.65   438.05   561.36
                              578.54   631.58   705.83   718.16   726.80
                              742.01   756.23   795.12   830.95   924.98
                              999.46  1029.66  1031.70  1060.78  1076.96
                             1109.87  1172.23  1177.64  1238.16  1280.53
                             1320.60  1372.23  1385.45  1390.81  1420.99
                             1438.34  1494.06  1498.49  1551.79  1633.24
                             1653.25  1690.66  1696.95  1766.38  1785.32
                             1840.79  1894.29  1962.20  1976.70  2014.47
                             2073.06  2119.92  2161.84  2191.48  2216.53
                             2255.80  2298.75  2328.52  2334.81  2373.45
                             3968.68  4615.89  4617.32  4631.64  4633.95
                             4645.14  4649.13  4657.52  4662.18

 Zero-point correction=                           0.186265 (Hartree/Particle)
 Thermal correction to Energy=                    0.198543
 Thermal correction to Enthalpy=                  0.199487
 Thermal correction to Gibbs Free Energy=         0.146926
 Sum of electronic and zero-point Energies=          -1028.506871
 Sum of electronic and thermal Energies=             -1028.494592
 Sum of electronic and thermal Enthalpies=           -1028.493648
 Sum of electronic and thermal Free Energies=        -1028.546210

                     E (Thermal)             CV                S
                      KCal/Mol        Cal/Mol-Kelvin    Cal/Mol-Kelvin
 Total                  124.588             49.267            110.626
 Electronic               0.000              0.000              0.000
 Translational            0.889              2.981             42.162
 Rotational               0.889              2.981             32.530
 Vibrational            122.810             43.305             35.933
 Vibration     1          0.595              1.980              5.129
 Vibration     2          0.597              1.972              4.340
 Vibration     3          0.606              1.942              3.285
 Vibration     4          0.607              1.940              3.235
 Vibration     5          0.629              1.867              2.328
 Vibration     6          0.649              1.806              1.932
 Vibration     7          0.673              1.732              1.610
 Vibration     8          0.675              1.727              1.591
 Vibration     9          0.695              1.665              1.392
 Vibration    10          0.758              1.491              1.000
 Vibration    11          0.768              1.466              0.955
 Vibration    12          0.799              1.385              0.830
 Vibration    13          0.846              1.271              0.682
 Vibration    14          0.855              1.252              0.660
 Vibration    15          0.860              1.239              0.645
 Vibration    16          0.871              1.215              0.620
 Vibration    17          0.881              1.193              0.597
 Vibration    18          0.908              1.134              0.539
 Vibration    19          0.934              1.080              0.490

 Optimization completed.
    -- Stationary point found.
 Normal termination of Gaussian 16 at Mon Jul 13 17:31:29 2020.
