 Gaussian 16, Revision C.01,
 Gaussian 16:  ES64L-G16RevC.01  3-Jul-2019

 ----------------------------------------------------------------------
 #p opt=addgic freq td wb97xd/cc-pvdz nosymm int=ultrafine scrf=(solven
 t=CarbonTetraChloride)
 ----------------------------------------------------------------------

 ------------------------------------------------
 NM 2D-scan of HBT TD-WB97XD pVDZ in CTC Relaxed.
 ------------------------------------------------
 Symbolic Z-matrix:
 Charge =  0 Multiplicity = 1

 SCF Done:  E(RwB97XD) =  -1028.81889803     A.U. after   15 cycles
 Total Energy, E(TD-HF/TD-DFT) =  -1028.68943290
 SCF Done:  E(RwB97XD) =  -1028.82085958     A.U. after   12 cycles
 Total Energy, E(TD-HF/TD-DFT) =  -1028.69259070
 SCF Done:  E(RwB97XD) =  -1028.81996055     A.U. after   12 cycles
 Total Energy, E(TD-HF/TD-DFT) =  -1028.69292950
 SCF Done:  E(RwB97XD) =  -1028.82015317     A.U. after   11 cycles
 Total Energy, E(TD-HF/TD-DFT) =  -1028.69295636
 SCF Done:  E(RwB97XD) =  -1028.82027060     A.U. after   10 cycles
 Total Energy, E(TD-HF/TD-DFT) =  -1028.69302384
 Optimization completed.
    -- Stationary point found.
 Normal termination of Gaussian 16 at Mon Jul 13 14:00:54 2020.

 ----------------------------------------------------------------------
 #P Geom=AllCheck Guess=TCheck SCRF=Check GenChk RwB97XD TD(FC,Read)/CC
 -pVDZ Freq
 ----------------------------------------------------------------------

 Structure from the checkpoint file:  "config_4_11.chk"
 ------------------------------------------------
 NM 2D-scan of HBT TD-WB97XD pVDZ in CTC Relaxed.
 ------------------------------------------------
 Charge =  0 Multiplicity = 1

                          Input orientation:
 ---------------------------------------------------------------------
 Center     Atomic      Atomic             Coordinates (Angstroms)
 Number     Number       Type             X           Y           Z
 ---------------------------------------------------------------------
      1          6           0        1.620117   -3.273248   -0.000042
      2          6           0        0.988867   -2.033116   -0.000034
      3          6           0        1.728653   -0.807688   -0.000003
      4          6           0        3.144999   -0.872746    0.000020
      5          6           0        3.759531   -2.111768    0.000011
      6          6           0        3.012860   -3.307492   -0.000019
      7          1           0        1.037663   -4.195336   -0.000065
      8          1           0        3.723554    0.051624    0.000044
      9          1           0        4.849756   -2.166769    0.000029
     10          1           0        3.529160   -4.268401   -0.000025
     11          7           0        0.976571    0.308072   -0.000001
     12         16           0       -0.728056   -1.700599   -0.000055
     13          6           0       -1.342389    1.044832   -0.000011
     14          6           0       -2.736186    0.796309    0.000009
     15          6           0       -0.904457    2.452224    0.000006
     16          6           0       -3.645987    1.847114    0.000052
     17          1           0       -3.096369   -0.233712   -0.000001
     18          6           0       -1.855196    3.487739    0.000056
     19          6           0       -3.215549    3.193056    0.000079
     20          1           0       -4.714628    1.626446    0.000071
     21          1           0       -1.487344    4.514229    0.000068
     22          1           0       -3.949515    3.999365    0.000115
     23          6           0       -0.358062    0.035403   -0.000030
     24          8           0        0.372039    2.733333   -0.000040
     25          1           0        0.896455    1.824416   -0.000130
 ---------------------------------------------------------------------

 SCF Done:  E(RwB97XD) =  -1028.82027060     A.U. after    1 cycles

 Excitation energies and oscillator strengths:

 Excited state symmetry could not be determined.
 Excited State   1:      Singlet-?Sym    3.4626 eV  358.07 nm  f=0.6436  <S**2>=0.000
      59 -> 60         0.68974
 This state for optimization and/or second-order correction.
 Total Energy, E(TD-HF/TD-DFT) =  -1028.69302388
 Copying the excited state density for this state as the 1-particle RhoCI density.

 Excited state symmetry could not be determined.
 Excited State   2:      Singlet-?Sym    4.3906 eV  282.39 nm  f=0.2424  <S**2>=0.000
      57 -> 60         0.22546
      58 -> 60         0.62619
      59 -> 62         0.11724
      59 -> 63         0.10781

 Excited state symmetry could not be determined.
 Excited State   3:      Singlet-?Sym    4.6314 eV  267.70 nm  f=0.0662  <S**2>=0.000
      57 -> 60         0.57568
      57 -> 62        -0.14150
      58 -> 60        -0.22089
      58 -> 61        -0.13807
      59 -> 61         0.22522

 Alpha  occ. eigenvalues --  -89.09083 -19.27676 -14.47426 -10.39902 -10.37965
 Alpha  occ. eigenvalues --  -10.35281 -10.34824 -10.32321 -10.32248 -10.32228
 Alpha  occ. eigenvalues --  -10.31937 -10.31601 -10.31474 -10.31403 -10.30383
 Alpha  occ. eigenvalues --  -10.30263  -8.11067  -6.05913  -6.05571  -6.05125
 Alpha  occ. eigenvalues --   -1.16560  -1.08505  -0.96776  -0.95729  -0.92003
 Alpha  occ. eigenvalues --   -0.88830  -0.85039  -0.84369  -0.82395  -0.75939
 Alpha  occ. eigenvalues --   -0.71136  -0.70283  -0.69126  -0.68185  -0.63522
 Alpha  occ. eigenvalues --   -0.60518  -0.58917  -0.58620  -0.55838  -0.54413
 Alpha  occ. eigenvalues --   -0.53964  -0.53124  -0.53038  -0.50857  -0.50293
 Alpha  occ. eigenvalues --   -0.49485  -0.47475  -0.45983  -0.45611  -0.44793
 Alpha  occ. eigenvalues --   -0.44003  -0.42818  -0.42429  -0.40136  -0.37011
 Alpha  occ. eigenvalues --   -0.36478  -0.32200  -0.31385  -0.28022
 Alpha virt. eigenvalues --   -0.01767   0.05030   0.06917   0.07293   0.07488
 Alpha virt. eigenvalues --    0.11019   0.14091   0.15145   0.16417   0.18019
 Alpha virt. eigenvalues --    0.18608   0.21081   0.21661   0.22388   0.22616

 Mulliken charges:
               1
     1  C    0.016652
     2  C   -0.224900
     3  C    0.237524
     4  C   -0.017975
     5  C    0.007246
     6  C   -0.005074
     7  H    0.018136
     8  H    0.018626
     9  H    0.019550
    10  H    0.020833
    11  N   -0.360613
    12  S    0.162469
    13  C   -0.088831
    14  C   -0.022116
    15  C    0.096030
    16  C   -0.015247
    17  H    0.015483
    18  C    0.002376
    19  C    0.023794
    20  H    0.010465
    21  H    0.017675
    22  H    0.022451
    23  C    0.083879
    24  O   -0.228910
    25  H    0.190475
 Sum of Mulliken charges =  -0.00000

 Dipole moment (field-independent basis, Debye):
    X=             -0.3459    Y=             -2.3692    Z=             -0.0001  Tot=              2.3943
 Quadrupole moment (field-independent basis, Debye-Ang):
   XX=            -83.2322   YY=            -89.6938   ZZ=           -104.3317
   XY=             -7.0440   XZ=             -0.0002   YZ=              0.0002

  Exact polarizability:     392.874    -181.193     369.274      -0.002       0.004      63.356
 Approx polarizability:     277.240     -35.839     260.104      -0.000       0.003      82.367

                      1                      2                      3
                      A                      A                      A
 Frequencies --     44.8413                56.6824               108.1298
 Red. masses --      5.7901                 6.3278                 5.5361
 Frc consts  --      0.0069                 0.0120                 0.0381
 IR Inten    --      1.4687                 0.0697                 1.3683

                      4                      5                      6
                      A                      A                      A
 Frequencies --    108.8030               177.8726               223.1995
 Red. masses --      4.9333                 6.3349                 5.3540
 Frc consts  --      0.0344                 0.1181                 0.1572
 IR Inten    --      0.1259                 1.1252                 0.0067

                      7                      8                      9
                      A                      A                      A
 Frequencies --    269.9889               271.8622               304.1339
 Red. masses --      7.5754                 4.8136                 6.2965
 Frc consts  --      0.3253                 0.2096                 0.3431
 IR Inten    --     26.7269                 0.0753                 6.3963

                     10                     11                     12
                      A                      A                      A
 Frequencies --    385.7350               405.5704               438.7341
 Red. masses --      4.6556                 9.4111                 3.2428
 Frc consts  --      0.4081                 0.9121                 0.3678
 IR Inten    --      0.1183                11.7651                 4.2756

                     13                     14                     15
                      A                      A                      A
 Frequencies --    487.1909               501.6015               502.4460
 Red. masses --      4.6508                 7.4988                 3.1660
 Frc consts  --      0.6504                 1.1116                 0.4709
 IR Inten    --      0.0836                 4.1100                 0.0225

                     16                     17                     18
                      A                      A                      A
 Frequencies --    511.0424               528.6105               554.9444
 Red. masses --      4.8812                 8.2250                 3.9569
 Frc consts  --      0.7511                 1.3541                 0.7180
 IR Inten    --     14.2426                38.8706                 0.1305

                     19                     20                     21
                      A                      A                      A
 Frequencies --    577.6362               640.7200               707.3195
 Red. masses --      7.6248                 6.6574                 7.4189
 Frc consts  --      1.4990                 1.6102                 2.1869
 IR Inten    --     17.1784                42.1189                 8.2624

                     22                     23                     24
                      A                      A                      A
 Frequencies --    711.6833               724.8006               738.9228
 Red. masses --      1.6854                 8.9869                 1.8968
 Frc consts  --      0.5030                 2.7816                 0.6102
 IR Inten    --     46.5696                28.7417                30.8936

                     25                     26                     27
                      A                      A                      A
 Frequencies --    751.9653               770.0924               815.9911
 Red. masses --      1.8933                 2.0562                 1.6833
 Frc consts  --      0.6308                 0.7185                 0.6604
 IR Inten    --     25.2683                52.6700                 0.5741

                     28                     29                     30
                      A                      A                      A
 Frequencies --    819.5411               860.9149               895.0450
 Red. masses --      6.2563                 1.4177                 6.4626
 Frc consts  --      2.4758                 0.6191                 3.0503
 IR Inten    --     11.4597                 0.9055                58.5207

                     31                     32                     33
                      A                      A                      A
 Frequencies --    913.9316               953.1830               963.9231
 Red. masses --      1.3528                 1.3445                 1.3658
 Frc consts  --      0.6657                 0.7197                 0.7477
 IR Inten    --      5.3699                 1.8420                 0.1322

                     34                     35                     36
                      A                      A                      A
 Frequencies --    970.8150               999.5394              1038.0983
 Red. masses --      7.2300                 1.2995                 2.1494
 Frc consts  --      4.0148                 0.7649                 1.3648
 IR Inten    --      4.8310                 0.0084                 1.5278

                     37                     38                     39
                      A                      A                      A
 Frequencies --   1044.1234              1080.2161              1090.4125
 Red. masses --      2.1117                 4.3017                 1.0581
 Frc consts  --      1.3564                 2.9574                 0.7412
 IR Inten    --      0.9193                64.0929                66.4464

                     40                     41                     42
                      A                      A                      A
 Frequencies --   1132.4215              1148.6379              1173.8186
 Red. masses --      1.4865                 1.3428                 1.1341
 Frc consts  --      1.1232                 1.0438                 0.9207
 IR Inten    --     65.6163                14.5977                14.4012

                     43                     44                     45
                      A                      A                      A
 Frequencies --   1178.8293              1238.4246              1246.9356
 Red. masses --      1.1989                 3.3052                 2.0991
 Frc consts  --      0.9816                 2.9866                 1.9229
 IR Inten    --     36.2749                47.1159               138.8830

                     46                     47                     48
                      A                      A                      A
 Frequencies --   1282.9545              1303.8411              1367.7818
 Red. masses --      1.7330                 3.9263                 2.5627
 Frc consts  --      1.6806                 3.9326                 2.8248
 IR Inten    --      1.8056               242.8154                12.0259

                     49                     50                     51
                      A                      A                      A
 Frequencies --   1373.5972              1401.8902              1442.2221
 Red. masses --      5.3100                 2.1860                 2.5757
 Frc consts  --      5.9029                 2.5312                 3.1566
 IR Inten    --    119.6378                 0.9021               160.2453

                     52                     53                     54
                      A                      A                      A
 Frequencies --   1472.3759              1497.0046              1533.6237
 Red. masses --      3.8303                 3.5547                 4.4472
 Frc consts  --      4.8924                 4.6935                 6.1627
 IR Inten    --     45.1831                43.3524               200.8419

                     55                     56                     57
                      A                      A                      A
 Frequencies --   1540.2681              1568.4703              1597.4074
 Red. masses --      3.9917                 6.6348                 4.4376
 Frc consts  --      5.5795                 9.6167                 6.6716
 IR Inten    --     36.9534               509.2492                11.6819

                     58                     59                     60
                      A                      A                      A
 Frequencies --   1613.0490              1644.7248              1666.7420
 Red. masses --      5.6544                 4.7010                 1.6158
 Frc consts  --      8.6682                 7.4926                 2.6447
 IR Inten    --    640.2550               490.0450               160.0376

                     61                     62                     63
                      A                      A                      A
 Frequencies --   2237.5900              3207.8783              3209.6551
 Red. masses --      1.1173                 1.0863                 1.0865
 Frc consts  --      3.2959                 6.5860                 6.5948
 IR Inten    --    312.6402                10.0554                 6.6066

                     64                     65                     66
                      A                      A                      A
 Frequencies --   3219.3038              3220.7574              3228.5471
 Red. masses --      1.0899                 1.0889                 1.0941
 Frc consts  --      6.6550                 6.6552                 6.7192
 IR Inten    --      2.9359                 2.7675                15.8921

                     67                     68                     69
                      A                      A                      A
 Frequencies --   3231.1109              3236.9683              3240.2643
 Red. masses --      1.0952                 1.0990                 1.0984
 Frc consts  --      6.7370                 6.7845                 6.7948
 IR Inten    --     10.6777                38.9460                23.5601

 - Thermochemistry -
 -------------------
 Temperature   298.150 Kelvin.  Pressure   1.00000 Atm.
 Atom     1 has atomic number  6 and mass  12.00000

 Molecular mass:   227.04049 amu.
 Principal axes and moments of inertia in atomic units:
                           1         2         3
     Eigenvalues --  1310.880336322.726257633.60657
           X           -0.70199   0.71219  -0.00000
           Y            0.71219   0.70199  -0.00001
           Z            0.00001   0.00001   1.00000
 This molecule is an asymmetric top.
 Rotational symmetry number  1.
 Warning -- assumption of classical behavior for rotation
           may cause significant error
 Rotational temperatures (Kelvin)      0.06607     0.01370     0.01135
 Rotational constants (GHZ):           1.37674     0.28544     0.23642
 Zero-point vibrational energy     486924.1 (Joules/Mol)
                                  116.37766 (Kcal/Mol)
 Warning -- explicit consideration of  19 degrees of freedom as
           vibrations may cause significant error
 Vibrational temperatures:     64.52    81.55   155.57   156.54   255.92
          (Kelvin)            321.13   388.45   391.15   437.58   554.99
                              583.53   631.24   700.96   721.69   722.91
                              735.28   760.55   798.44   831.09   921.85
                             1017.67  1023.95  1042.83  1063.15  1081.91
                             1107.99  1174.03  1179.14  1238.66  1287.77
                             1314.94  1371.42  1386.87  1396.79  1438.11
                             1493.59  1502.26  1554.19  1568.86  1629.30
                             1652.63  1688.86  1696.07  1781.82  1794.06
                             1845.89  1875.94  1967.93  1976.30  2017.01
                             2075.04  2118.42  2153.86  2206.54  2216.10
                             2256.68  2298.31  2320.82  2366.39  2398.07
                             3219.39  4615.42  4617.98  4631.86  4633.95
                             4645.16  4648.85  4657.28  4662.02

 Zero-point correction=                           0.185460 (Hartree/Particle)
 Thermal correction to Energy=                    0.197737
 Thermal correction to Enthalpy=                  0.198681
 Thermal correction to Gibbs Free Energy=         0.146049
 Sum of electronic and zero-point Energies=          -1028.507564
 Sum of electronic and thermal Energies=             -1028.495287
 Sum of electronic and thermal Enthalpies=           -1028.494343
 Sum of electronic and thermal Free Energies=        -1028.546975

                     E (Thermal)             CV                S
                      KCal/Mol        Cal/Mol-Kelvin    Cal/Mol-Kelvin
 Total                  124.082             49.122            110.773
 Electronic               0.000              0.000              0.000
 Translational            0.889              2.981             42.162
 Rotational               0.889              2.981             32.514
 Vibrational            122.304             43.161             36.097
 Vibration     1          0.595              1.979              5.033
 Vibration     2          0.596              1.975              4.569
 Vibration     3          0.606              1.943              3.302
 Vibration     4          0.606              1.942              3.290
 Vibration     5          0.628              1.870              2.351
 Vibration     6          0.649              1.806              1.933
 Vibration     7          0.674              1.728              1.596
 Vibration     8          0.675              1.725              1.584
 Vibration     9          0.695              1.666              1.394
 Vibration    10          0.754              1.501              1.017
 Vibration    11          0.771              1.458              0.942
 Vibration    12          0.799              1.386              0.831
 Vibration    13          0.843              1.278              0.691
 Vibration    14          0.857              1.246              0.654
 Vibration    15          0.858              1.245              0.652
 Vibration    16          0.866              1.226              0.631
 Vibration    17          0.884              1.187              0.590
 Vibration    18          0.910              1.129              0.534
 Vibration    19          0.934              1.080              0.490

 Optimization completed.
    -- Stationary point found.
 Normal termination of Gaussian 16 at Mon Jul 13 14:18:25 2020.
