 Gaussian 16, Revision C.01,
 Gaussian 16:  ES64L-G16RevC.01  3-Jul-2019

 ----------------------------------------------------------------------
 #p opt=addgic freq td wb97xd/cc-pvdz nosymm int=ultrafine scrf=(solven
 t=CarbonTetraChloride)
 ----------------------------------------------------------------------

 ------------------------------------------------
 NM 2D-scan of HBT TD-WB97XD pVDZ in CTC Relaxed.
 ------------------------------------------------
 Symbolic Z-matrix:
 Charge =  0 Multiplicity = 1

 SCF Done:  E(RwB97XD) =  -1028.81072265     A.U. after   15 cycles
 Total Energy, E(TD-HF/TD-DFT) =  -1028.68399837
 SCF Done:  E(RwB97XD) =  -1028.81223269     A.U. after   12 cycles
 Total Energy, E(TD-HF/TD-DFT) =  -1028.68492576
 SCF Done:  E(RwB97XD) =  -1028.81291545     A.U. after   11 cycles
 Total Energy, E(TD-HF/TD-DFT) =  -1028.68510779
 SCF Done:  E(RwB97XD) =  -1028.81259684     A.U. after   11 cycles
 Total Energy, E(TD-HF/TD-DFT) =  -1028.68534304
 SCF Done:  E(RwB97XD) =  -1028.81250993     A.U. after   10 cycles
 Total Energy, E(TD-HF/TD-DFT) =  -1028.68534969
 SCF Done:  E(RwB97XD) =  -1028.81244396     A.U. after   10 cycles
 Total Energy, E(TD-HF/TD-DFT) =  -1028.68535003
 SCF Done:  E(RwB97XD) =  -1028.81245437     A.U. after    8 cycles
 Total Energy, E(TD-HF/TD-DFT) =  -1028.68535100
 Optimization completed.
    -- Stationary point found.
 Normal termination of Gaussian 16 at Tue Jul 14 16:41:24 2020.

 ----------------------------------------------------------------------
 #P Geom=AllCheck Guess=TCheck SCRF=Check GenChk RwB97XD TD(FC,Read)/CC
 -pVDZ Freq
 ----------------------------------------------------------------------

 Structure from the checkpoint file:  "config_4_19.chk"
 ------------------------------------------------
 NM 2D-scan of HBT TD-WB97XD pVDZ in CTC Relaxed.
 ------------------------------------------------
 Charge =  0 Multiplicity = 1

                          Input orientation:
 ---------------------------------------------------------------------
 Center     Atomic      Atomic             Coordinates (Angstroms)
 Number     Number       Type             X           Y           Z
 ---------------------------------------------------------------------
      1          6           0        1.506471   -3.246011   -0.000082
      2          6           0        0.999884   -1.952641   -0.000072
      3          6           0        1.809145   -0.772331   -0.000006
      4          6           0        3.215006   -0.975868    0.000044
      5          6           0        3.716172   -2.273710    0.000035
      6          6           0        2.883639   -3.410038   -0.000026
      7          1           0        0.829325   -4.101063   -0.000128
      8          1           0        3.890583   -0.119627    0.000094
      9          1           0        4.798683   -2.415618    0.000078
     10          1           0        3.318868   -4.409989   -0.000027
     11          7           0        1.086880    0.385705    0.000004
     12         16           0       -0.684129   -1.558114   -0.000123
     13          6           0       -1.289249    1.081583    0.000010
     14          6           0       -2.651117    0.708657    0.000074
     15          6           0       -0.931795    2.496109   -0.000002
     16          6           0       -3.640897    1.682606    0.000091
     17          1           0       -2.928032   -0.345671    0.000116
     18          6           0       -1.963576    3.459336    0.000020
     19          6           0       -3.303019    3.052911    0.000058
     20          1           0       -4.690118    1.383144    0.000133
     21          1           0       -1.692341    4.515546   -0.000001
     22          1           0       -4.094885    3.802790    0.000065
     23          6           0       -0.254839    0.131590   -0.000039
     24          8           0        0.341016    2.779460   -0.000056
     25          1           0        0.907588    1.856319   -0.000142
 ---------------------------------------------------------------------

 SCF Done:  E(RwB97XD) =  -1028.81245437     A.U. after    1 cycles

 Excitation energies and oscillator strengths:

 Excited state symmetry could not be determined.
 Excited State   1:      Singlet-?Sym    3.4587 eV  358.47 nm  f=0.6106  <S**2>=0.000
      59 -> 60         0.68989
 This state for optimization and/or second-order correction.
 Total Energy, E(TD-HF/TD-DFT) =  -1028.68535102
 Copying the excited state density for this state as the 1-particle RhoCI density.

 Excited state symmetry could not be determined.
 Excited State   2:      Singlet-?Sym    4.3740 eV  283.46 nm  f=0.1847  <S**2>=0.000
      57 -> 60         0.21182
      58 -> 60         0.63286
      59 -> 62         0.10048
      59 -> 63         0.10332

 Excited state symmetry could not be determined.
 Excited State   3:      Singlet-?Sym    4.6607 eV  266.02 nm  f=0.1086  <S**2>=0.000
      57 -> 60         0.58955
      57 -> 62        -0.14515
      58 -> 60        -0.21478
      58 -> 61        -0.12948
      59 -> 61         0.19499

 Alpha  occ. eigenvalues --  -89.08741 -19.27425 -14.47990 -10.39723 -10.37874
 Alpha  occ. eigenvalues --  -10.35741 -10.34591 -10.32205 -10.32087 -10.32054
 Alpha  occ. eigenvalues --  -10.31896 -10.31837 -10.31519 -10.31455 -10.30497
 Alpha  occ. eigenvalues --  -10.30416  -8.10886  -6.05714  -6.05370  -6.04948
 Alpha  occ. eigenvalues --   -1.16120  -1.08505  -0.96916  -0.96001  -0.92455
 Alpha  occ. eigenvalues --   -0.88830  -0.85300  -0.84357  -0.82364  -0.75911
 Alpha  occ. eigenvalues --   -0.71404  -0.70580  -0.69075  -0.67838  -0.63700
 Alpha  occ. eigenvalues --   -0.60648  -0.59046  -0.58705  -0.55908  -0.54451
 Alpha  occ. eigenvalues --   -0.54155  -0.53565  -0.53023  -0.50616  -0.50264
 Alpha  occ. eigenvalues --   -0.49387  -0.46950  -0.46074  -0.45749  -0.44867
 Alpha  occ. eigenvalues --   -0.44265  -0.42844  -0.42373  -0.40232  -0.36967
 Alpha  occ. eigenvalues --   -0.36480  -0.32095  -0.31471  -0.28156
 Alpha virt. eigenvalues --   -0.01755   0.04972   0.06707   0.07349   0.07948
 Alpha virt. eigenvalues --    0.10942   0.14644   0.15205   0.17293   0.17954
 Alpha virt. eigenvalues --    0.18730   0.21192   0.21501   0.22409   0.22490

 Mulliken charges:
               1
     1  C    0.023930
     2  C   -0.218972
     3  C    0.227823
     4  C   -0.023781
     5  C    0.003160
     6  C   -0.001153
     7  H    0.017654
     8  H    0.020725
     9  H    0.020207
    10  H    0.020796
    11  N   -0.369687
    12  S    0.165837
    13  C   -0.080695
    14  C   -0.030944
    15  C    0.108211
    16  C   -0.013473
    17  H    0.024950
    18  C   -0.008318
    19  C    0.024513
    20  H    0.010023
    21  H    0.018151
    22  H    0.022985
    23  C    0.087958
    24  O   -0.255663
    25  H    0.205765
 Sum of Mulliken charges =  -0.00000

 Dipole moment (field-independent basis, Debye):
    X=             -0.5179    Y=             -2.7167    Z=             -0.0001  Tot=              2.7656
 Quadrupole moment (field-independent basis, Debye-Ang):
   XX=            -83.1275   YY=            -90.3078   ZZ=           -104.2166
   XY=             -7.1595   XZ=             -0.0001   YZ=              0.0001

  Exact polarizability:     383.109    -174.130     360.496      -0.002       0.004      63.246
 Approx polarizability:     274.922     -34.897     257.881       0.001       0.002      82.330

                      1                      2                      3
                      A                      A                      A
 Frequencies --     35.2087                42.7428                50.1705
 Red. masses --      5.1012                 4.9110                 6.8469
 Frc consts  --      0.0037                 0.0053                 0.0102
 IR Inten    --      0.0857                 0.8421                 1.4531

                      4                      5                      6
                      A                      A                      A
 Frequencies --    110.7745               174.7213               223.2921
 Red. masses --      5.3308                 6.2288                 5.2636
 Frc consts  --      0.0385                 0.1120                 0.1546
 IR Inten    --      0.0280                 1.3671                 0.0075

                      7                      8                      9
                      A                      A                      A
 Frequencies --    257.6385               274.4978               287.1101
 Red. masses --      5.3641                 4.7945                 7.4226
 Frc consts  --      0.2098                 0.2128                 0.3605
 IR Inten    --     14.3075                 0.0091                28.6291

                     10                     11                     12
                      A                      A                      A
 Frequencies --    379.7719               421.0824               441.3805
 Red. masses --      4.6329                 9.3415                 3.2014
 Frc consts  --      0.3937                 0.9759                 0.3675
 IR Inten    --      0.0538                10.4251                 3.9152

                     13                     14                     15
                      A                      A                      A
 Frequencies --    479.8748               482.9383               503.8925
 Red. masses --      4.6685                 4.5015                 3.1593
 Frc consts  --      0.6334                 0.6186                 0.4726
 IR Inten    --      0.0083                 8.9092                 0.0547

                     16                     17                     18
                      A                      A                      A
 Frequencies --    507.4431               537.2163               558.7306
 Red. masses --      8.6885                 7.6984                 3.8937
 Frc consts  --      1.3182                 1.3090                 0.7162
 IR Inten    --      0.1070                47.1195                 0.1631

                     19                     20                     21
                      A                      A                      A
 Frequencies --    575.7390               640.4566               711.2344
 Red. masses --      7.6991                 6.6876                 1.5529
 Frc consts  --      1.5036                 1.6162                 0.4628
 IR Inten    --      7.1989                25.0833                59.1196

                     22                     23                     24
                      A                      A                      A
 Frequencies --    726.9222               738.9722               740.6731
 Red. masses --      6.5305                10.2173                 1.8488
 Frc consts  --      2.0332                 3.2873                 0.5976
 IR Inten    --      0.2516                34.7672                48.8495

                     25                     26                     27
                      A                      A                      A
 Frequencies --    744.0303               768.4819               803.6826
 Red. masses --      1.8272                 2.1920                 1.8890
 Frc consts  --      0.5960                 0.7627                 0.7189
 IR Inten    --      0.0035                48.7223                 2.7942

                     28                     29                     30
                      A                      A                      A
 Frequencies --    833.6816               861.9529               888.9711
 Red. masses --      6.4092                 1.4159                 6.4357
 Frc consts  --      2.6245                 0.6198                 2.9966
 IR Inten    --      6.0092                 0.9896                75.4749

                     31                     32                     33
                      A                      A                      A
 Frequencies --    909.5896               953.0261               961.2174
 Red. masses --      1.3556                 1.3478                 1.3721
 Frc consts  --      0.6608                 0.7213                 0.7469
 IR Inten    --      4.6707                 1.9751                 0.0185

                     34                     35                     36
                      A                      A                      A
 Frequencies --    980.2245               998.9025              1044.8375
 Red. masses --      7.2222                 1.3037                 2.2345
 Frc consts  --      4.0886                 0.7664                 1.4372
 IR Inten    --      8.7500                 0.0003                 1.8419

                     37                     38                     39
                      A                      A                      A
 Frequencies --   1048.2362              1093.8397              1133.0743
 Red. masses --      2.0164                 3.3827                 1.7027
 Frc consts  --      1.3054                 2.3846                 1.2880
 IR Inten    --      9.4914                73.1589                38.1179

                     40                     41                     42
                      A                      A                      A
 Frequencies --   1139.6977              1149.6563              1178.8632
 Red. masses --      1.0533                 1.4203                 1.3500
 Frc consts  --      0.8061                 1.1061                 1.1054
 IR Inten    --     66.5544                 8.4513                18.2243

                     43                     44                     45
                      A                      A                      A
 Frequencies --   1183.0673              1224.5194              1252.9544
 Red. masses --      1.2462                 2.8266                 3.0892
 Frc consts  --      1.0277                 2.4971                 2.8574
 IR Inten    --      7.0549                19.3437                61.9402

                     46                     47                     48
                      A                      A                      A
 Frequencies --   1280.8502              1289.0124              1364.7135
 Red. masses --      1.9092                 1.8040                 4.6113
 Frc consts  --      1.8455                 1.7661                 5.0601
 IR Inten    --    118.9473                12.2138               106.8148

                     49                     50                     51
                      A                      A                      A
 Frequencies --   1376.5977              1412.8972              1456.0495
 Red. masses --      2.5861                 3.0137                 2.5900
 Frc consts  --      2.8874                 3.5446                 3.2352
 IR Inten    --    150.8569               174.6722                29.6812

                     52                     53                     54
                      A                      A                      A
 Frequencies --   1463.7943              1485.3723              1539.0137
 Red. masses --      2.4530                 2.7853                 4.5113
 Frc consts  --      3.0968                 3.6207                 6.2956
 IR Inten    --      9.9875               148.1174               146.5853

                     55                     56                     57
                      A                      A                      A
 Frequencies --   1551.2537              1563.7443              1591.3759
 Red. masses --      4.1860                 3.5234                 5.2623
 Frc consts  --      5.9349                 5.0762                 7.8519
 IR Inten    --     14.2558                31.2490               172.0957

                     58                     59                     60
                      A                      A                      A
 Frequencies --   1611.0380              1645.5945              1695.6360
 Red. masses --      5.7900                 5.9380                 1.8251
 Frc consts  --      8.8540                 9.4740                 3.0917
 IR Inten    --    652.6596               460.9756               745.1945

                     61                     62                     63
                      A                      A                      A
 Frequencies --   1822.9506              3204.5774              3214.0753
 Red. masses --      1.1999                 1.0862                 1.0861
 Frc consts  --      2.3494                 6.5722                 6.6105
 IR Inten    --    255.8536                 8.2736                 5.0150

                     64                     65                     66
                      A                      A                      A
 Frequencies --   3214.5964              3223.9954              3225.3508
 Red. masses --      1.0900                 1.0886                 1.0950
 Frc consts  --      6.6363                 6.6668                 6.7115
 IR Inten    --      1.9475                20.7791                11.4098

                     67                     68                     69
                      A                      A                      A
 Frequencies --   3233.3928              3233.6174              3240.5212
 Red. masses --      1.0947                 1.0988                 1.0983
 Frc consts  --      6.7433                 6.7695                 6.7950
 IR Inten    --     20.2349                24.5464                19.1568

 - Thermochemistry -
 -------------------
 Temperature   298.150 Kelvin.  Pressure   1.00000 Atm.
 Atom     1 has atomic number  6 and mass  12.00000

 Molecular mass:   227.04049 amu.
 Principal axes and moments of inertia in atomic units:
                           1         2         3
     Eigenvalues --  1274.940516288.631777563.57228
           X           -0.70500   0.70920  -0.00000
           Y            0.70920   0.70500  -0.00002
           Z            0.00001   0.00001   1.00000
 This molecule is an asymmetric top.
 Rotational symmetry number  1.
 Warning -- assumption of classical behavior for rotation
           may cause significant error
 Rotational temperatures (Kelvin)      0.06794     0.01377     0.01145
 Rotational constants (GHZ):           1.41555     0.28698     0.23861
 Zero-point vibrational energy     484457.8 (Joules/Mol)
                                  115.78818 (Kcal/Mol)
 Warning -- explicit consideration of  19 degrees of freedom as
           vibrations may cause significant error
 Vibrational temperatures:     50.66    61.50    72.18   159.38   251.38
          (Kelvin)            321.27   370.68   394.94   413.09   546.41
                              605.84   635.05   690.43   694.84   724.99
                              730.10   772.93   803.89   828.36   921.47
                             1023.31  1045.88  1063.22  1065.66  1070.49
                             1105.67  1156.32  1199.48  1240.16  1279.03
                             1308.70  1371.19  1382.98  1410.32  1437.20
                             1503.29  1508.18  1573.79  1630.24  1639.77
                             1654.10  1696.12  1702.17  1761.81  1802.72
                             1842.86  1854.60  1963.52  1980.62  2032.84
                             2094.93  2106.07  2137.12  2214.30  2231.91
                             2249.88  2289.64  2317.92  2367.64  2439.64
                             2622.82  4610.67  4624.34  4625.09  4638.61
                             4640.56  4652.13  4652.45  4662.39

 Zero-point correction=                           0.184520 (Hartree/Particle)
 Thermal correction to Energy=                    0.196987
 Thermal correction to Enthalpy=                  0.197931
 Thermal correction to Gibbs Free Energy=         0.144049
 Sum of electronic and zero-point Energies=          -1028.500831
 Sum of electronic and thermal Energies=             -1028.488364
 Sum of electronic and thermal Enthalpies=           -1028.487420
 Sum of electronic and thermal Free Energies=        -1028.541302

                     E (Thermal)             CV                S
                      KCal/Mol        Cal/Mol-Kelvin    Cal/Mol-Kelvin
 Total                  123.611             49.138            113.404
 Electronic               0.000              0.000              0.000
 Translational            0.889              2.981             42.162
 Rotational               0.889              2.981             32.472
 Vibrational            121.834             43.176             38.770
 Vibration     1          0.594              1.982              5.512
 Vibration     2          0.595              1.980              5.128
 Vibration     3          0.595              1.978              4.811
 Vibration     4          0.607              1.941              3.255
 Vibration     5          0.627              1.874              2.384
 Vibration     6          0.649              1.806              1.932
 Vibration     7          0.667              1.750              1.678
 Vibration     8          0.677              1.720              1.568
 Vibration     9          0.684              1.698              1.491
 Vibration    10          0.750              1.513              1.040
 Vibration    11          0.784              1.424              0.888
 Vibration    12          0.801              1.380              0.822
 Vibration    13          0.836              1.295              0.710
 Vibration    14          0.839              1.288              0.702
 Vibration    15          0.859              1.241              0.648
 Vibration    16          0.863              1.234              0.640
 Vibration    17          0.892              1.168              0.571
 Vibration    18          0.914              1.121              0.526
 Vibration    19          0.932              1.084              0.493

 Optimization completed.
    -- Stationary point found.
 Normal termination of Gaussian 16 at Tue Jul 14 16:59:13 2020.
