 Gaussian 16, Revision C.01,
 Gaussian 16:  ES64L-G16RevC.01  3-Jul-2019

 ----------------------------------------------------------------------
 #p opt=addgic freq td wb97xd/cc-pvdz nosymm int=ultrafine scrf=(solven
 t=CarbonTetraChloride)
 ----------------------------------------------------------------------

 ------------------------------------------------
 NM 2D-scan of HBT TD-WB97XD pVDZ in CTC Relaxed.
 ------------------------------------------------
 Symbolic Z-matrix:
 Charge =  0 Multiplicity = 1

 SCF Done:  E(RwB97XD) =  -1028.53395892     A.U. after   16 cycles
 Total Energy, E(TD-HF/TD-DFT) =  -1028.42938074
 SCF Done:  E(RwB97XD) =  -1028.72193020     A.U. after   14 cycles
 Total Energy, E(TD-HF/TD-DFT) =  -1028.62006841
 SCF Done:  E(RwB97XD) =  -1028.77011700     A.U. after   15 cycles
 Total Energy, E(TD-HF/TD-DFT) =  -1028.67339405
 SCF Done:  E(RwB97XD) =  -1028.78383606     A.U. after   14 cycles
 Total Energy, E(TD-HF/TD-DFT) =  -1028.68536534
 SCF Done:  E(RwB97XD) =  -1028.78459119     A.U. after   12 cycles
 Total Energy, E(TD-HF/TD-DFT) =  -1028.68588528
 SCF Done:  E(RwB97XD) =  -1028.78567356     A.U. after   12 cycles
 Total Energy, E(TD-HF/TD-DFT) =  -1028.68605252
 SCF Done:  E(RwB97XD) =  -1028.78551098     A.U. after    9 cycles
 Total Energy, E(TD-HF/TD-DFT) =  -1028.68606543
 SCF Done:  E(RwB97XD) =  -1028.78552035     A.U. after    9 cycles
 Total Energy, E(TD-HF/TD-DFT) =  -1028.68606626
 SCF Done:  E(RwB97XD) =  -1028.78552498     A.U. after    9 cycles
 Total Energy, E(TD-HF/TD-DFT) =  -1028.68606656
 SCF Done:  E(RwB97XD) =  -1028.73712852     A.U. after   15 cycles
 Total Energy, E(TD-HF/TD-DFT) =  -1028.64698492
 Total Energy, E(TD-HF/TD-DFT) =  -1028.68654076
 Total Energy, E(TD-HF/TD-DFT) =  -1028.68839333
 Total Energy, E(TD-HF/TD-DFT) =  -1028.66940704
 Total Energy, E(TD-HF/TD-DFT) =  -1028.69155243
 Total Energy, E(TD-HF/TD-DFT) =  -1028.65142674
 Total Energy, E(TD-HF/TD-DFT) =  -1028.69215922
 Total Energy, E(TD-HF/TD-DFT) =  -1028.69479160
 Total Energy, E(TD-HF/TD-DFT) =  -1028.69578140
 Total Energy, E(TD-HF/TD-DFT) =  -1028.69695704
 Total Energy, E(TD-HF/TD-DFT) =  -1028.69752990
 Total Energy, E(TD-HF/TD-DFT) =  -1028.69805557
 Total Energy, E(TD-HF/TD-DFT) =  -1028.69836659
 SCF Done:  E(RwB97XD) =  -1028.77531325     A.U. after   14 cycles
 Total Energy, E(TD-HF/TD-DFT) =  -1028.69846779
 SCF Done:  E(RwB97XD) =  -1028.77466033     A.U. after   12 cycles
 Total Energy, E(TD-HF/TD-DFT) =  -1028.69856600
 SCF Done:  E(RwB97XD) =  -1028.77349584     A.U. after   12 cycles
 Total Energy, E(TD-HF/TD-DFT) =  -1028.69864159
 SCF Done:  E(RwB97XD) =  -1028.77321286     A.U. after   11 cycles
 Total Energy, E(TD-HF/TD-DFT) =  -1028.69865286
 SCF Done:  E(RwB97XD) =  -1028.77314469     A.U. after   11 cycles
 Total Energy, E(TD-HF/TD-DFT) =  -1028.69865433
 SCF Done:  E(RwB97XD) =  -1028.77302984     A.U. after   11 cycles
 Total Energy, E(TD-HF/TD-DFT) =  -1028.69865459
 SCF Done:  E(RwB97XD) =  -1028.77297776     A.U. after   11 cycles
 Total Energy, E(TD-HF/TD-DFT) =  -1028.69865576
 SCF Done:  E(RwB97XD) =  -1028.77279973     A.U. after   12 cycles
 Total Energy, E(TD-HF/TD-DFT) =  -1028.69865645
 SCF Done:  E(RwB97XD) =  -1028.77267585     A.U. after   11 cycles
 Total Energy, E(TD-HF/TD-DFT) =  -1028.69865659
 Optimization completed.
    -- Stationary point found.
 Normal termination of Gaussian 16 at Tue Jul 14 00:02:28 2020.

 ----------------------------------------------------------------------
 #P Geom=AllCheck Guess=TCheck SCRF=Check GenChk RwB97XD TD(FC,Read)/CC
 -pVDZ Freq
 ----------------------------------------------------------------------

 Structure from the checkpoint file:  "config_12_10.chk"
 ------------------------------------------------
 NM 2D-scan of HBT TD-WB97XD pVDZ in CTC Relaxed.
 ------------------------------------------------
 Charge =  0 Multiplicity = 1

                          Input orientation:
 ---------------------------------------------------------------------
 Center     Atomic      Atomic             Coordinates (Angstroms)
 Number     Number       Type             X           Y           Z
 ---------------------------------------------------------------------
      1          6           0        1.734137   -3.158080    0.628063
      2          6           0        1.056450   -1.975036    0.343012
      3          6           0        1.708685   -0.895060   -0.279901
      4          6           0        3.061515   -0.991472   -0.616785
      5          6           0        3.736614   -2.172630   -0.325070
      6          6           0        3.081761   -3.249133    0.285379
      7          1           0        1.222388   -3.990385    1.112420
      8          1           0        3.567912   -0.153982   -1.098023
      9          1           0        4.793466   -2.259966   -0.581239
     10          1           0        3.629560   -4.167897    0.498331
     11          7           0        0.872988    0.186381   -0.507938
     12         16           0       -0.627123   -1.581269    0.688187
     13          6           0       -1.398061    1.062898   -0.051583
     14          6           0       -2.651070    0.949108   -0.624222
     15          6           0       -0.976260    2.332594    0.539673
     16          6           0       -3.589538    1.993626   -0.507729
     17          1           0       -2.932263    0.021276   -1.126077
     18          6           0       -1.952129    3.376136    0.612629
     19          6           0       -3.235120    3.195106    0.115770
     20          1           0       -4.601275    1.853011   -0.890470
     21          1           0       -1.663515    4.294993    1.125979
     22          1           0       -3.973906    3.992467    0.213352
     23          6           0       -0.410358   -0.012276   -0.057405
     24          8           0        0.226143    2.472833    0.906443
     25          1           0        1.208921    1.154452   -0.402719
 ---------------------------------------------------------------------

 SCF Done:  E(RwB97XD) =  -1028.77267585     A.U. after    1 cycles

 Excitation energies and oscillator strengths:

 Excited state symmetry could not be determined.
 Excited State   1:      Singlet-?Sym    2.0142 eV  615.56 nm  f=0.1212  <S**2>=0.000
      58 -> 60         0.10134
      59 -> 60         0.68573
 This state for optimization and/or second-order correction.
 Total Energy, E(TD-HF/TD-DFT) =  -1028.69865661
 Copying the excited state density for this state as the 1-particle RhoCI density.

 Excited state symmetry could not be determined.
 Excited State   2:      Singlet-?Sym    3.0568 eV  405.61 nm  f=0.0368  <S**2>=0.000
      58 -> 60         0.68250
      59 -> 60        -0.10289

 Excited state symmetry could not be determined.
 Excited State   3:      Singlet-?Sym    4.0874 eV  303.33 nm  f=0.1295  <S**2>=0.000
      57 -> 60         0.62099
      59 -> 63         0.24198
      59 -> 64         0.12960

 Alpha  occ. eigenvalues --  -89.12149 -19.18345 -14.54309 -10.43610 -10.38233
 Alpha  occ. eigenvalues --  -10.37154 -10.34126 -10.34110 -10.33784 -10.33334
 Alpha  occ. eigenvalues --  -10.33182 -10.30487 -10.29746 -10.29450 -10.27736
 Alpha  occ. eigenvalues --  -10.27045  -8.14062  -6.08917  -6.08546  -6.08132
 Alpha  occ. eigenvalues --   -1.13384  -1.07017  -0.99250  -0.95599  -0.93128
 Alpha  occ. eigenvalues --   -0.89045  -0.87259  -0.83777  -0.80140  -0.75629
 Alpha  occ. eigenvalues --   -0.74115  -0.72573  -0.68709  -0.66766  -0.65326
 Alpha  occ. eigenvalues --   -0.61057  -0.59848  -0.58180  -0.56076  -0.55491
 Alpha  occ. eigenvalues --   -0.55040  -0.53087  -0.52560  -0.50109  -0.49876
 Alpha  occ. eigenvalues --   -0.47960  -0.47101  -0.46911  -0.45722  -0.45369
 Alpha  occ. eigenvalues --   -0.43289  -0.42588  -0.41958  -0.38696  -0.35699
 Alpha  occ. eigenvalues --   -0.34595  -0.32082  -0.29445  -0.24398
 Alpha virt. eigenvalues --   -0.02756   0.02978   0.04323   0.05099   0.07826
 Alpha virt. eigenvalues --    0.10657   0.13888   0.15139   0.15854   0.17147
 Alpha virt. eigenvalues --    0.17911   0.19596   0.19973   0.20663   0.21873

 Mulliken charges:
               1
     1  C    0.022701
     2  C   -0.228603
     3  C    0.235147
     4  C   -0.006718
     5  C    0.013936
     6  C    0.007197
     7  H    0.031444
     8  H    0.035062
     9  H    0.032584
    10  H    0.031971
    11  N   -0.117093
    12  S    0.278140
    13  C   -0.140101
    14  C    0.026335
    15  C    0.091058
    16  C   -0.055756
    17  H   -0.009333
    18  C   -0.053637
    19  C    0.025820
    20  H   -0.006838
    21  H   -0.005960
    22  H    0.005358
    23  C    0.043075
    24  O   -0.420191
    25  H    0.164402
 Sum of Mulliken charges =   0.00000

 Dipole moment (field-independent basis, Debye):
    X=              3.6112    Y=             -7.4889    Z=             -1.7068  Tot=              8.4875
 Quadrupole moment (field-independent basis, Debye-Ang):
   XX=            -84.6318   YY=            -97.0274   ZZ=           -102.4989
   XY=             -5.4761   XZ=             -2.9215   YZ=             -7.4859

  Exact polarizability:     246.632     -37.209     177.723       5.378     -10.539      92.719
 Approx polarizability:     252.998     -38.470     233.606      -0.894      -6.801     114.831

 ******    1 imaginary frequencies (negative Signs) ******

                      1                      2                      3
                      A                      A                      A
 Frequencies --    -61.8908                21.7388                69.2078
 Red. masses --      6.0189                 6.4858                 5.3775
 Frc consts  --      0.0136                 0.0018                 0.0152
 IR Inten    --      9.1802                 5.0579                 5.0928

                      4                      5                      6
                      A                      A                      A
 Frequencies --    148.5750               173.0834               197.9470
 Red. masses --      6.4342                 5.8751                 5.3342
 Frc consts  --      0.0837                 0.1037                 0.1231
 IR Inten    --      8.5396                 4.9555                 1.3244

                      7                      8                      9
                      A                      A                      A
 Frequencies --    254.5760               278.1091               299.3562
 Red. masses --      7.6004                 5.1307                 7.7087
 Frc consts  --      0.2902                 0.2338                 0.4070
 IR Inten    --      6.2896                 2.3671                 1.7316

                     10                     11                     12
                      A                      A                      A
 Frequencies --    313.0814               373.8221               438.0361
 Red. masses --      4.0672                 5.5477                 3.1941
 Frc consts  --      0.2349                 0.4568                 0.3611
 IR Inten    --     13.5947                 6.5475                 5.4349

                     13                     14                     15
                      A                      A                      A
 Frequencies --    453.9950               504.5040               519.7482
 Red. masses --      4.0265                 6.6544                 3.8257
 Frc consts  --      0.4890                 0.9979                 0.6089
 IR Inten    --     26.2722                 4.1018                 6.9935

                     16                     17                     18
                      A                      A                      A
 Frequencies --    532.2301               534.7746               565.3675
 Red. masses --      2.4266                 3.6004                 4.4822
 Frc consts  --      0.4050                 0.6067                 0.8441
 IR Inten    --     62.7441                60.6467                10.8717

                     19                     20                     21
                      A                      A                      A
 Frequencies --    568.8036               582.6948               662.1626
 Red. masses --      5.3234                 5.8924                 4.3006
 Frc consts  --      1.0148                 1.1788                 1.1110
 IR Inten    --     29.3350                19.3411                 7.0129

                     22                     23                     24
                      A                      A                      A
 Frequencies --    703.1869               719.0295               740.0515
 Red. masses --      3.1922                 4.4446                 2.1176
 Frc consts  --      0.9300                 1.3539                 0.6833
 IR Inten    --     42.2218                19.2457                 4.0949

                     25                     26                     27
                      A                      A                      A
 Frequencies --    747.5626               770.7321               795.1291
 Red. masses --      2.5323                 1.5555                 2.2060
 Frc consts  --      0.8338                 0.5444                 0.8217
 IR Inten    --     14.9787                56.9110                42.9289

                     28                     29                     30
                      A                      A                      A
 Frequencies --    830.0014               872.7436               884.8491
 Red. masses --      5.7359                 1.5264                 2.6180
 Frc consts  --      2.3281                 0.6850                 1.2077
 IR Inten    --      7.9083                 0.1102                 7.2806

                     31                     32                     33
                      A                      A                      A
 Frequencies --    887.9712               960.7710               962.0378
 Red. masses --      1.9999                 1.4721                 1.3853
 Frc consts  --      0.9291                 0.8006                 0.7554
 IR Inten    --      1.7138                 7.3326                 1.0315

                     34                     35                     36
                      A                      A                      A
 Frequencies --    979.1233               996.9766              1006.7959
 Red. masses --      4.2866                 1.3435                 1.2974
 Frc consts  --      2.4212                 0.7868                 0.7748
 IR Inten    --     18.0569                 7.5614                 0.0102

                     37                     38                     39
                      A                      A                      A
 Frequencies --   1049.5280              1057.0397              1092.2666
 Red. masses --      2.0460                 2.1068                 3.9697
 Frc consts  --      1.3278                 1.3869                 2.7904
 IR Inten    --      0.5360                 6.7916                 5.8095

                     40                     41                     42
                      A                      A                      A
 Frequencies --   1125.1008              1157.2711              1163.2261
 Red. masses --      1.5150                 1.3689                 1.1881
 Frc consts  --      1.1299                 1.0801                 0.9472
 IR Inten    --     24.3357                 3.3410                58.5076

                     43                     44                     45
                      A                      A                      A
 Frequencies --   1179.1190              1227.4491              1256.2497
 Red. masses --      1.1448                 2.7432                 2.2196
 Frc consts  --      0.9378                 2.4351                 2.0639
 IR Inten    --      9.0306                41.7454                24.4659

                     46                     47                     48
                      A                      A                      A
 Frequencies --   1292.7581              1298.1193              1311.6115
 Red. masses --      1.8381                 3.3243                 2.0218
 Frc consts  --      1.8099                 3.3005                 2.0493
 IR Inten    --      2.7994                 4.6061                72.1294

                     49                     50                     51
                      A                      A                      A
 Frequencies --   1351.6206              1395.8671              1405.4084
 Red. masses --      4.3927                 2.3480                 2.0330
 Frc consts  --      4.7281                 2.6955                 2.3659
 IR Inten    --    254.3377                40.2280               166.8690

                     52                     53                     54
                      A                      A                      A
 Frequencies --   1440.9955              1464.6721              1509.3180
 Red. masses --      3.0362                 3.5554                 2.7744
 Frc consts  --      3.7146                 4.4938                 3.7237
 IR Inten    --    437.4935                65.2787                82.2562

                     55                     56                     57
                      A                      A                      A
 Frequencies --   1521.7807              1546.2760              1579.9532
 Red. masses --      3.4306                 5.3578                 4.5564
 Frc consts  --      4.6808                 7.5476                 6.7013
 IR Inten    --    104.9091                65.8891                54.2061

                     58                     59                     60
                      A                      A                      A
 Frequencies --   1632.0036              1656.9178              1675.0823
 Red. masses --      6.1651                 6.7026                 6.9109
 Frc consts  --      9.6747                10.8416                11.4250
 IR Inten    --    227.1071                 4.3754                13.1936

                     61                     62                     63
                      A                      A                      A
 Frequencies --   3203.7668              3208.9898              3212.0716
 Red. masses --      1.0866                 1.0902                 1.0860
 Frc consts  --      6.5712                 6.6144                 6.6014
 IR Inten    --      5.9634                 9.5125                 1.3830

                     64                     65                     66
                      A                      A                      A
 Frequencies --   3221.5464              3222.1003              3229.9233
 Red. masses --      1.0902                 1.0941                 1.0959
 Frc consts  --      6.6662                 6.6925                 6.7363
 IR Inten    --      3.3860                10.9906                10.5230

                     67                     68                     69
                      A                      A                      A
 Frequencies --   3232.8035              3238.9712              3427.3332
 Red. masses --      1.0989                 1.0997                 1.0806
 Frc consts  --      6.7668                 6.7974                 7.4789
 IR Inten    --     13.5881                13.0539              1157.1705

 - Thermochemistry -
 -------------------
 Temperature   298.150 Kelvin.  Pressure   1.00000 Atm.
 Atom     1 has atomic number  6 and mass  12.00000

 Molecular mass:   227.04049 amu.
 Principal axes and moments of inertia in atomic units:
                           1         2         3
     Eigenvalues --  1269.449976600.813197411.64487
           X            0.71335   0.69993   0.03500
           Y           -0.70079   0.71280   0.02853
           Z           -0.00498  -0.04488   0.99898
 This molecule is an asymmetric top.
 Rotational symmetry number  1.
 Warning -- assumption of classical behavior for rotation
           may cause significant error
 Rotational temperatures (Kelvin)      0.06823     0.01312     0.01169
 Rotational constants (GHZ):           1.42167     0.27341     0.24350
    1 imaginary frequencies ignored.
 Zero-point vibrational energy     490085.6 (Joules/Mol)
                                  117.13327 (Kcal/Mol)
 Warning -- explicit consideration of  19 degrees of freedom as
           vibrations may cause significant error
 Vibrational temperatures:     31.28    99.57   213.77   249.03   284.80
          (Kelvin)            366.28   400.14   430.71   450.45   537.85
                              630.24   653.20   725.87   747.80   765.76
                              769.42   813.44   818.38   838.37   952.70
                             1011.73  1034.52  1064.77  1075.58  1108.91
                             1144.01  1194.19  1255.68  1273.10  1277.59
                             1382.34  1384.16  1408.74  1434.43  1448.55
                             1510.04  1520.84  1571.53  1618.77  1665.05
                             1673.62  1696.49  1766.03  1807.46  1859.99
                             1867.70  1887.12  1944.68  2008.34  2022.07
                             2073.27  2107.34  2171.57  2189.50  2224.75
                             2273.20  2348.09  2383.94  2410.07  4609.51
                             4617.02  4621.45  4635.09  4635.88  4647.14
                             4651.28  4660.16  4931.17

 Zero-point correction=                           0.186664 (Hartree/Particle)
 Thermal correction to Energy=                    0.198419
 Thermal correction to Enthalpy=                  0.199364
 Thermal correction to Gibbs Free Energy=         0.147619
 Sum of electronic and zero-point Energies=          -1028.511993
 Sum of electronic and thermal Energies=             -1028.500237
 Sum of electronic and thermal Enthalpies=           -1028.499293
 Sum of electronic and thermal Free Energies=        -1028.551038

                     E (Thermal)             CV                S
                      KCal/Mol        Cal/Mol-Kelvin    Cal/Mol-Kelvin
 Total                  124.510             47.796            108.906
 Electronic               0.000              0.000              0.000
 Translational            0.889              2.981             42.162
 Rotational               0.889              2.981             32.496
 Vibrational            122.733             41.834             34.248
 Vibration     1          0.593              1.985              6.469
 Vibration     2          0.598              1.969              4.176
 Vibration     3          0.618              1.904              2.690
 Vibration     4          0.627              1.876              2.402
 Vibration     5          0.637              1.843              2.152
 Vibration     6          0.665              1.755              1.699
 Vibration     7          0.679              1.714              1.545
 Vibration     8          0.692              1.675              1.420
 Vibration     9          0.701              1.649              1.346
 Vibration    10          0.745              1.526              1.064
 Vibration    11          0.798              1.387              0.833
 Vibration    12          0.812              1.352              0.784
 Vibration    13          0.860              1.240              0.647
 Vibration    14          0.875              1.206              0.611
 Vibration    15          0.887              1.179              0.582
 Vibration    16          0.890              1.173              0.577
 Vibration    17          0.921              1.106              0.513
 Vibration    18          0.925              1.099              0.507
 Vibration    19          0.940              1.069              0.480

 Optimization completed.
    -- Stationary point found.
 Normal termination of Gaussian 16 at Tue Jul 14 00:22:33 2020.
