 Gaussian 16, Revision C.01,
 Gaussian 16:  ES64L-G16RevC.01  3-Jul-2019

 ----------------------------------------------------------------------
 #p opt=addgic freq td wb97xd/cc-pvdz nosymm int=ultrafine scrf=(solven
 t=CarbonTetraChloride)
 ----------------------------------------------------------------------

 ------------------------------------------------
 NM 2D-scan of HBT TD-WB97XD pVDZ in CTC Relaxed.
 ------------------------------------------------
 Symbolic Z-matrix:
 Charge =  0 Multiplicity = 1

 SCF Done:  E(RwB97XD) =  -1028.81311382     A.U. after   15 cycles
 Total Energy, E(TD-HF/TD-DFT) =  -1028.68984327
 SCF Done:  E(RwB97XD) =  -1028.81338683     A.U. after   11 cycles
 Total Energy, E(TD-HF/TD-DFT) =  -1028.68986601
 SCF Done:  E(RwB97XD) =  -1028.81323071     A.U. after   11 cycles
 Total Energy, E(TD-HF/TD-DFT) =  -1028.68988654
 SCF Done:  E(RwB97XD) =  -1028.81321881     A.U. after    9 cycles
 Total Energy, E(TD-HF/TD-DFT) =  -1028.68990790
 SCF Done:  E(RwB97XD) =  -1028.81316585     A.U. after    9 cycles
 Total Energy, E(TD-HF/TD-DFT) =  -1028.68990868
 SCF Done:  E(RwB97XD) =  -1028.81314558     A.U. after    8 cycles
 Total Energy, E(TD-HF/TD-DFT) =  -1028.68990889
 Optimization completed.
    -- Stationary point found.
 Normal termination of Gaussian 16 at Mon Jul 13 15:03:03 2020.

 ----------------------------------------------------------------------
 #P Geom=AllCheck Guess=TCheck SCRF=Check GenChk RwB97XD TD(FC,Read)/CC
 -pVDZ Freq
 ----------------------------------------------------------------------

 Structure from the checkpoint file:  "config_6_3.chk"
 ------------------------------------------------
 NM 2D-scan of HBT TD-WB97XD pVDZ in CTC Relaxed.
 ------------------------------------------------
 Charge =  0 Multiplicity = 1

                          Input orientation:
 ---------------------------------------------------------------------
 Center     Atomic      Atomic             Coordinates (Angstroms)
 Number     Number       Type             X           Y           Z
 ---------------------------------------------------------------------
      1          6           0        1.734053   -3.270443   -0.000068
      2          6           0        1.001040   -2.084841   -0.000084
      3          6           0        1.667762   -0.826773    0.000019
      4          6           0        3.078283   -0.766901    0.000141
      5          6           0        3.790796   -1.950294    0.000154
      6          6           0        3.129558   -3.193046    0.000050
      7          1           0        1.234702   -4.240158   -0.000144
      8          1           0        3.571237    0.205792    0.000219
      9          1           0        4.881904   -1.923292    0.000245
     10          1           0        3.714148   -4.114086    0.000063
     11          7           0        0.854976    0.239353   -0.000014
     12         16           0       -0.747223   -1.830625   -0.000208
     13          6           0       -1.410668    1.003060   -0.000127
     14          6           0       -2.814379    0.882520   -0.000042
     15          6           0       -0.868598    2.390779   -0.000108
     16          6           0       -3.640883    2.012872    0.000147
     17          1           0       -3.266130   -0.111072   -0.000070
     18          6           0       -1.739770    3.499825    0.000123
     19          6           0       -3.116765    3.322196    0.000258
     20          1           0       -4.722982    1.871189    0.000236
     21          1           0       -1.278727    4.488035    0.000146
     22          1           0       -3.786250    4.182398    0.000419
     23          6           0       -0.467793   -0.063678   -0.000158
     24          8           0        0.409621    2.608210   -0.000376
     25          1           0        0.883307    1.596953   -0.000733
 ---------------------------------------------------------------------

 SCF Done:  E(RwB97XD) =  -1028.81314558     A.U. after    1 cycles

 Excitation energies and oscillator strengths:

 Excited state symmetry could not be determined.
 Excited State   1:      Singlet-?Sym    3.3534 eV  369.72 nm  f=0.5499  <S**2>=0.000
      59 -> 60         0.69218
 This state for optimization and/or second-order correction.
 Total Energy, E(TD-HF/TD-DFT) =  -1028.68990885
 Copying the excited state density for this state as the 1-particle RhoCI density.

 Excited state symmetry could not be determined.
 Excited State   2:      Singlet-?Sym    4.3852 eV  282.73 nm  f=0.3624  <S**2>=0.000
      57 -> 60         0.14035
      58 -> 60         0.65880
      59 -> 62        -0.10173
      59 -> 64        -0.11010

 Excited state symmetry could not be determined.
 Excited State   3:      Singlet-?Sym    4.6897 eV  264.37 nm  f=0.0372  <S**2>=0.000
      55 -> 61        -0.11104
      57 -> 60         0.57988
      57 -> 62        -0.14983
      58 -> 60        -0.13778
      58 -> 61        -0.18750
      59 -> 61        -0.24104

 Alpha  occ. eigenvalues --  -89.09686 -19.26088 -14.47913 -10.40578 -10.37589
 Alpha  occ. eigenvalues --  -10.35525 -10.35316 -10.32636 -10.32360 -10.32086
 Alpha  occ. eigenvalues --  -10.31804 -10.31736 -10.31661 -10.31590 -10.30034
 Alpha  occ. eigenvalues --  -10.29685  -8.11573  -6.06440  -6.06088  -6.05618
 Alpha  occ. eigenvalues --   -1.15387  -1.09175  -0.96977  -0.95366  -0.91999
 Alpha  occ. eigenvalues --   -0.88890  -0.85201  -0.84028  -0.82321  -0.75932
 Alpha  occ. eigenvalues --   -0.71162  -0.70388  -0.68767  -0.68365  -0.63398
 Alpha  occ. eigenvalues --   -0.60686  -0.59013  -0.58222  -0.55557  -0.54317
 Alpha  occ. eigenvalues --   -0.54290  -0.53232  -0.52600  -0.51219  -0.49884
 Alpha  occ. eigenvalues --   -0.49793  -0.47444  -0.46158  -0.45528  -0.44857
 Alpha  occ. eigenvalues --   -0.43872  -0.42785  -0.42410  -0.40367  -0.36529
 Alpha  occ. eigenvalues --   -0.35916  -0.32598  -0.31169  -0.27663
 Alpha virt. eigenvalues --   -0.01771   0.04707   0.06873   0.07000   0.07708
 Alpha virt. eigenvalues --    0.10772   0.13010   0.15025   0.15973   0.17865
 Alpha virt. eigenvalues --    0.18773   0.20847   0.21665   0.22361   0.22491

 Mulliken charges:
               1
     1  C    0.010711
     2  C   -0.234509
     3  C    0.267752
     4  C   -0.015166
     5  C    0.010584
     6  C   -0.005090
     7  H    0.021155
     8  H    0.022390
     9  H    0.021446
    10  H    0.022483
    11  N   -0.327601
    12  S    0.170276
    13  C   -0.113782
    14  C   -0.017307
    15  C    0.110424
    16  C   -0.024592
    17  H    0.007351
    18  C   -0.001437
    19  C    0.026899
    20  H    0.008630
    21  H    0.013634
    22  H    0.020169
    23  C    0.078529
    24  O   -0.278370
    25  H    0.205420
 Sum of Mulliken charges =  -0.00000

 Dipole moment (field-independent basis, Debye):
    X=              0.2640    Y=             -2.9273    Z=             -0.0002  Tot=              2.9392
 Quadrupole moment (field-independent basis, Debye-Ang):
   XX=            -83.3193   YY=            -90.3172   ZZ=           -104.3796
   XY=             -6.9139   XZ=             -0.0005   YZ=              0.0013

  Exact polarizability:     378.620    -160.798     344.207      -0.002       0.007      63.423
 Approx polarizability:     276.946     -35.524     262.149       0.000       0.006      82.419

 ******    2 imaginary frequencies (negative Signs) ******

                      1                      2                      3
                      A                      A                      A
 Frequencies --   -363.3127               -20.6691                45.1770
 Red. masses --      1.6688                 6.9751                 6.5212
 Frc consts  --      0.1298                 0.0018                 0.0078
 IR Inten    --    281.0417                 0.1868                 1.3966

                      4                      5                      6
                      A                      A                      A
 Frequencies --    104.6164               155.0508               175.7449
 Red. masses --      4.5134                 5.5295                 5.8734
 Frc consts  --      0.0291                 0.0783                 0.1069
 IR Inten    --      0.0834                18.8710                 0.6425

                      7                      8                      9
                      A                      A                      A
 Frequencies --    222.3297               269.1905               269.9256
 Red. masses --      5.3274                 4.7747                 7.4975
 Frc consts  --      0.1552                 0.2039                 0.3219
 IR Inten    --      0.0517                 0.2068                17.1317

                     10                     11                     12
                      A                      A                      A
 Frequencies --    378.9334               392.6222               421.1322
 Red. masses --      4.8657                 6.6675                 6.4514
 Frc consts  --      0.4116                 0.6056                 0.6741
 IR Inten    --      0.4094                 3.4957                 9.3650

                     13                     14                     15
                      A                      A                      A
 Frequencies --    437.3178               481.3592               495.2677
 Red. masses --      3.2158                 4.7316                 3.1697
 Frc consts  --      0.3624                 0.6460                 0.4581
 IR Inten    --      4.9967                 0.0003                 0.2672

                     16                     17                     18
                      A                      A                      A
 Frequencies --    504.4234               534.1029               554.8214
 Red. masses --      8.8546                 8.3058                 3.9137
 Frc consts  --      1.3274                 1.3960                 0.7098
 IR Inten    --      0.1964                14.4617                 0.2137

                     19                     20                     21
                      A                      A                      A
 Frequencies --    579.9887               628.5744               699.1918
 Red. masses --      7.4781                 7.0796                 6.7909
 Frc consts  --      1.4821                 1.6481                 1.9560
 IR Inten    --      0.3374                26.6117                 1.3016

                     22                     23                     24
                      A                      A                      A
 Frequencies --    699.7189               736.0628               738.5155
 Red. masses --      1.6936                 9.5402                 2.0486
 Frc consts  --      0.4886                 3.0454                 0.6583
 IR Inten    --     39.9115                14.2934                21.8793

                     25                     26                     27
                      A                      A                      A
 Frequencies --    760.8888               767.9260               806.8580
 Red. masses --      1.9344                 1.8887                 5.6889
 Frc consts  --      0.6599                 0.6562                 2.1821
 IR Inten    --     26.4364                60.8331                67.4549

                     28                     29                     30
                      A                      A                      A
 Frequencies --    823.8138               852.7307               860.0712
 Red. masses --      1.6065                 3.8694                 1.4129
 Frc consts  --      0.6424                 1.6578                 0.6158
 IR Inten    --      0.0040               246.2222                 1.0022

                     31                     32                     33
                      A                      A                      A
 Frequencies --    911.7792               918.4885               952.9497
 Red. masses --      1.3657                 6.0286                 1.3448
 Frc consts  --      0.6689                 2.9965                 0.7196
 IR Inten    --      5.3323                 2.1206                 1.6950

                     34                     35                     36
                      A                      A                      A
 Frequencies --    958.4980               990.9489               999.5995
 Red. masses --      1.3788                 6.4982                 1.2951
 Frc consts  --      0.7463                 3.7597                 0.7624
 IR Inten    --      0.6164                 1.8420                 0.0100

                     37                     38                     39
                      A                      A                      A
 Frequencies --   1038.6338              1046.9207              1080.2333
 Red. masses --      2.2023                 2.0202                 4.9178
 Frc consts  --      1.3998                 1.3046                 3.3811
 IR Inten    --      0.4952                 3.1265                57.7069

                     40                     41                     42
                      A                      A                      A
 Frequencies --   1133.9595              1149.9975              1171.9040
 Red. masses --      1.3978                 1.3207                 1.1612
 Frc consts  --      1.0590                 1.0291                 0.9396
 IR Inten    --     56.1133                16.8771                86.9587

                     43                     44                     45
                      A                      A                      A
 Frequencies --   1178.0088              1202.0628              1251.6468
 Red. masses --      1.1570                 1.0557                 1.8534
 Frc consts  --      0.9460                 0.8988                 1.7107
 IR Inten    --     50.2179                63.5029               121.6322

                     46                     47                     48
                      A                      A                      A
 Frequencies --   1258.9590              1289.6031              1353.2075
 Red. masses --      3.6363                 1.8846                 2.9027
 Frc consts  --      3.3957                 1.8466                 3.1317
 IR Inten    --     31.0687                12.9642               144.2732

                     49                     50                     51
                      A                      A                      A
 Frequencies --   1372.8572              1403.4596              1414.2225
 Red. masses --      5.8937                 2.1485                 2.7329
 Frc consts  --      6.5447                 2.4934                 3.2204
 IR Inten    --    206.1143                 3.7575                83.6453

                     52                     53                     54
                      A                      A                      A
 Frequencies --   1448.5772              1479.1788              1507.4010
 Red. masses --      3.2112                 3.3136                 4.9306
 Frc consts  --      3.9701                 4.2717                 6.6009
 IR Inten    --    317.4452               269.4812               461.9864

                     55                     56                     57
                      A                      A                      A
 Frequencies --   1539.2100              1541.2374              1558.7689
 Red. masses --      4.6654                 5.4174                 4.3168
 Frc consts  --      6.5123                 7.5819                 6.1799
 IR Inten    --     93.3800                24.1686               430.0993

                     58                     59                     60
                      A                      A                      A
 Frequencies --   1618.9540              1649.8993              1658.5822
 Red. masses --      6.0609                 5.6810                 5.4264
 Frc consts  --      9.3596                 9.1114                 8.7950
 IR Inten    --    162.4916               933.1584                80.1392

                     61                     62                     63
                      A                      A                      A
 Frequencies --   1852.0007              3204.3416              3208.0591
 Red. masses --      1.0997                 1.0872                 1.0860
 Frc consts  --      2.2224                 6.5774                 6.5854
 IR Inten    --    102.9421                11.6062                 7.7846

                     64                     65                     66
                      A                      A                      A
 Frequencies --   3217.4022              3218.3273              3226.0425
 Red. masses --      1.0893                 1.0899                 1.0927
 Frc consts  --      6.6434                 6.6512                 6.7000
 IR Inten    --      2.8652                 2.8830                18.8157

                     67                     68                     69
                      A                      A                      A
 Frequencies --   3229.1185              3236.1677              3238.9796
 Red. masses --      1.0954                 1.0993                 1.0987
 Frc consts  --      6.7295                 6.7829                 6.7910
 IR Inten    --     10.6734                31.3958                15.3881

 - Thermochemistry -
 -------------------
 Temperature   298.150 Kelvin.  Pressure   1.00000 Atm.
 Atom     1 has atomic number  6 and mass  12.00000

 Molecular mass:   227.04049 amu.
 Principal axes and moments of inertia in atomic units:
                           1         2         3
     Eigenvalues --  1333.468346317.711077651.17936
           X           -0.70185   0.71232  -0.00001
           Y            0.71232   0.70185  -0.00002
           Z            0.00000   0.00002   1.00000
 This molecule is an asymmetric top.
 Rotational symmetry number  1.
 Warning -- assumption of classical behavior for rotation
           may cause significant error
 Rotational temperatures (Kelvin)      0.06495     0.01371     0.01132
 Rotational constants (GHZ):           1.35342     0.28566     0.23588
    2 imaginary frequencies ignored.
 Zero-point vibrational energy     479143.5 (Joules/Mol)
                                  114.51805 (Kcal/Mol)
 Warning -- explicit consideration of  17 degrees of freedom as
           vibrations may cause significant error
 Vibrational temperatures:     65.00   150.52   223.08   252.86   319.88
          (Kelvin)            387.31   388.36   545.20   564.90   605.92
                              629.20   692.57   712.58   725.75   768.46
                              798.26   834.47   904.38  1005.98  1006.74
                             1059.03  1062.56  1094.75  1104.87  1160.89
                             1185.28  1226.89  1237.45  1311.85  1321.50
                             1371.08  1379.06  1425.75  1438.20  1494.36
                             1506.29  1554.21  1631.51  1654.59  1686.11
                             1694.89  1729.50  1800.84  1811.36  1855.45
                             1946.96  1975.24  2019.27  2034.75  2084.18
                             2128.21  2168.81  2214.58  2217.50  2242.72
                             2329.31  2373.84  2386.33  2664.62  4610.33
                             4615.68  4629.12  4630.46  4641.56  4645.98
                             4656.12  4660.17

 Zero-point correction=                           0.182496 (Hartree/Particle)
 Thermal correction to Energy=                    0.193615
 Thermal correction to Enthalpy=                  0.194559
 Thermal correction to Gibbs Free Energy=         0.144801
 Sum of electronic and zero-point Energies=          -1028.507413
 Sum of electronic and thermal Energies=             -1028.496294
 Sum of electronic and thermal Enthalpies=           -1028.495350
 Sum of electronic and thermal Free Energies=        -1028.545108

                     E (Thermal)             CV                S
                      KCal/Mol        Cal/Mol-Kelvin    Cal/Mol-Kelvin
 Total                  121.495             46.072            104.724
 Electronic               0.000              0.000              0.000
 Translational            0.889              2.981             42.162
 Rotational               0.889              2.981             32.533
 Vibrational            119.718             40.110             30.029
 Vibration     1          0.595              1.979              5.018
 Vibration     2          0.605              1.946              3.366
 Vibration     3          0.620              1.897              2.609
 Vibration     4          0.628              1.872              2.373
 Vibration     5          0.648              1.807              1.940
 Vibration     6          0.674              1.730              1.601
 Vibration     7          0.674              1.729              1.597
 Vibration     8          0.749              1.515              1.043
 Vibration     9          0.760              1.486              0.990
 Vibration    10          0.784              1.424              0.888
 Vibration    11          0.798              1.389              0.835
 Vibration    12          0.838              1.291              0.706
 Vibration    13          0.851              1.261              0.670
 Vibration    14          0.860              1.240              0.647
 Vibration    15          0.889              1.175              0.578
 Vibration    16          0.910              1.129              0.534
 Vibration    17          0.937              1.075              0.485

 Optimization completed.
    -- Stationary point found.
 Normal termination of Gaussian 16 at Mon Jul 13 15:20:32 2020.
