 Gaussian 16, Revision C.01,
 Gaussian 16:  ES64L-G16RevC.01  3-Jul-2019

 ----------------------------------------------------------------------
 #p opt=addgic freq td wb97xd/cc-pvdz nosymm int=ultrafine scrf=(solven
 t=CarbonTetraChloride)
 ----------------------------------------------------------------------

 ------------------------------------------------
 NM 2D-scan of HBT TD-WB97XD pVDZ in CTC Relaxed.
 ------------------------------------------------
 Symbolic Z-matrix:
 Charge =  0 Multiplicity = 1

 SCF Done:  E(RwB97XD) =  -1028.79633024     A.U. after   16 cycles
 Total Energy, E(TD-HF/TD-DFT) =  -1028.68292375
 SCF Done:  E(RwB97XD) =  -1028.79353604     A.U. after   14 cycles
 Total Energy, E(TD-HF/TD-DFT) =  -1028.68747987
 SCF Done:  E(RwB97XD) =  -1028.79765451     A.U. after   13 cycles
 Total Energy, E(TD-HF/TD-DFT) =  -1028.68910619
 SCF Done:  E(RwB97XD) =  -1028.79803689     A.U. after   12 cycles
 Total Energy, E(TD-HF/TD-DFT) =  -1028.68918301
 SCF Done:  E(RwB97XD) =  -1028.79796625     A.U. after   10 cycles
 Total Energy, E(TD-HF/TD-DFT) =  -1028.68919394
 SCF Done:  E(RwB97XD) =  -1028.79794612     A.U. after    9 cycles
 Total Energy, E(TD-HF/TD-DFT) =  -1028.68919450
 SCF Done:  E(RwB97XD) =  -1028.79793430     A.U. after    9 cycles
 Total Energy, E(TD-HF/TD-DFT) =  -1028.68919417
 SCF Done:  E(RwB97XD) =  -1028.79794684     A.U. after    9 cycles
 Total Energy, E(TD-HF/TD-DFT) =  -1028.68919461
 Optimization completed.
    -- Stationary point found.
 Normal termination of Gaussian 16 at Tue Jul 14 16:55:38 2020.

 ----------------------------------------------------------------------
 #P Geom=AllCheck Guess=TCheck SCRF=Check GenChk RwB97XD TD(FC,Read)/CC
 -pVDZ Freq
 ----------------------------------------------------------------------

 Structure from the checkpoint file:  "config_7_19.chk"
 ------------------------------------------------
 NM 2D-scan of HBT TD-WB97XD pVDZ in CTC Relaxed.
 ------------------------------------------------
 Charge =  0 Multiplicity = 1

                          Input orientation:
 ---------------------------------------------------------------------
 Center     Atomic      Atomic             Coordinates (Angstroms)
 Number     Number       Type             X           Y           Z
 ---------------------------------------------------------------------
      1          6           0        1.514001   -3.277260   -0.000044
      2          6           0        0.985450   -1.988439   -0.000022
      3          6           0        1.799734   -0.814395   -0.000002
      4          6           0        3.195931   -0.987027   -0.000009
      5          6           0        3.718319   -2.276089   -0.000032
      6          6           0        2.897233   -3.416476   -0.000049
      7          1           0        0.855204   -4.146602   -0.000058
      8          1           0        3.852547   -0.116525    0.000006
      9          1           0        4.802211   -2.403105   -0.000037
     10          1           0        3.344534   -4.411114   -0.000066
     11          7           0        1.079561    0.366925    0.000023
     12         16           0       -0.702395   -1.576373   -0.000013
     13          6           0       -1.285932    1.104167    0.000042
     14          6           0       -2.637650    0.728737    0.000063
     15          6           0       -0.935312    2.536105    0.000030
     16          6           0       -3.649405    1.694644    0.000041
     17          1           0       -2.917749   -0.326211    0.000091
     18          6           0       -1.994497    3.476077    0.000005
     19          6           0       -3.327596    3.059997    0.000007
     20          1           0       -4.692780    1.376638    0.000048
     21          1           0       -1.723326    4.532718   -0.000016
     22          1           0       -4.125535    3.803523   -0.000015
     23          6           0       -0.262250    0.126611    0.000021
     24          8           0        0.298194    2.893966    0.000028
     25          1           0        1.177033    1.489291    0.000067
 ---------------------------------------------------------------------

 SCF Done:  E(RwB97XD) =  -1028.79794684     A.U. after    1 cycles

 Excitation energies and oscillator strengths:

 Excited state symmetry could not be determined.
 Excited State   1:      Singlet-?Sym    2.9593 eV  418.96 nm  f=0.4394  <S**2>=0.000
      59 -> 60         0.69630
 This state for optimization and/or second-order correction.
 Total Energy, E(TD-HF/TD-DFT) =  -1028.68919460
 Copying the excited state density for this state as the 1-particle RhoCI density.

 Excited state symmetry could not be determined.
 Excited State   2:      Singlet-?Sym    3.8883 eV  318.86 nm  f=0.0000  <S**2>=0.000
      57 -> 60         0.68466
      57 -> 62         0.11421
      57 -> 64         0.11602

 Excited state symmetry could not be determined.
 Excited State   3:      Singlet-?Sym    4.2620 eV  290.91 nm  f=0.2974  <S**2>=0.000
      58 -> 60         0.68251

 Alpha  occ. eigenvalues --  -89.09950 -19.21916 -14.52574 -10.41524 -10.37833
 Alpha  occ. eigenvalues --  -10.36117 -10.36069 -10.33133 -10.32838 -10.32358
 Alpha  occ. eigenvalues --  -10.32255 -10.31659 -10.31174 -10.30939 -10.29480
 Alpha  occ. eigenvalues --  -10.28800  -8.12020  -6.06879  -6.06523  -6.06042
 Alpha  occ. eigenvalues --   -1.12024  -1.08979  -0.98102  -0.95702  -0.93222
 Alpha  occ. eigenvalues --   -0.89036  -0.86638  -0.83516  -0.81733  -0.75779
 Alpha  occ. eigenvalues --   -0.72435  -0.71973  -0.68487  -0.67443  -0.64691
 Alpha  occ. eigenvalues --   -0.61014  -0.59571  -0.56968  -0.55452  -0.55187
 Alpha  occ. eigenvalues --   -0.54868  -0.54010  -0.53018  -0.50244  -0.49338
 Alpha  occ. eigenvalues --   -0.48843  -0.48266  -0.46813  -0.45366  -0.45056
 Alpha  occ. eigenvalues --   -0.44097  -0.43061  -0.42114  -0.40304  -0.36730
 Alpha  occ. eigenvalues --   -0.33409  -0.32618  -0.31298  -0.26441
 Alpha virt. eigenvalues --   -0.02014   0.03935   0.05601   0.06738   0.08924
 Alpha virt. eigenvalues --    0.10630   0.14048   0.14909   0.16496   0.17620
 Alpha virt. eigenvalues --    0.18279   0.19988   0.20419   0.21321   0.22171

 Mulliken charges:
               1
     1  C    0.022188
     2  C   -0.219891
     3  C    0.258000
     4  C   -0.014805
     5  C    0.007863
     6  C    0.002425
     7  H    0.024602
     8  H    0.029391
     9  H    0.025932
    10  H    0.025912
    11  N   -0.221236
    12  S    0.194927
    13  C   -0.085290
    14  C   -0.036834
    15  C    0.119685
    16  C   -0.027462
    17  H    0.019150
    18  C   -0.018218
    19  C    0.031272
    20  H    0.003200
    21  H    0.005407
    22  H    0.016595
    23  C    0.059986
    24  O   -0.424665
    25  H    0.201866
 Sum of Mulliken charges =  -0.00000

 Dipole moment (field-independent basis, Debye):
    X=              1.2635    Y=             -5.3681    Z=             -0.0000  Tot=              5.5148
 Quadrupole moment (field-independent basis, Debye-Ang):
   XX=            -82.0072   YY=            -95.9472   ZZ=           -104.2487
   XY=             -6.7353   XZ=              0.0000   YZ=              0.0001

  Exact polarizability:     345.661    -123.916     302.863      -0.002       0.002      63.173
 Approx polarizability:     271.997     -34.379     264.964      -0.001       0.001      82.048

                      1                      2                      3
                      A                      A                      A
 Frequencies --     27.7681                53.7846                58.7477
 Red. masses --      6.5407                 5.3621                 4.4179
 Frc consts  --      0.0030                 0.0091                 0.0090
 IR Inten    --      1.6031                86.0626                 0.1908

                      4                      5                      6
                      A                      A                      A
 Frequencies --    126.9591               187.2505               219.8038
 Red. masses --      5.8569                 6.3538                 5.7278
 Frc consts  --      0.0556                 0.1313                 0.1630
 IR Inten    --      1.0944                 0.0838                 0.1374

                      7                      8                      9
                      A                      A                      A
 Frequencies --    227.8840               269.5737               302.9739
 Red. masses --      6.1736                 4.5925                 6.9556
 Frc consts  --      0.1889                 0.1966                 0.3762
 IR Inten    --     38.5804                 0.0327                 9.7561

                     10                     11                     12
                      A                      A                      A
 Frequencies --    360.1462               407.1560               436.4809
 Red. masses --      4.9684                 9.0440                 3.3269
 Frc consts  --      0.3797                 0.8833                 0.3734
 IR Inten    --      0.8739                 5.8967                 2.9698

                     13                     14                     15
                      A                      A                      A
 Frequencies --    462.0449               507.4226               509.2710
 Red. masses --      4.4394                 3.1982                 8.9104
 Frc consts  --      0.5584                 0.4852                 1.3616
 IR Inten    --      2.2948                 0.3110                14.5383

                     16                     17                     18
                      A                      A                      A
 Frequencies --    525.6992               545.4525               559.4273
 Red. masses --      4.1885                 8.7634                 3.8787
 Frc consts  --      0.6820                 1.5362                 0.7152
 IR Inten    --    160.7933                 2.9007                 0.2963

                     19                     20                     21
                      A                      A                      A
 Frequencies --    568.2521               606.7008               697.8153
 Red. masses --      7.0578                 5.4506                 6.5559
 Frc consts  --      1.3428                 1.1821                 1.8809
 IR Inten    --     11.7754                91.9496                 2.3042

                     22                     23                     24
                      A                      A                      A
 Frequencies --    699.2611               726.2177               742.5655
 Red. masses --      1.5121                 6.0997                 2.7171
 Frc consts  --      0.4356                 1.8954                 0.8827
 IR Inten    --     43.6281                 6.0215                15.5217

                     25                     26                     27
                      A                      A                      A
 Frequencies --    757.6960               766.6441               803.6476
 Red. masses --      1.7118                 1.6148                 3.3998
 Frc consts  --      0.5790                 0.5592                 1.2937
 IR Inten    --      5.9691                82.7402                64.4640

                     28                     29                     30
                      A                      A                      A
 Frequencies --    822.0427               831.1560               870.2605
 Red. masses --      1.9608                 6.4543                 1.3787
 Frc consts  --      0.7807                 2.6270                 0.6152
 IR Inten    --      0.6618                20.3346                 0.9213

                     31                     32                     33
                      A                      A                      A
 Frequencies --    902.0691               945.8138               952.6764
 Red. masses --      1.4140                 5.1078                 1.3655
 Frc consts  --      0.6779                 2.6921                 0.7302
 IR Inten    --      5.7950                31.4154                 0.1374

                     34                     35                     36
                      A                      A                      A
 Frequencies --    958.1312              1003.9041              1050.5176
 Red. masses --      1.3527                 1.3006                 2.0885
 Frc consts  --      0.7316                 0.7723                 1.3580
 IR Inten    --      2.3715                 0.0024                 2.0953

                     37                     38                     39
                      A                      A                      A
 Frequencies --   1057.8118              1072.2221              1076.5347
 Red. masses --      2.0193                 3.4594                 1.0603
 Frc consts  --      1.3313                 2.3433                 0.7240
 IR Inten    --     24.6813               118.4620                75.0993

                     40                     41                     42
                      A                      A                      A
 Frequencies --   1125.8401              1139.0137              1161.2363
 Red. masses --      2.0199                 1.5747                 1.4191
 Frc consts  --      1.5085                 1.2037                 1.1274
 IR Inten    --    153.0606               114.1630                 4.8204

                     43                     44                     45
                      A                      A                      A
 Frequencies --   1178.5618              1181.5411              1258.4860
 Red. masses --      1.2469                 1.3359                 2.5082
 Frc consts  --      1.0204                 1.0988                 2.3405
 IR Inten    --     25.2226                 6.6390                27.0812

                     46                     47                     48
                      A                      A                      A
 Frequencies --   1284.1404              1304.6871              1333.9715
 Red. masses --      2.0004                 2.2853                 3.9057
 Frc consts  --      1.9436                 2.2920                 4.0949
 IR Inten    --    127.1262                11.5448                38.2591

                     49                     50                     51
                      A                      A                      A
 Frequencies --   1349.4154              1382.2858              1406.3932
 Red. masses --      6.2346                 3.2952                 2.5527
 Frc consts  --      6.6888                 3.7096                 2.9749
 IR Inten    --    157.0749               210.8472               119.4773

                     52                     53                     54
                      A                      A                      A
 Frequencies --   1460.9554              1477.6119              1491.5036
 Red. masses --      2.3435                 2.9384                 3.4657
 Frc consts  --      2.9470                 3.7799                 4.5424
 IR Inten    --    175.9995                32.5539                53.2210

                     55                     56                     57
                      A                      A                      A
 Frequencies --   1511.2540              1554.1444              1570.7082
 Red. masses --      3.4634                 5.4300                 4.1852
 Frc consts  --      4.6604                 7.7274                 6.0835
 IR Inten    --    128.0164                90.7941                49.9900

                     58                     59                     60
                      A                      A                      A
 Frequencies --   1622.1516              1625.1209              1660.5619
 Red. masses --      5.2888                 5.4452                 6.5372
 Frc consts  --      8.1996                 8.4730                10.6207
 IR Inten    --    107.0902               349.4162                89.6722

                     61                     62                     63
                      A                      A                      A
 Frequencies --   2327.3073              3208.8347              3210.0055
 Red. masses --      1.0987                 1.0861                 1.0852
 Frc consts  --      3.5062                 6.5891                 6.5884
 IR Inten    --   1024.7875                 4.2501                17.1901

                     64                     65                     66
                      A                      A                      A
 Frequencies --   3216.7922              3218.3871              3228.1790
 Red. masses --      1.0880                 1.0902                 1.0936
 Frc consts  --      6.6334                 6.6533                 6.7148
 IR Inten    --     22.2239                 3.7353                15.1192

                     67                     68                     69
                      A                      A                      A
 Frequencies --   3228.5693              3235.7756              3238.3525
 Red. masses --      1.0955                 1.0996                 1.0988
 Frc consts  --      6.7279                 6.7834                 6.7890
 IR Inten    --      6.7757                16.5885                18.7741

 - Thermochemistry -
 -------------------
 Temperature   298.150 Kelvin.  Pressure   1.00000 Atm.
 Atom     1 has atomic number  6 and mass  12.00000

 Molecular mass:   227.04049 amu.
 Principal axes and moments of inertia in atomic units:
                           1         2         3
     Eigenvalues --  1290.588646367.073697657.66233
           X           -0.70019   0.71396   0.00000
           Y            0.71396   0.70019  -0.00001
           Z            0.00001   0.00000   1.00000
 This molecule is an asymmetric top.
 Rotational symmetry number  1.
 Warning -- assumption of classical behavior for rotation
           may cause significant error
 Rotational temperatures (Kelvin)      0.06711     0.01360     0.01131
 Rotational constants (GHZ):           1.39839     0.28345     0.23568
 Zero-point vibrational energy     483839.1 (Joules/Mol)
                                  115.64031 (Kcal/Mol)
 Warning -- explicit consideration of  20 degrees of freedom as
           vibrations may cause significant error
 Vibrational temperatures:     39.95    77.38    84.52   182.67   269.41
          (Kelvin)            316.25   327.87   387.86   435.91   518.17
                              585.81   628.00   664.78   730.07   732.73
                              756.36   784.78   804.89   817.59   872.91
                             1004.00  1006.08  1044.87  1068.39  1090.16
                             1103.03  1156.27  1182.74  1195.85  1252.11
                             1297.88  1360.82  1370.69  1378.54  1444.39
                             1511.46  1521.96  1542.69  1548.89  1619.83
                             1638.79  1670.76  1695.69  1699.97  1810.68
                             1847.59  1877.15  1919.29  1941.51  1988.80
                             2023.49  2101.99  2125.95  2145.94  2174.36
                             2236.07  2259.90  2333.91  2338.19  2389.18
                             3348.48  4616.80  4618.48  4628.25  4630.54
                             4644.63  4645.19  4655.56  4659.27

 Zero-point correction=                           0.184285 (Hartree/Particle)
 Thermal correction to Energy=                    0.196798
 Thermal correction to Enthalpy=                  0.197742
 Thermal correction to Gibbs Free Energy=         0.143950
 Sum of electronic and zero-point Energies=          -1028.504910
 Sum of electronic and thermal Energies=             -1028.492397
 Sum of electronic and thermal Enthalpies=           -1028.491452
 Sum of electronic and thermal Free Energies=        -1028.545244

                     E (Thermal)             CV                S
                      KCal/Mol        Cal/Mol-Kelvin    Cal/Mol-Kelvin
 Total                  123.493             49.605            113.215
 Electronic               0.000              0.000              0.000
 Translational            0.889              2.981             42.162
 Rotational               0.889              2.981             32.509
 Vibrational            121.715             43.643             38.544
 Vibration     1          0.593              1.984              5.983
 Vibration     2          0.596              1.976              4.673
 Vibration     3          0.596              1.974              4.499
 Vibration     4          0.611              1.926              2.992
 Vibration     5          0.632              1.857              2.255
 Vibration     6          0.647              1.811              1.961
 Vibration     7          0.651              1.798              1.896
 Vibration     8          0.674              1.729              1.599
 Vibration     9          0.694              1.668              1.400
 Vibration    10          0.735              1.554              1.121
 Vibration    11          0.772              1.455              0.937
 Vibration    12          0.797              1.391              0.838
 Vibration    13          0.820              1.334              0.760
 Vibration    14          0.863              1.234              0.640
 Vibration    15          0.864              1.229              0.635
 Vibration    16          0.881              1.193              0.597
 Vibration    17          0.901              1.150              0.554
 Vibration    18          0.915              1.119              0.525
 Vibration    19          0.924              1.100              0.508
 Vibration    20          0.965              1.018              0.438

 Optimization completed.
    -- Stationary point found.
 Normal termination of Gaussian 16 at Tue Jul 14 17:14:13 2020.
