 Gaussian 16, Revision C.01,
 Gaussian 16:  ES64L-G16RevC.01  3-Jul-2019

 ----------------------------------------------------------------------
 #p opt=addgic freq td wb97xd/cc-pvdz nosymm int=ultrafine scrf=(solven
 t=CarbonTetraChloride)
 ----------------------------------------------------------------------

 ------------------------------------------------
 NM 2D-scan of HBT TD-WB97XD pVDZ in CTC Relaxed.
 ------------------------------------------------
 Symbolic Z-matrix:
 Charge =  0 Multiplicity = 1

 SCF Done:  E(RwB97XD) =  -1028.79047366     A.U. after   16 cycles
 Total Energy, E(TD-HF/TD-DFT) =  -1028.68154524
 SCF Done:  E(RwB97XD) =  -1028.80101050     A.U. after   14 cycles
 Total Energy, E(TD-HF/TD-DFT) =  -1028.69837240
 SCF Done:  E(RwB97XD) =  -1028.80529697     A.U. after   13 cycles
 Total Energy, E(TD-HF/TD-DFT) =  -1028.70052020
 SCF Done:  E(RwB97XD) =  -1028.80572433     A.U. after   11 cycles
 Total Energy, E(TD-HF/TD-DFT) =  -1028.70068105
 SCF Done:  E(RwB97XD) =  -1028.80573611     A.U. after    9 cycles
 Total Energy, E(TD-HF/TD-DFT) =  -1028.70068511
 Optimization completed.
    -- Stationary point found.
 Normal termination of Gaussian 16 at Mon Jul 13 16:19:58 2020.

 ----------------------------------------------------------------------
 #P Geom=AllCheck Guess=TCheck SCRF=Check GenChk RwB97XD TD(FC,Read)/CC
 -pVDZ Freq
 ----------------------------------------------------------------------

 Structure from the checkpoint file:  "config_9_14.chk"
 ------------------------------------------------
 NM 2D-scan of HBT TD-WB97XD pVDZ in CTC Relaxed.
 ------------------------------------------------
 Charge =  0 Multiplicity = 1

                          Input orientation:
 ---------------------------------------------------------------------
 Center     Atomic      Atomic             Coordinates (Angstroms)
 Number     Number       Type             X           Y           Z
 ---------------------------------------------------------------------
      1          6           0        1.594359   -3.288040   -0.000019
      2          6           0        1.000757   -2.029669   -0.000014
      3          6           0        1.775070   -0.847274   -0.000016
      4          6           0        3.175570   -0.930147   -0.000025
      5          6           0        3.760547   -2.191058   -0.000030
      6          6           0        2.986137   -3.360489   -0.000028
      7          1           0        0.984482   -4.192083   -0.000017
      8          1           0        3.780180   -0.022820   -0.000026
      9          1           0        4.848811   -2.269878   -0.000037
     10          1           0        3.474822   -4.335376   -0.000032
     11          7           0        1.000043    0.279581   -0.000011
     12         16           0       -0.713775   -1.648440   -0.000002
     13          6           0       -1.338493    1.094029    0.000017
     14          6           0       -2.698342    0.795077    0.000013
     15          6           0       -0.912526    2.512409    0.000039
     16          6           0       -3.676798    1.816570    0.000026
     17          1           0       -3.030138   -0.246087   -0.000002
     18          6           0       -1.941647    3.500182    0.000043
     19          6           0       -3.298944    3.158902    0.000040
     20          1           0       -4.731811    1.539198    0.000023
     21          1           0       -1.616198    4.541915    0.000055
     22          1           0       -4.059148    3.941267    0.000046
     23          6           0       -0.345277    0.064949   -0.000000
     24          8           0        0.316834    2.816601    0.000039
     25          1           0        1.255533    1.289562    0.000014
 ---------------------------------------------------------------------

 SCF Done:  E(RwB97XD) =  -1028.80573611     A.U. after    1 cycles

 Excitation energies and oscillator strengths:

 Excited state symmetry could not be determined.
 Excited State   1:      Singlet-?Sym    2.8586 eV  433.73 nm  f=0.4417  <S**2>=0.000
      59 -> 60         0.69695
 This state for optimization and/or second-order correction.
 Total Energy, E(TD-HF/TD-DFT) =  -1028.70068513
 Copying the excited state density for this state as the 1-particle RhoCI density.

 Excited state symmetry could not be determined.
 Excited State   2:      Singlet-?Sym    3.6139 eV  343.08 nm  f=0.0000  <S**2>=0.000
      57 -> 60         0.68351
      57 -> 62         0.11720
      57 -> 64         0.11388

 Excited state symmetry could not be determined.
 Excited State   3:      Singlet-?Sym    4.2969 eV  288.54 nm  f=0.3881  <S**2>=0.000
      58 -> 60         0.68239

 Alpha  occ. eigenvalues --  -89.10401 -19.20974 -14.52732 -10.42027 -10.37664
 Alpha  occ. eigenvalues --  -10.36254 -10.35762 -10.33400 -10.33064 -10.32616
 Alpha  occ. eigenvalues --  -10.32421 -10.31501 -10.30968 -10.30799 -10.29209
 Alpha  occ. eigenvalues --  -10.28371  -8.12416  -6.07288  -6.06918  -6.06437
 Alpha  occ. eigenvalues --   -1.12846  -1.09014  -0.98418  -0.95490  -0.93279
 Alpha  occ. eigenvalues --   -0.89111  -0.86746  -0.83807  -0.81212  -0.75928
 Alpha  occ. eigenvalues --   -0.73215  -0.72164  -0.68816  -0.67644  -0.65122
 Alpha  occ. eigenvalues --   -0.61029  -0.59705  -0.56662  -0.55944  -0.55669
 Alpha  occ. eigenvalues --   -0.55023  -0.53840  -0.53075  -0.50504  -0.48892
 Alpha  occ. eigenvalues --   -0.48733  -0.48476  -0.46975  -0.45504  -0.44884
 Alpha  occ. eigenvalues --   -0.44181  -0.42969  -0.42211  -0.40082  -0.36838
 Alpha  occ. eigenvalues --   -0.33664  -0.31597  -0.31429  -0.25861
 Alpha virt. eigenvalues --   -0.02080   0.03711   0.05668   0.06529   0.09320
 Alpha virt. eigenvalues --    0.10748   0.13618   0.14691   0.16208   0.17270
 Alpha virt. eigenvalues --    0.18363   0.20020   0.20744   0.21273   0.22686

 Mulliken charges:
               1
     1  C    0.018989
     2  C   -0.237172
     3  C    0.254623
     4  C   -0.010460
     5  C    0.011355
     6  C    0.002038
     7  H    0.025717
     8  H    0.031279
     9  H    0.027697
    10  H    0.026967
    11  N   -0.139921
    12  S    0.200483
    13  C   -0.084314
    14  C   -0.034231
    15  C    0.111122
    16  C   -0.033921
    17  H    0.009886
    18  C   -0.030380
    19  C    0.033008
    20  H    0.001753
    21  H    0.001580
    22  H    0.014665
    23  C    0.059907
    24  O   -0.407031
    25  H    0.146360
 Sum of Mulliken charges =  -0.00000

 Dipole moment (field-independent basis, Debye):
    X=              1.9078    Y=             -5.8000    Z=             -0.0001  Tot=              6.1057
 Quadrupole moment (field-independent basis, Debye-Ang):
   XX=            -81.9395   YY=            -96.3868   ZZ=           -104.1990
   XY=             -6.4644   XZ=             -0.0001   YZ=             -0.0000

  Exact polarizability:     347.497    -121.817     297.872      -0.002       0.002      63.221
 Approx polarizability:     273.247     -36.591     264.948      -0.001       0.001      82.000

                      1                      2                      3
                      A                      A                      A
 Frequencies --     23.3576                40.4748               113.7165
 Red. masses --      5.4446                 6.0615                 5.6862
 Frc consts  --      0.0018                 0.0059                 0.0433
 IR Inten    --      1.5243                 1.2218                 0.8539

                      4                      5                      6
                      A                      A                      A
 Frequencies --    114.5313               180.9266               223.2547
 Red. masses --      5.7620                 5.6490                 5.4756
 Frc consts  --      0.0445                 0.1090                 0.1608
 IR Inten    --      9.3904                 0.0692                 0.2211

                      7                      8                      9
                      A                      A                      A
 Frequencies --    266.2937               272.1706               300.1577
 Red. masses --      8.0710                 4.6081                 7.4935
 Frc consts  --      0.3372                 0.2011                 0.3978
 IR Inten    --      2.5256                 0.4327                 3.9581

                     10                     11                     12
                      A                      A                      A
 Frequencies --    352.5548               392.3207               432.8962
 Red. masses --      4.7893                 8.3556                 3.4656
 Frc consts  --      0.3507                 0.7577                 0.3826
 IR Inten    --      1.0154                 6.2228                 2.8789

                     13                     14                     15
                      A                      A                      A
 Frequencies --    454.1787               505.1668               510.7398
 Red. masses --      4.4178                 8.6530                 3.2103
 Frc consts  --      0.5369                 1.3010                 0.4934
 IR Inten    --      3.4344                 9.7083                 0.3974

                     16                     17                     18
                      A                      A                      A
 Frequencies --    542.4039               551.8705               558.5717
 Red. masses --      8.6320                 6.5058                 3.8486
 Frc consts  --      1.4963                 1.1674                 0.7075
 IR Inten    --      7.7747                39.7074                 0.6137

                     19                     20                     21
                      A                      A                      A
 Frequencies --    568.3240               633.4015               693.4733
 Red. masses --      7.2326                 6.1166                 1.5333
 Frc consts  --      1.3764                 1.4458                 0.4345
 IR Inten    --     11.1448                47.3719                40.3362

                     22                     23                     24
                      A                      A                      A
 Frequencies --    716.1724               727.6283               743.8643
 Red. masses --      6.2116                 7.9785                 2.6262
 Frc consts  --      1.8771                 2.4888                 0.8562
 IR Inten    --      2.6273                 3.5754                13.7929

                     25                     26                     27
                      A                      A                      A
 Frequencies --    759.8401               767.2262               822.3799
 Red. masses --      1.6915                 1.6602                 6.3788
 Frc consts  --      0.5754                 0.5758                 2.5418
 IR Inten    --      3.2567                84.2085                18.1762

                     28                     29                     30
                      A                      A                      A
 Frequencies --    833.7195               868.8421               871.0733
 Red. masses --      1.8245                 1.3777                 4.5395
 Frc consts  --      0.7472                 0.6127                 2.0294
 IR Inten    --      0.0174                 0.0035                 4.8153

                     31                     32                     33
                      A                      A                      A
 Frequencies --    873.1039               902.0135               952.9295
 Red. masses --      1.0906                 1.4309                 1.3622
 Frc consts  --      0.4898                 0.6860                 0.7288
 IR Inten    --     74.5460                10.9127                 0.9288

                     34                     35                     36
                      A                      A                      A
 Frequencies --    957.9759               959.9275              1004.1710
 Red. masses --      1.3513                 5.4069                 1.2971
 Frc consts  --      0.7306                 2.9355                 0.7706
 IR Inten    --      1.3903                 0.6636                 0.0206

                     37                     38                     39
                      A                      A                      A
 Frequencies --   1051.9600              1053.6074              1088.5220
 Red. masses --      2.1323                 2.0924                 4.1060
 Frc consts  --      1.3903                 1.3685                 2.8664
 IR Inten    --      0.1489                 9.9385                 1.5600

                     40                     41                     42
                      A                      A                      A
 Frequencies --   1115.3918              1153.8971              1163.2393
 Red. masses --      1.5720                 1.3368                 1.2260
 Frc consts  --      1.1523                 1.0487                 0.9774
 IR Inten    --     27.0858                16.2842                61.9007

                     43                     44                     45
                      A                      A                      A
 Frequencies --   1178.4036              1216.2922              1258.2824
 Red. masses --      1.1459                 1.7549                 2.0900
 Frc consts  --      0.9375                 1.5296                 1.9496
 IR Inten    --     29.6669                73.9207                43.5852

                     46                     47                     48
                      A                      A                      A
 Frequencies --   1273.9043              1302.9397              1342.7299
 Red. masses --      1.9269                 1.9267                 5.6293
 Frc consts  --      1.8424                 1.9271                 5.9797
 IR Inten    --     68.6826                10.0506                 5.0200

                     49                     50                     51
                      A                      A                      A
 Frequencies --   1364.2154              1396.5776              1401.7625
 Red. masses --      5.2099                 2.7581                 2.4225
 Frc consts  --      5.7127                 3.1695                 2.8045
 IR Inten    --    170.4695                 0.6808                 1.9213

                     52                     53                     54
                      A                      A                      A
 Frequencies --   1436.8856              1481.1793              1502.8198
 Red. masses --      2.8935                 2.9170                 3.1109
 Frc consts  --      3.5198                 3.7706                 4.1395
 IR Inten    --    294.4163                 0.7452                41.5114

                     55                     56                     57
                      A                      A                      A
 Frequencies --   1527.7283              1558.0517              1578.6537
 Red. masses --      3.9468                 4.9404                 4.4065
 Frc consts  --      5.4273                 7.0661                 6.4702
 IR Inten    --     33.4336               216.0484                89.1428

                     58                     59                     60
                      A                      A                      A
 Frequencies --   1618.9033              1647.2905              1666.6747
 Red. masses --      6.3524                 6.3930                 6.7992
 Frc consts  --      9.8092                10.2210                11.1278
 IR Inten    --    192.3669                48.3797               135.3492

                     61                     62                     63
                      A                      A                      A
 Frequencies --   3196.6026              3211.9184              3212.4911
 Red. masses --      1.0882                 1.0866                 1.0861
 Frc consts  --      6.5514                 6.6047                 6.6038
 IR Inten    --      7.1466                17.6232                 6.0649

                     64                     65                     66
                      A                      A                      A
 Frequencies --   3220.5247              3222.6410              3223.2171
 Red. masses --      1.0866                 1.0902                 1.0919
 Frc consts  --      6.6403                 6.6706                 6.6834
 IR Inten    --    627.3025                85.6734                54.4843

                     67                     68                     69
                      A                      A                      A
 Frequencies --   3232.2788              3235.6905              3239.0333
 Red. masses --      1.0955                 1.0988                 1.0995
 Frc consts  --      6.7435                 6.7782                 6.7963
 IR Inten    --     23.0764                17.3286                 5.7720

 - Thermochemistry -
 -------------------
 Temperature   298.150 Kelvin.  Pressure   1.00000 Atm.
 Atom     1 has atomic number  6 and mass  12.00000

 Molecular mass:   227.04049 amu.
 Principal axes and moments of inertia in atomic units:
                           1         2         3
     Eigenvalues --  1290.011566440.815157730.82671
           X           -0.70206   0.71211   0.00000
           Y            0.71211   0.70206  -0.00001
           Z            0.00001   0.00000   1.00000
 This molecule is an asymmetric top.
 Rotational symmetry number  1.
 Warning -- assumption of classical behavior for rotation
           may cause significant error
 Rotational temperatures (Kelvin)      0.06714     0.01345     0.01120
 Rotational constants (GHZ):           1.39901     0.28020     0.23345
 Zero-point vibrational energy     489667.2 (Joules/Mol)
                                  117.03327 (Kcal/Mol)
 Warning -- explicit consideration of  19 degrees of freedom as
           vibrations may cause significant error
 Vibrational temperatures:     33.61    58.23   163.61   164.79   260.31
          (Kelvin)            321.21   383.14   391.59   431.86   507.25
                              564.46   622.84   653.46   726.82   734.84
                              780.40   794.02   803.66   817.69   911.32
                              997.75  1030.41  1046.89  1070.25  1093.24
                             1103.87  1183.22  1199.54  1250.07  1253.28
                             1256.20  1297.80  1371.05  1378.31  1381.12
                             1444.78  1513.54  1515.91  1566.14  1604.80
                             1660.20  1673.64  1695.46  1749.97  1810.39
                             1832.86  1874.64  1931.89  1962.80  2009.36
                             2016.82  2067.36  2131.09  2162.22  2198.06
                             2241.69  2271.33  2329.24  2370.08  2397.97
                             4599.20  4621.23  4622.06  4633.62  4636.66
                             4637.49  4650.53  4655.44  4660.25

 Zero-point correction=                           0.186504 (Hartree/Particle)
 Thermal correction to Energy=                    0.198926
 Thermal correction to Enthalpy=                  0.199870
 Thermal correction to Gibbs Free Energy=         0.146258
 Sum of electronic and zero-point Energies=          -1028.514181
 Sum of electronic and thermal Energies=             -1028.501759
 Sum of electronic and thermal Enthalpies=           -1028.500815
 Sum of electronic and thermal Free Energies=        -1028.554427

                     E (Thermal)             CV                S
                      KCal/Mol        Cal/Mol-Kelvin    Cal/Mol-Kelvin
 Total                  124.828             49.519            112.836
 Electronic               0.000              0.000              0.000
 Translational            0.889              2.981             42.162
 Rotational               0.889              2.981             32.529
 Vibrational            123.050             43.557             38.145
 Vibration     1          0.593              1.985              6.326
 Vibration     2          0.594              1.981              5.236
 Vibration     3          0.607              1.938              3.204
 Vibration     4          0.607              1.937              3.191
 Vibration     5          0.630              1.866              2.319
 Vibration     6          0.649              1.806              1.933
 Vibration     7          0.672              1.735              1.620
 Vibration     8          0.675              1.725              1.582
 Vibration     9          0.693              1.673              1.416
 Vibration    10          0.729              1.570              1.155
 Vibration    11          0.760              1.487              0.991
 Vibration    12          0.794              1.399              0.849
 Vibration    13          0.813              1.352              0.783
 Vibration    14          0.860              1.239              0.645
 Vibration    15          0.866              1.226              0.632
 Vibration    16          0.898              1.156              0.560
 Vibration    17          0.907              1.136              0.540
 Vibration    18          0.914              1.121              0.527
 Vibration    19          0.924              1.100              0.507

 Optimization completed.
    -- Stationary point found.
 Normal termination of Gaussian 16 at Mon Jul 13 16:37:39 2020.
