 Gaussian 16, Revision C.01,
 Gaussian 16:  ES64L-G16RevC.01  3-Jul-2019

 ----------------------------------------------------------------------
 #p opt=addgic freq td wb97xd/cc-pvdz nosymm int=ultrafine scrf=(solven
 t=CarbonTetraChloride)
 ----------------------------------------------------------------------

 ------------------------------------------------
 NM 2D-scan of HBT TD-WB97XD pVDZ in CTC Relaxed.
 ------------------------------------------------
 Symbolic Z-matrix:
 Charge =  0 Multiplicity = 1

 SCF Done:  E(RwB97XD) =  -1028.76288649     A.U. after   15 cycles
 Total Energy, E(TD-HF/TD-DFT) =  -1028.63106469
 SCF Done:  E(RwB97XD) =  -1028.81778734     A.U. after   13 cycles
 Total Energy, E(TD-HF/TD-DFT) =  -1028.68831350
 SCF Done:  E(RwB97XD) =  -1028.81856878     A.U. after   13 cycles
 Total Energy, E(TD-HF/TD-DFT) =  -1028.69069856
 SCF Done:  E(RwB97XD) =  -1028.82044852     A.U. after   11 cycles
 Total Energy, E(TD-HF/TD-DFT) =  -1028.69210940
 SCF Done:  E(RwB97XD) =  -1028.82068931     A.U. after   11 cycles
 Total Energy, E(TD-HF/TD-DFT) =  -1028.69252900
 SCF Done:  E(RwB97XD) =  -1028.82074911     A.U. after    9 cycles
 Total Energy, E(TD-HF/TD-DFT) =  -1028.69253652
 Optimization completed.
    -- Stationary point found.
 Normal termination of Gaussian 16 at Mon Jul 13 17:46:46 2020.

 ----------------------------------------------------------------------
 #P Geom=AllCheck Guess=TCheck SCRF=Check GenChk RwB97XD TD(FC,Read)/CC
 -pVDZ Freq
 ----------------------------------------------------------------------

 Structure from the checkpoint file:  "config_2_14.chk"
 ------------------------------------------------
 NM 2D-scan of HBT TD-WB97XD pVDZ in CTC Relaxed.
 ------------------------------------------------
 Charge =  0 Multiplicity = 1

                          Input orientation:
 ---------------------------------------------------------------------
 Center     Atomic      Atomic             Coordinates (Angstroms)
 Number     Number       Type             X           Y           Z
 ---------------------------------------------------------------------
      1          6           0        1.579668   -3.289777   -0.000051
      2          6           0        0.971940   -2.036696   -0.000037
      3          6           0        1.739051   -0.819197    0.000011
      4          6           0        3.157426   -0.918962    0.000045
      5          6           0        3.744394   -2.167924    0.000030
      6          6           0        2.970831   -3.350514   -0.000018
      7          1           0        0.980107   -4.200901   -0.000087
      8          1           0        3.753551   -0.005850    0.000081
      9          1           0        4.833089   -2.247424    0.000056
     10          1           0        3.468558   -4.321266   -0.000029
     11          7           0        1.030076    0.319433    0.000013
     12         16           0       -0.730638   -1.667677   -0.000067
     13          6           0       -1.303378    1.068747   -0.000022
     14          6           0       -2.698635    0.773284    0.000007
     15          6           0       -0.925986    2.489820   -0.000004
     16          6           0       -3.641499    1.784288    0.000064
     17          1           0       -3.021429   -0.268941   -0.000003
     18          6           0       -1.907677    3.486938    0.000064
     19          6           0       -3.255606    3.145373    0.000100
     20          1           0       -4.701937    1.527541    0.000092
     21          1           0       -1.575997    4.525605    0.000075
     22          1           0       -4.015586    3.927402    0.000149
     23          6           0       -0.311342    0.073288   -0.000036
     24          8           0        0.342274    2.852583   -0.000087
     25          1           0        0.907512    2.022064   -0.000228
 ---------------------------------------------------------------------

 SCF Done:  E(RwB97XD) =  -1028.82074911     A.U. after    1 cycles

 Excitation energies and oscillator strengths:

 Excited state symmetry could not be determined.
 Excited State   1:      Singlet-?Sym    3.4888 eV  355.37 nm  f=0.7198  <S**2>=0.000
      59 -> 60         0.68898
 This state for optimization and/or second-order correction.
 Total Energy, E(TD-HF/TD-DFT) =  -1028.69253651
 Copying the excited state density for this state as the 1-particle RhoCI density.

 Excited state symmetry could not be determined.
 Excited State   2:      Singlet-?Sym    4.3859 eV  282.69 nm  f=0.1426  <S**2>=0.000
      57 -> 60         0.38623
      58 -> 60         0.53495
      59 -> 62        -0.15628

 Excited state symmetry could not be determined.
 Excited State   3:      Singlet-?Sym    4.5650 eV  271.60 nm  f=0.0928  <S**2>=0.000
      57 -> 60         0.49988
      58 -> 60        -0.37470
      58 -> 61        -0.10380
      59 -> 61         0.21506

 Alpha  occ. eigenvalues --  -89.08790 -19.28873 -14.47152 -10.39652 -10.38273
 Alpha  occ. eigenvalues --  -10.34991 -10.34620 -10.32644 -10.32378 -10.32094
 Alpha  occ. eigenvalues --  -10.32040 -10.31361 -10.31323 -10.31199 -10.30599
 Alpha  occ. eigenvalues --  -10.30529  -8.10769  -6.05610  -6.05276  -6.04831
 Alpha  occ. eigenvalues --   -1.17383  -1.08074  -0.96777  -0.95700  -0.91843
 Alpha  occ. eigenvalues --   -0.88787  -0.85082  -0.84515  -0.82218  -0.75985
 Alpha  occ. eigenvalues --   -0.71253  -0.70147  -0.69155  -0.68232  -0.63547
 Alpha  occ. eigenvalues --   -0.60298  -0.58986  -0.58594  -0.56051  -0.54463
 Alpha  occ. eigenvalues --   -0.53676  -0.53310  -0.52867  -0.50629  -0.50529
 Alpha  occ. eigenvalues --   -0.49239  -0.47774  -0.45908  -0.45578  -0.44782
 Alpha  occ. eigenvalues --   -0.43985  -0.42989  -0.42105  -0.39958  -0.37589
 Alpha  occ. eigenvalues --   -0.36437  -0.31973  -0.31630  -0.28053
 Alpha virt. eigenvalues --   -0.01858   0.05233   0.06907   0.07077   0.07616
 Alpha virt. eigenvalues --    0.11204   0.14081   0.15195   0.16540   0.18074
 Alpha virt. eigenvalues --    0.18503   0.20964   0.21568   0.22327   0.22775

 Mulliken charges:
               1
     1  C    0.016384
     2  C   -0.216423
     3  C    0.212827
     4  C   -0.018303
     5  C    0.006347
     6  C   -0.006951
     7  H    0.016938
     8  H    0.015802
     9  H    0.018014
    10  H    0.019836
    11  N   -0.358525
    12  S    0.151945
    13  C   -0.073515
    14  C   -0.024023
    15  C    0.079737
    16  C   -0.008568
    17  H    0.020241
    18  C    0.010893
    19  C    0.021725
    20  H    0.011913
    21  H    0.020210
    22  H    0.023428
    23  C    0.081846
    24  O   -0.194202
    25  H    0.172421
 Sum of Mulliken charges =  -0.00000

 Dipole moment (field-independent basis, Debye):
    X=             -0.6790    Y=             -1.8579    Z=             -0.0001  Tot=              1.9781
 Quadrupole moment (field-independent basis, Debye-Ang):
   XX=            -83.1779   YY=            -89.2444   ZZ=           -104.3837
   XY=             -6.9665   XZ=             -0.0004   YZ=              0.0002

  Exact polarizability:     401.810    -194.846     390.278      -0.002       0.004      63.380
 Approx polarizability:     279.041     -36.868     261.548      -0.000       0.003      82.379

                      1                      2                      3
                      A                      A                      A
 Frequencies --     41.8857                68.3621               106.3651
 Red. masses --      6.0947                 5.2404                 5.6222
 Frc consts  --      0.0063                 0.0144                 0.0375
 IR Inten    --      1.3386                 0.0059                 2.2125

                      4                      5                      6
                      A                      A                      A
 Frequencies --    108.7921               181.0976               224.2887
 Red. masses --      5.0836                 6.7398                 5.3934
 Frc consts  --      0.0355                 0.1302                 0.1599
 IR Inten    --      0.2385                 1.3290                 0.0045

                      7                      8                      9
                      A                      A                      A
 Frequencies --    264.4174               271.3682               292.2637
 Red. masses --      7.8719                 4.8381                 6.6276
 Frc consts  --      0.3243                 0.2099                 0.3335
 IR Inten    --     22.3337                 0.0436                 8.4411

                     10                     11                     12
                      A                      A                      A
 Frequencies --    392.0271               403.2566               440.2949
 Red. masses --      4.5407                 9.0906                 3.2712
 Frc consts  --      0.4112                 0.8710                 0.3736
 IR Inten    --      0.0715                14.1696                 4.0163

                     13                     14                     15
                      A                      A                      A
 Frequencies --    491.6573               498.0088               508.3897
 Red. masses --      4.4615                 7.6276                 3.1577
 Frc consts  --      0.6354                 1.1146                 0.4809
 IR Inten    --      0.2113                 7.0238                 0.0914

                     16                     17                     18
                      A                      A                      A
 Frequencies --    513.2533               524.6749               551.7523
 Red. masses --      5.1348                 8.3827                 3.9977
 Frc consts  --      0.7970                 1.3596                 0.7171
 IR Inten    --     25.9806                26.7500                 0.1554

                     19                     20                     21
                      A                      A                      A
 Frequencies --    576.7740               644.1746               688.4616
 Red. masses --      7.6925                 6.5752                10.0707
 Frc consts  --      1.5077                 1.6076                 2.8123
 IR Inten    --     46.7181                16.9705                51.6927

                     22                     23                     24
                      A                      A                      A
 Frequencies --    714.2997               721.9348               736.3528
 Red. masses --      6.7500                 1.6727                 1.7917
 Frc consts  --      2.0291                 0.5136                 0.5724
 IR Inten    --     14.4434                54.2702                44.9786

                     25                     26                     27
                      A                      A                      A
 Frequencies --    742.8841               771.5466               815.0266
 Red. masses --      1.9501                 2.1959                 6.2954
 Frc consts  --      0.6341                 0.7702                 2.4638
 IR Inten    --     10.7475                49.1304                20.5527

                     28                     29                     30
                      A                      A                      A
 Frequencies --    816.9650               860.1192               884.7025
 Red. masses --      1.6908                 1.4297                 6.3771
 Frc consts  --      0.6649                 0.6232                 2.9408
 IR Inten    --      4.1182                 0.6600                64.1860

                     31                     32                     33
                      A                      A                      A
 Frequencies --    914.4089               927.2719               953.5377
 Red. masses --      1.1874                 1.1951                 1.3437
 Frc consts  --      0.5850                 0.6055                 0.7198
 IR Inten    --     52.6943                19.4296                 2.0377

                     34                     35                     36
                      A                      A                      A
 Frequencies --    958.6758               968.3794               999.2350
 Red. masses --      7.2937                 1.3476                 1.3036
 Frc consts  --      3.9495                 0.7446                 0.7669
 IR Inten    --      8.2699                 0.0825                 0.0045

                     37                     38                     39
                      A                      A                      A
 Frequencies --   1038.3471              1040.3760              1082.1518
 Red. masses --      2.1407                 2.0996                 4.6033
 Frc consts  --      1.3599                 1.3389                 3.1761
 IR Inten    --      3.7744                 0.7755                47.2244

                     40                     41                     42
                      A                      A                      A
 Frequencies --   1136.6346              1150.4023              1174.6435
 Red. masses --      1.4577                 1.3325                 1.1329
 Frc consts  --      1.1096                 1.0390                 0.9210
 IR Inten    --     57.6381                14.9934                 8.5396

                     43                     44                     45
                      A                      A                      A
 Frequencies --   1179.1690              1214.2361              1236.1430
 Red. masses --      1.2012                 4.3488                 1.8730
 Frc consts  --      0.9840                 3.7777                 1.6862
 IR Inten    --     29.3170                38.3626               160.7513

                     46                     47                     48
                      A                      A                      A
 Frequencies --   1277.7916              1318.4350              1359.5735
 Red. masses --      1.6713                 3.2909                 2.8493
 Frc consts  --      1.6077                 3.3705                 3.1030
 IR Inten    --      0.3846               281.1821                40.3967

                     49                     50                     51
                      A                      A                      A
 Frequencies --   1371.0464              1396.4135              1437.7350
 Red. masses --      5.6456                 2.0114                 2.6813
 Frc consts  --      6.2527                 2.3109                 3.2655
 IR Inten    --     39.1387                 3.1818               202.8909

                     52                     53                     54
                      A                      A                      A
 Frequencies --   1472.0895              1499.3016              1514.3534
 Red. masses --      3.5517                 3.3745                 2.6160
 Frc consts  --      4.5348                 4.4692                 3.5347
 IR Inten    --     76.9747                84.9357               148.0105

                     55                     56                     57
                      A                      A                      A
 Frequencies --   1543.3806              1574.2687              1593.9192
 Red. masses --      4.7319                 7.3677                 3.9029
 Frc consts  --      6.6410                10.7582                 5.8421
 IR Inten    --     28.7528               159.7637               630.5499

                     58                     59                     60
                      A                      A                      A
 Frequencies --   1605.5908              1626.9297              1646.9698
 Red. masses --      2.6372                 4.4945                 5.2528
 Frc consts  --      4.0055                 7.0092                 8.3949
 IR Inten    --    157.3632               316.5780               198.3512

                     61                     62                     63
                      A                      A                      A
 Frequencies --   3014.3356              3207.3108              3210.6167
 Red. masses --      1.0758                 1.0862                 1.0861
 Frc consts  --      5.7591                 6.5834                 6.5960
 IR Inten    --     31.0349                 9.7067                 5.4325

                     64                     65                     66
                      A                      A                      A
 Frequencies --   3218.2810              3222.0472              3230.0175
 Red. masses --      1.0898                 1.0891                 1.0946
 Frc consts  --      6.6503                 6.6619                 6.7286
 IR Inten    --      3.1332                 2.4478                16.4013

                     67                     68                     69
                      A                      A                      A
 Frequencies --   3230.3708              3236.0711              3241.0693
 Red. masses --      1.0954                 1.0989                 1.0984
 Frc consts  --      6.7351                 6.7801                 6.7983
 IR Inten    --     10.9170                39.7987                27.6671

 - Thermochemistry -
 -------------------
 Temperature   298.150 Kelvin.  Pressure   1.00000 Atm.
 Atom     1 has atomic number  6 and mass  12.00000

 Molecular mass:   227.04049 amu.
 Principal axes and moments of inertia in atomic units:
                           1         2         3
     Eigenvalues --  1321.205736350.533777671.73950
           X           -0.69807   0.71603  -0.00000
           Y            0.71603   0.69807  -0.00001
           Z            0.00001   0.00001   1.00000
 This molecule is an asymmetric top.
 Rotational symmetry number  1.
 Warning -- assumption of classical behavior for rotation
           may cause significant error
 Rotational temperatures (Kelvin)      0.06556     0.01364     0.01129
 Rotational constants (GHZ):           1.36598     0.28419     0.23525
 Zero-point vibrational energy     489732.8 (Joules/Mol)
                                  117.04894 (Kcal/Mol)
 Warning -- explicit consideration of  19 degrees of freedom as
           vibrations may cause significant error
 Vibrational temperatures:     60.26    98.36   153.04   156.53   260.56
          (Kelvin)            322.70   380.44   390.44   420.50   564.04
                              580.20   633.49   707.39   716.52   731.46
                              738.46   754.89   793.85   829.85   926.82
                              990.54  1027.72  1038.70  1059.45  1068.84
                             1110.08  1172.64  1175.43  1237.52  1272.89
                             1315.63  1334.14  1371.93  1379.32  1393.28
                             1437.68  1493.95  1496.87  1556.98  1635.36
                             1655.17  1690.05  1696.56  1747.01  1778.53
                             1838.46  1896.93  1956.12  1972.63  2009.13
                             2068.58  2118.01  2157.16  2178.82  2220.58
                             2265.02  2293.29  2310.09  2340.79  2369.62
                             4336.96  4614.60  4619.36  4630.39  4635.81
                             4647.27  4647.78  4655.98  4663.18

 Zero-point correction=                           0.186529 (Hartree/Particle)
 Thermal correction to Energy=                    0.198841
 Thermal correction to Enthalpy=                  0.199785
 Thermal correction to Gibbs Free Energy=         0.147173
 Sum of electronic and zero-point Energies=          -1028.506007
 Sum of electronic and thermal Energies=             -1028.493696
 Sum of electronic and thermal Enthalpies=           -1028.492751
 Sum of electronic and thermal Free Energies=        -1028.545364

                     E (Thermal)             CV                S
                      KCal/Mol        Cal/Mol-Kelvin    Cal/Mol-Kelvin
 Total                  124.775             49.412            110.733
 Electronic               0.000              0.000              0.000
 Translational            0.889              2.981             42.162
 Rotational               0.889              2.981             32.532
 Vibrational            122.997             43.450             36.039
 Vibration     1          0.595              1.980              5.168
 Vibration     2          0.598              1.969              4.200
 Vibration     3          0.605              1.944              3.334
 Vibration     4          0.606              1.942              3.290
 Vibration     5          0.630              1.865              2.317
 Vibration     6          0.649              1.804              1.924
 Vibration     7          0.671              1.738              1.632
 Vibration     8          0.675              1.726              1.587
 Vibration     9          0.688              1.688              1.461
 Vibration    10          0.759              1.487              0.992
 Vibration    11          0.769              1.463              0.951
 Vibration    12          0.800              1.382              0.826
 Vibration    13          0.847              1.269              0.679
 Vibration    14          0.853              1.254              0.663
 Vibration    15          0.864              1.231              0.637
 Vibration    16          0.868              1.221              0.626
 Vibration    17          0.880              1.195              0.599
 Vibration    18          0.907              1.136              0.541
 Vibration    19          0.933              1.081              0.491

 Optimization completed.
    -- Stationary point found.
 Normal termination of Gaussian 16 at Mon Jul 13 18:05:16 2020.
