 Gaussian 16, Revision C.01,
 Gaussian 16:  ES64L-G16RevC.01  3-Jul-2019

 ----------------------------------------------------------------------
 #p opt=addgic freq td wb97xd/cc-pvdz nosymm int=ultrafine scrf=(solven
 t=CarbonTetraChloride)
 ----------------------------------------------------------------------

 ------------------------------------------------
 NM 2D-scan of HBT TD-WB97XD pVDZ in CTC Relaxed.
 ------------------------------------------------
 Symbolic Z-matrix:
 Charge =  0 Multiplicity = 1

 SCF Done:  E(RwB97XD) =  -1028.63952804     A.U. after   15 cycles
 Total Energy, E(TD-HF/TD-DFT) =  -1028.50761141
 SCF Done:  E(RwB97XD) =  -1028.78971327     A.U. after   13 cycles
 Total Energy, E(TD-HF/TD-DFT) =  -1028.65962392
 SCF Done:  E(RwB97XD) =  -1028.80189552     A.U. after   15 cycles
 Total Energy, E(TD-HF/TD-DFT) =  -1028.67643375
 SCF Done:  E(RwB97XD) =  -1028.81843478     A.U. after   13 cycles
 Total Energy, E(TD-HF/TD-DFT) =  -1028.69098507
 SCF Done:  E(RwB97XD) =  -1028.81917703     A.U. after   11 cycles
 Total Energy, E(TD-HF/TD-DFT) =  -1028.69112382
 SCF Done:  E(RwB97XD) =  -1028.81934084     A.U. after    9 cycles
 Total Energy, E(TD-HF/TD-DFT) =  -1028.69113133
 Optimization completed.
    -- Stationary point found.
 Normal termination of Gaussian 16 at Mon Jul 13 20:19:56 2020.

 ----------------------------------------------------------------------
 #P Geom=AllCheck Guess=TCheck SCRF=Check GenChk RwB97XD TD(FC,Read)/CC
 -pVDZ Freq
 ----------------------------------------------------------------------

 Structure from the checkpoint file:  "config_1_14.chk"
 ------------------------------------------------
 NM 2D-scan of HBT TD-WB97XD pVDZ in CTC Relaxed.
 ------------------------------------------------
 Charge =  0 Multiplicity = 1

                          Input orientation:
 ---------------------------------------------------------------------
 Center     Atomic      Atomic             Coordinates (Angstroms)
 Number     Number       Type             X           Y           Z
 ---------------------------------------------------------------------
      1          6           0        1.582505   -3.303738   -0.000030
      2          6           0        0.963173   -2.055067   -0.000017
      3          6           0        1.730237   -0.834075   -0.000004
      4          6           0        3.150241   -0.924472   -0.000005
      5          6           0        3.745277   -2.166878   -0.000019
      6          6           0        2.975080   -3.353465   -0.000032
      7          1           0        0.992366   -4.220966   -0.000040
      8          1           0        3.736496   -0.005077    0.000005
      9          1           0        4.834247   -2.241540   -0.000020
     10          1           0        3.478291   -4.321483   -0.000043
     11          7           0        1.034348    0.308123    0.000007
     12         16           0       -0.739441   -1.680267   -0.000012
     13          6           0       -1.294290    1.074816    0.000012
     14          6           0       -2.694860    0.779934    0.000016
     15          6           0       -0.931526    2.502068    0.000025
     16          6           0       -3.640862    1.784724    0.000032
     17          1           0       -3.014862   -0.263253    0.000008
     18          6           0       -1.916554    3.491851    0.000043
     19          6           0       -3.261822    3.148086    0.000047
     20          1           0       -4.700115    1.523278    0.000035
     21          1           0       -1.585291    4.530635    0.000052
     22          1           0       -4.024541    3.927412    0.000061
     23          6           0       -0.308320    0.073420    0.000002
     24          8           0        0.329247    2.910458    0.000014
     25          1           0        0.920987    2.118480   -0.000019
 ---------------------------------------------------------------------

 SCF Done:  E(RwB97XD) =  -1028.81934084     A.U. after    1 cycles

 Excitation energies and oscillator strengths:

 Excited state symmetry could not be determined.
 Excited State   1:      Singlet-?Sym    3.4888 eV  355.38 nm  f=0.7487  <S**2>=0.000
      59 -> 60         0.68926
 This state for optimization and/or second-order correction.
 Total Energy, E(TD-HF/TD-DFT) =  -1028.69113132
 Copying the excited state density for this state as the 1-particle RhoCI density.

 Excited state symmetry could not be determined.
 Excited State   2:      Singlet-?Sym    4.3838 eV  282.82 nm  f=0.1101  <S**2>=0.000
      57 -> 60         0.51231
      58 -> 60         0.41249
      59 -> 62        -0.15835

 Excited state symmetry could not be determined.
 Excited State   3:      Singlet-?Sym    4.5375 eV  273.24 nm  f=0.1030  <S**2>=0.000
      57 -> 60         0.38384
      57 -> 63        -0.10882
      58 -> 60        -0.49470
      59 -> 61         0.21032
      59 -> 62         0.10080

 Alpha  occ. eigenvalues --  -89.08725 -19.29313 -14.47025 -10.39620 -10.38417
 Alpha  occ. eigenvalues --  -10.34836 -10.34606 -10.32885 -10.32422 -10.32107
 Alpha  occ. eigenvalues --  -10.32009 -10.31288 -10.31240 -10.31115 -10.30656
 Alpha  occ. eigenvalues --  -10.30559  -8.10670  -6.05514  -6.05182  -6.04731
 Alpha  occ. eigenvalues --   -1.17635  -1.07913  -0.96787  -0.95617  -0.91674
 Alpha  occ. eigenvalues --   -0.88760  -0.85199  -0.84429  -0.82138  -0.76012
 Alpha  occ. eigenvalues --   -0.71285  -0.70125  -0.69121  -0.68254  -0.63515
 Alpha  occ. eigenvalues --   -0.60151  -0.59029  -0.58492  -0.56118  -0.54475
 Alpha  occ. eigenvalues --   -0.53519  -0.53311  -0.52771  -0.50587  -0.50574
 Alpha  occ. eigenvalues --   -0.49111  -0.47935  -0.45899  -0.45516  -0.44786
 Alpha  occ. eigenvalues --   -0.43937  -0.43007  -0.41986  -0.39867  -0.37685
 Alpha  occ. eigenvalues --   -0.36418  -0.31922  -0.31703  -0.28009
 Alpha virt. eigenvalues --   -0.01901   0.05304   0.06843   0.07067   0.07544
 Alpha virt. eigenvalues --    0.11306   0.13911   0.15185   0.16432   0.18051
 Alpha virt. eigenvalues --    0.18437   0.20641   0.21571   0.22295   0.22834

 Mulliken charges:
               1
     1  C    0.014592
     2  C   -0.212515
     3  C    0.204431
     4  C   -0.017364
     5  C    0.006663
     6  C   -0.008168
     7  H    0.016809
     8  H    0.014338
     9  H    0.017389
    10  H    0.019578
    11  N   -0.347825
    12  S    0.145607
    13  C   -0.067463
    14  C   -0.023597
    15  C    0.072432
    16  C   -0.006546
    17  H    0.020709
    18  C    0.015785
    19  C    0.020865
    20  H    0.012425
    21  H    0.020884
    22  H    0.023566
    23  C    0.076018
    24  O   -0.183182
    25  H    0.164573
 Sum of Mulliken charges =  -0.00000

 Dipole moment (field-independent basis, Debye):
    X=             -0.7182    Y=             -1.6145    Z=             -0.0000  Tot=              1.7670
 Quadrupole moment (field-independent basis, Debye-Ang):
   XX=            -83.1096   YY=            -89.0737   ZZ=           -104.4370
   XY=             -6.8321   XZ=             -0.0002   YZ=              0.0001

  Exact polarizability:     405.064    -199.196     398.306      -0.003       0.003      63.426
 Approx polarizability:     280.327     -37.474     262.872      -0.001       0.002      82.394

                      1                      2                      3
                      A                      A                      A
 Frequencies --     38.2283                73.0528               102.3022
 Red. masses --      6.0262                 5.0893                 5.6250
 Frc consts  --      0.0052                 0.0160                 0.0347
 IR Inten    --      1.1898                 0.0010                 2.0472

                      4                      5                      6
                      A                      A                      A
 Frequencies --    108.6663               182.7787               225.3363
 Red. masses --      5.0735                 6.8808                 5.4556
 Frc consts  --      0.0353                 0.1354                 0.1632
 IR Inten    --      0.3194                 1.2317                 0.0146

                      7                      8                      9
                      A                      A                      A
 Frequencies --    257.5556               270.7056               282.8474
 Red. masses --      8.0647                 4.8343                 6.5269
 Frc consts  --      0.3152                 0.2087                 0.3077
 IR Inten    --     15.0353                 0.0555                13.9876

                     10                     11                     12
                      A                      A                      A
 Frequencies --    395.0036               399.3745               440.1409
 Red. masses --      4.5155                 8.7994                 3.2955
 Frc consts  --      0.4151                 0.8269                 0.3761
 IR Inten    --      0.0679                13.9318                 4.0024

                     13                     14                     15
                      A                      A                      A
 Frequencies --    493.7142               494.5897               505.3020
 Red. masses --      4.3827                 6.4267                 6.0056
 Frc consts  --      0.6294                 0.9262                 0.9035
 IR Inten    --      0.1620                13.1393                13.4977

                     16                     17                     18
                      A                      A                      A
 Frequencies --    510.3230               524.1659               549.4757
 Red. masses --      3.1514                 8.2578                 3.9935
 Frc consts  --      0.4836                 1.3368                 0.7104
 IR Inten    --      0.2862                22.1739                 0.2991

                     19                     20                     21
                      A                      A                      A
 Frequencies --    576.9249               643.8521               670.1601
 Red. masses --      7.7165                 6.5544                10.0969
 Frc consts  --      1.5132                 1.6009                 2.6717
 IR Inten    --     61.6058                 8.6313                60.5025

                     22                     23                     24
                      A                      A                      A
 Frequencies --    710.3835               722.4387               735.0003
 Red. masses --      6.5925                 1.6468                 1.7996
 Frc consts  --      1.9601                 0.5064                 0.5728
 IR Inten    --     11.1894                66.8923                49.4600

                     25                     26                     27
                      A                      A                      A
 Frequencies --    740.5194               772.4496               809.5026
 Red. masses --      1.9172                 2.1814                 6.4005
 Frc consts  --      0.6194                 0.7669                 2.4712
 IR Inten    --      7.2088                47.6444                22.4494

                     28                     29                     30
                      A                      A                      A
 Frequencies --    809.5317               829.3448               860.2146
 Red. masses --      1.4475                 1.2372                 1.4343
 Frc consts  --      0.5589                 0.5014                 0.6253
 IR Inten    --     47.2861                17.6249                 2.0047

                     31                     32                     33
                      A                      A                      A
 Frequencies --    881.4780               925.0350               949.0176
 Red. masses --      6.3387                 1.3440                 7.2513
 Frc consts  --      2.9019                 0.6776                 3.8478
 IR Inten    --     65.1560                 2.0501                 8.4170

                     34                     35                     36
                      A                      A                      A
 Frequencies --    954.0225               970.2773               999.5321
 Red. masses --      1.3430                 1.3404                 1.3044
 Frc consts  --      0.7202                 0.7435                 0.7678
 IR Inten    --      2.0419                 0.0599                 0.0000

                     37                     38                     39
                      A                      A                      A
 Frequencies --   1038.2633              1039.8564              1079.2561
 Red. masses --      2.0980                 2.1687                 4.8814
 Frc consts  --      1.3325                 1.3817                 3.3500
 IR Inten    --      1.2736                 4.9516                36.3914

                     40                     41                     42
                      A                      A                      A
 Frequencies --   1136.6877              1150.1939              1174.4937
 Red. masses --      1.4802                 1.3177                 1.1492
 Frc consts  --      1.1268                 1.0271                 0.9340
 IR Inten    --     44.3936                15.1830                18.4949

                     43                     44                     45
                      A                      A                      A
 Frequencies --   1179.9395              1205.4298              1229.2524
 Red. masses --      1.1904                 5.0405                 1.6643
 Frc consts  --      0.9765                 4.3153                 1.4817
 IR Inten    --     21.2718                40.7237               166.8623

                     46                     47                     48
                      A                      A                      A
 Frequencies --   1275.6741              1304.0749              1356.7521
 Red. masses --      1.6645                 2.7930                 2.9612
 Frc consts  --      1.5959                 2.7985                 3.2116
 IR Inten    --      0.6848               206.4958                79.5381

                     49                     50                     51
                      A                      A                      A
 Frequencies --   1369.8653              1395.1353              1431.8937
 Red. masses --      5.5058                 1.9320                 2.6728
 Frc consts  --      6.0873                 2.2156                 3.2288
 IR Inten    --     21.4961                23.7581               257.2368

                     52                     53                     54
                      A                      A                      A
 Frequencies --   1471.7047              1483.4478              1508.3073
 Red. masses --      3.3791                 1.9792                 4.3913
 Frc consts  --      4.3121                 2.5662                 5.8861
 IR Inten    --     73.0165               183.3241                14.8514

                     55                     56                     57
                      A                      A                      A
 Frequencies --   1541.3155              1569.4740              1581.7150
 Red. masses --      4.8162                 5.5760                 3.4067
 Frc consts  --      6.7412                 8.0925                 5.0216
 IR Inten    --     49.6381               246.3676               373.6905

                     58                     59                     60
                      A                      A                      A
 Frequencies --   1597.9847              1632.8191              1647.0515
 Red. masses --      5.1423                 5.3006                 5.7103
 Frc consts  --      7.7367                 8.3264                 9.1269
 IR Inten    --     94.9814               317.9642               240.4107

                     61                     62                     63
                      A                      A                      A
 Frequencies --   3208.0871              3209.9536              3219.0921
 Red. masses --      1.0862                 1.0860                 1.0898
 Frc consts  --      6.5865                 6.5929                 6.6536
 IR Inten    --      9.7151                 4.6729                 3.7535

                     64                     65                     66
                      A                      A                      A
 Frequencies --   3221.7899              3229.8092              3231.3746
 Red. masses --      1.0892                 1.0946                 1.0956
 Frc consts  --      6.6614                 6.7273                 6.7402
 IR Inten    --      1.2019                16.1713                13.3918

                     67                     68                     69
                      A                      A                      A
 Frequencies --   3237.0362              3241.1925              3324.9675
 Red. masses --      1.0987                 1.0986                 1.0700
 Frc consts  --      6.7829                 6.7999                 6.9699
 IR Inten    --     39.2300                26.3855                 5.4629

 - Thermochemistry -
 -------------------
 Temperature   298.150 Kelvin.  Pressure   1.00000 Atm.
 Atom     1 has atomic number  6 and mass  12.00000

 Molecular mass:   227.04049 amu.
 Principal axes and moments of inertia in atomic units:
                           1         2         3
     Eigenvalues --  1334.318266378.968207713.28647
           X           -0.69525   0.71877   0.00000
           Y            0.71877   0.69525  -0.00001
           Z            0.00001   0.00000   1.00000
 This molecule is an asymmetric top.
 Rotational symmetry number  1.
 Warning -- assumption of classical behavior for rotation
           may cause significant error
 Rotational temperatures (Kelvin)      0.06491     0.01358     0.01123
 Rotational constants (GHZ):           1.35256     0.28292     0.23398
 Zero-point vibrational energy     490092.9 (Joules/Mol)
                                  117.13502 (Kcal/Mol)
 Warning -- explicit consideration of  19 degrees of freedom as
           vibrations may cause significant error
 Vibrational temperatures:     55.00   105.11   147.19   156.35   262.98
          (Kelvin)            324.21   370.57   389.48   406.95   568.32
                              574.61   633.26   710.34   711.60   727.02
                              734.24   754.16   790.57   830.07   926.36
                              964.21  1022.08  1039.43  1057.50  1065.44
                             1111.38  1164.69  1164.74  1193.24  1237.66
                             1268.25  1330.92  1365.42  1372.63  1396.01
                             1438.10  1493.83  1496.12  1552.81  1635.44
                             1654.87  1689.83  1697.67  1734.34  1768.62
                             1835.41  1876.27  1952.06  1970.93  2007.29
                             2060.18  2117.45  2134.35  2170.12  2217.61
                             2258.12  2275.74  2299.14  2349.26  2369.74
                             4615.72  4618.41  4631.56  4635.44  4646.98
                             4649.23  4657.37  4663.35  4783.89

 Zero-point correction=                           0.186667 (Hartree/Particle)
 Thermal correction to Energy=                    0.199049
 Thermal correction to Enthalpy=                  0.199993
 Thermal correction to Gibbs Free Energy=         0.147208
 Sum of electronic and zero-point Energies=          -1028.504465
 Sum of electronic and thermal Energies=             -1028.492082
 Sum of electronic and thermal Enthalpies=           -1028.491138
 Sum of electronic and thermal Free Energies=        -1028.543923

                     E (Thermal)             CV                S
                      KCal/Mol        Cal/Mol-Kelvin    Cal/Mol-Kelvin
 Total                  124.905             49.707            111.095
 Electronic               0.000              0.000              0.000
 Translational            0.889              2.981             42.162
 Rotational               0.889              2.981             32.551
 Vibrational            123.128             43.745             36.382
 Vibration     1          0.594              1.982              5.349
 Vibration     2          0.599              1.967              4.069
 Vibration     3          0.604              1.947              3.410
 Vibration     4          0.606              1.942              3.293
 Vibration     5          0.630              1.863              2.300
 Vibration     6          0.650              1.802              1.916
 Vibration     7          0.667              1.750              1.678
 Vibration     8          0.674              1.727              1.592
 Vibration     9          0.682              1.705              1.516
 Vibration    10          0.762              1.481              0.981
 Vibration    11          0.765              1.471              0.965
 Vibration    12          0.800              1.383              0.826
 Vibration    13          0.849              1.264              0.674
 Vibration    14          0.850              1.262              0.672
 Vibration    15          0.861              1.238              0.645
 Vibration    16          0.865              1.227              0.633
 Vibration    17          0.879              1.196              0.600
 Vibration    18          0.905              1.141              0.545
 Vibration    19          0.933              1.081              0.491

 Optimization completed.
    -- Stationary point found.
 Normal termination of Gaussian 16 at Mon Jul 13 20:37:24 2020.
