 Gaussian 16, Revision C.01,
 Gaussian 16:  ES64L-G16RevC.01  3-Jul-2019

 ----------------------------------------------------------------------
 #p opt=addgic freq td wb97xd/cc-pvdz nosymm int=ultrafine scrf=(solven
 t=CarbonTetraChloride)
 ----------------------------------------------------------------------

 ------------------------------------------------
 NM 2D-scan of HBT TD-WB97XD pVDZ in CTC Relaxed.
 ------------------------------------------------
 Symbolic Z-matrix:
 Charge =  0 Multiplicity = 1

 SCF Done:  E(RwB97XD) =  -1028.20961360     A.U. after   15 cycles
 Total Energy, E(TD-HF/TD-DFT) =  -1028.07899921
 SCF Done:  E(RwB97XD) =  -1028.65334601     A.U. after   13 cycles
 Total Energy, E(TD-HF/TD-DFT) =  -1028.52420048
 SCF Done:  E(RwB97XD) =  -1028.79840009     A.U. after   15 cycles
 Total Energy, E(TD-HF/TD-DFT) =  -1028.67280685
 SCF Done:  E(RwB97XD) =  -1028.80128493     A.U. after   13 cycles
 Total Energy, E(TD-HF/TD-DFT) =  -1028.67505687
 SCF Done:  E(RwB97XD) =  -1028.80186330     A.U. after   11 cycles
 Total Energy, E(TD-HF/TD-DFT) =  -1028.67528426
 SCF Done:  E(RwB97XD) =  -1028.80208100     A.U. after   11 cycles
 Total Energy, E(TD-HF/TD-DFT) =  -1028.67532450
 SCF Done:  E(RwB97XD) =  -1028.80207898     A.U. after    9 cycles
 Total Energy, E(TD-HF/TD-DFT) =  -1028.67532933
 Optimization completed.
    -- Stationary point found.
 Normal termination of Gaussian 16 at Mon Jul 13 20:28:50 2020.

 ----------------------------------------------------------------------
 #P Geom=AllCheck Guess=TCheck SCRF=Check GenChk RwB97XD TD(FC,Read)/CC
 -pVDZ Freq
 ----------------------------------------------------------------------

 Structure from the checkpoint file:  "config_1_2.chk"
 ------------------------------------------------
 NM 2D-scan of HBT TD-WB97XD pVDZ in CTC Relaxed.
 ------------------------------------------------
 Charge =  0 Multiplicity = 1

                          Input orientation:
 ---------------------------------------------------------------------
 Center     Atomic      Atomic             Coordinates (Angstroms)
 Number     Number       Type             X           Y           Z
 ---------------------------------------------------------------------
      1          6           0        1.755380   -3.325495    0.000003
      2          6           0        0.959557   -2.173834   -0.000018
      3          6           0        1.613940   -0.889244   -0.000037
      4          6           0        3.031454   -0.779764   -0.000029
      5          6           0        3.787734   -1.920990   -0.000009
      6          6           0        3.151864   -3.186604    0.000006
      7          1           0        1.312886   -4.322825    0.000017
      8          1           0        3.466356    0.220175   -0.000040
      9          1           0        4.877487   -1.863479   -0.000004
     10          1           0        3.766269   -4.088750    0.000023
     11          7           0        0.862177    0.195148   -0.000055
     12         16           0       -0.790902   -1.915757   -0.000035
     13          6           0       -1.378645    1.017821   -0.000051
     14          6           0       -2.813851    0.913127   -0.000057
     15          6           0       -0.889522    2.432667   -0.000005
     16          6           0       -3.638156    2.022574    0.000025
     17          1           0       -3.259743   -0.083311   -0.000114
     18          6           0       -1.761401    3.522409    0.000101
     19          6           0       -3.126561    3.345221    0.000119
     20          1           0       -4.719353    1.874576    0.000025
     21          1           0       -1.297481    4.508912    0.000152
     22          1           0       -3.798468    4.203655    0.000197
     23          6           0       -0.466349   -0.069810   -0.000054
     24          8           0        0.378321    2.853895   -0.000029
     25          1           0        0.977858    2.095006   -0.000029
 ---------------------------------------------------------------------

 SCF Done:  E(RwB97XD) =  -1028.80207898     A.U. after    1 cycles

 Excitation energies and oscillator strengths:

 Excited state symmetry could not be determined.
 Excited State   1:      Singlet-?Sym    3.4490 eV  359.48 nm  f=0.7500  <S**2>=0.000
      59 -> 60        -0.69085
 This state for optimization and/or second-order correction.
 Total Energy, E(TD-HF/TD-DFT) =  -1028.67532934
 Copying the excited state density for this state as the 1-particle RhoCI density.

 Excited state symmetry could not be determined.
 Excited State   2:      Singlet-?Sym    4.3690 eV  283.78 nm  f=0.1680  <S**2>=0.000
      57 -> 60        -0.30741
      58 -> 60        -0.58058
      58 -> 64        -0.10542
      59 -> 63        -0.16012

 Excited state symmetry could not be determined.
 Excited State   3:      Singlet-?Sym    4.4998 eV  275.53 nm  f=0.0613  <S**2>=0.000
      57 -> 60         0.54283
      57 -> 64        -0.13828
      58 -> 60        -0.29282
      58 -> 61        -0.10572
      59 -> 61         0.24435

 Alpha  occ. eigenvalues --  -89.09137 -19.29365 -14.46565 -10.40001 -10.38586
 Alpha  occ. eigenvalues --  -10.35032 -10.34437 -10.33701 -10.32388 -10.32316
 Alpha  occ. eigenvalues --  -10.31822 -10.31434 -10.31121 -10.31037 -10.30545
 Alpha  occ. eigenvalues --  -10.30188  -8.10865  -6.05740  -6.05409  -6.04906
 Alpha  occ. eigenvalues --   -1.17569  -1.07965  -0.96534  -0.95392  -0.90879
 Alpha  occ. eigenvalues --   -0.88708  -0.85102  -0.84082  -0.82131  -0.76045
 Alpha  occ. eigenvalues --   -0.71130  -0.70083  -0.69111  -0.68000  -0.63192
 Alpha  occ. eigenvalues --   -0.59806  -0.58891  -0.58229  -0.55859  -0.54367
 Alpha  occ. eigenvalues --   -0.53199  -0.53003  -0.52411  -0.50877  -0.50443
 Alpha  occ. eigenvalues --   -0.48830  -0.48098  -0.45714  -0.45374  -0.44632
 Alpha  occ. eigenvalues --   -0.43539  -0.42863  -0.42018  -0.39716  -0.37461
 Alpha  occ. eigenvalues --   -0.36343  -0.32033  -0.31559  -0.27778
 Alpha virt. eigenvalues --   -0.01945   0.05270   0.06527   0.06814   0.07116
 Alpha virt. eigenvalues --    0.11405   0.11979   0.15068   0.15601   0.17405
 Alpha virt. eigenvalues --    0.18575   0.20203   0.21690   0.22203   0.22782

 Mulliken charges:
               1
     1  C   -0.000255
     2  C   -0.209444
     3  C    0.220514
     4  C   -0.014095
     5  C    0.010757
     6  C   -0.012113
     7  H    0.020252
     8  H    0.012744
     9  H    0.017204
    10  H    0.020297
    11  N   -0.319035
    12  S    0.133900
    13  C   -0.090015
    14  C   -0.011451
    15  C    0.079639
    16  C   -0.011368
    17  H    0.011423
    18  C    0.024431
    19  C    0.018438
    20  H    0.012864
    21  H    0.020219
    22  H    0.022157
    23  C    0.062197
    24  O   -0.173257
    25  H    0.153996
 Sum of Mulliken charges =  -0.00000

 Dipole moment (field-independent basis, Debye):
    X=             -0.2056    Y=             -1.2297    Z=              0.0001  Tot=              1.2467
 Quadrupole moment (field-independent basis, Debye-Ang):
   XX=            -82.9939   YY=            -88.7282   ZZ=           -104.6905
   XY=             -6.4349   XZ=             -0.0001   YZ=              0.0005

  Exact polarizability:     413.775    -203.959     409.478      -0.002       0.004      63.757
 Approx polarizability:     284.562     -37.714     267.672      -0.001       0.003      82.628

                      1                      2                      3
                      A                      A                      A
 Frequencies --      6.2463                66.8552                97.8761
 Red. masses --      5.7707                 5.9198                 5.5511
 Frc consts  --      0.0001                 0.0156                 0.0313
 IR Inten    --      0.8063                 0.0000                 1.9778

                      4                      5                      6
                      A                      A                      A
 Frequencies --    107.1616               183.4192               224.8874
 Red. masses --      4.5485                 6.7678                 5.4764
 Frc consts  --      0.0308                 0.1341                 0.1632
 IR Inten    --      0.6671                 0.3595                 0.0027

                      7                      8                      9
                      A                      A                      A
 Frequencies --    236.9823               263.6387               270.2455
 Red. masses --      8.0422                 4.7599                 6.4194
 Frc consts  --      0.2661                 0.1949                 0.2762
 IR Inten    --      9.4121                 0.3825                17.7687

                     10                     11                     12
                      A                      A                      A
 Frequencies --    380.3926               399.1697               437.2291
 Red. masses --      8.2923                 4.7669                 3.2962
 Frc consts  --      0.7070                 0.4475                 0.3713
 IR Inten    --     13.7975                 0.1975                 5.0122

                     13                     14                     15
                      A                      A                      A
 Frequencies --    458.4807               491.1856               493.2503
 Red. masses --      4.5741                 4.1303                 9.2902
 Frc consts  --      0.5665                 0.5871                 1.3317
 IR Inten    --     10.2803                 0.8024                 3.5303

                     16                     17                     18
                      A                      A                      A
 Frequencies --    507.8074               521.1747               538.8687
 Red. masses --      3.1298                 8.3300                 3.4213
 Frc consts  --      0.4755                 1.3331                 0.5853
 IR Inten    --      0.9612                28.8129                 3.8076

                     19                     20                     21
                      A                      A                      A
 Frequencies --    577.1547               621.7016               632.6719
 Red. masses --      7.8541                 7.6789                 1.1494
 Frc consts  --      1.5415                 1.7487                 0.2711
 IR Inten    --    108.0356                41.7052               109.6243

                     22                     23                     24
                      A                      A                      A
 Frequencies --    645.1445               695.1820               728.3154
 Red. masses --      6.7879                 6.7506                 2.0329
 Frc consts  --      1.6646                 1.9222                 0.6353
 IR Inten    --      0.1082                 7.6767                11.2331

                     25                     26                     27
                      A                      A                      A
 Frequencies --    730.7697               747.1341               771.5959
 Red. masses --      2.3824                 1.5204                 2.0377
 Frc consts  --      0.7496                 0.5000                 0.7148
 IR Inten    --     16.9415                33.4830                60.1452

                     28                     29                     30
                      A                      A                      A
 Frequencies --    784.7326               834.3376               856.8616
 Red. masses --      7.0582                 1.5124                 1.4407
 Frc consts  --      2.5609                 0.6203                 0.6232
 IR Inten    --     20.6672                 0.0669                 1.5080

                     31                     32                     33
                      A                      A                      A
 Frequencies --    882.1210               930.3815               934.8372
 Red. masses --      6.3110                 6.9964                 1.3384
 Frc consts  --      2.8934                 3.5682                 0.6891
 IR Inten    --     50.5442                11.7581                 3.1917

                     34                     35                     36
                      A                      A                      A
 Frequencies --    952.0962               971.5570               997.8446
 Red. masses --      1.3457                 1.3339                 1.3033
 Frc consts  --      0.7187                 0.7419                 0.7646
 IR Inten    --      1.9955                 0.0085                 0.0228

                     37                     38                     39
                      A                      A                      A
 Frequencies --   1031.6342              1040.7226              1058.6689
 Red. masses --      2.2046                 2.3561                 5.0687
 Frc consts  --      1.3824                 1.5035                 3.3471
 IR Inten    --      2.0999                 8.4817                18.4240

                     40                     41                     42
                      A                      A                      A
 Frequencies --   1125.0535              1145.7137              1173.2199
 Red. masses --      1.6385                 1.2936                 1.1974
 Frc consts  --      1.2219                 1.0005                 0.9710
 IR Inten    --     19.7314                17.4330                43.0998

                     43                     44                     45
                      A                      A                      A
 Frequencies --   1176.9426              1199.2456              1218.2555
 Red. masses --      1.1874                 1.4586                 3.7691
 Frc consts  --      0.9691                 1.2360                 3.2959
 IR Inten    --      0.8278               243.7734                 1.3977

                     46                     47                     48
                      A                      A                      A
 Frequencies --   1240.0117              1271.0216              1345.2892
 Red. masses --      2.2413                 1.6314                 2.8664
 Frc consts  --      2.0305                 1.5528                 3.0565
 IR Inten    --    244.6756                 5.0101               111.4864

                     49                     50                     51
                      A                      A                      A
 Frequencies --   1359.3688              1378.4791              1411.4341
 Red. masses --      5.2862                 2.1247                 2.1664
 Frc consts  --      5.7553                 2.3788                 2.5428
 IR Inten    --     27.6520               323.3104                53.1006

                     52                     53                     54
                      A                      A                      A
 Frequencies --   1446.9690              1467.4953              1518.9550
 Red. masses --      2.2904                 2.9179                 4.6749
 Frc consts  --      2.8254                 3.7023                 6.3550
 IR Inten    --     30.7838                16.7733                61.6036

                     55                     56                     57
                      A                      A                      A
 Frequencies --   1529.8556              1546.2889              1562.8836
 Red. masses --      5.5118                 5.5827                 4.5968
 Frc consts  --      7.6005                 7.8646                 6.6155
 IR Inten    --    661.4853                44.6102                13.7427

                     58                     59                     60
                      A                      A                      A
 Frequencies --   1593.6008              1645.9138              1657.8954
 Red. masses --      6.1418                 5.6128                 5.9561
 Frc consts  --      9.1898                 8.9587                 9.6455
 IR Inten    --     67.8376               288.5858               233.7010

                     61                     62                     63
                      A                      A                      A
 Frequencies --   3202.0717              3206.1964              3215.0501
 Red. masses --      1.0867                 1.0859                 1.0894
 Frc consts  --      6.5649                 6.5766                 6.6346
 IR Inten    --      2.1812                 3.7629                 4.5455

                     64                     65                     66
                      A                      A                      A
 Frequencies --   3217.1976              3224.9577              3225.9608
 Red. masses --      1.0900                 1.0951                 1.0929
 Frc consts  --      6.6470                 6.7104                 6.7010
 IR Inten    --      4.1783                18.0696                20.4604

                     67                     68                     69
                      A                      A                      A
 Frequencies --   3234.3686              3239.4714              3687.4951
 Red. masses --      1.1002                 1.0995                 1.0667
 Frc consts  --      6.7808                 6.7980                 8.5461
 IR Inten    --     37.9690                26.2623                 0.0022

 - Thermochemistry -
 -------------------
 Temperature   298.150 Kelvin.  Pressure   1.00000 Atm.
 Atom     1 has atomic number  6 and mass  12.00000

 Molecular mass:   227.04049 amu.
 Principal axes and moments of inertia in atomic units:
                           1         2         3
     Eigenvalues --  1408.730886415.887127824.61799
           X           -0.68861   0.72513   0.00000
           Y            0.72513   0.68861  -0.00001
           Z            0.00001   0.00001   1.00000
 This molecule is an asymmetric top.
 Rotational symmetry number  1.
 Warning -- assumption of classical behavior for rotation
           may cause significant error
 Rotational temperatures (Kelvin)      0.06148     0.01350     0.01107
 Rotational constants (GHZ):           1.28111     0.28129     0.23065
 Zero-point vibrational energy     487938.8 (Joules/Mol)
                                  116.62017 (Kcal/Mol)
 Warning -- explicit consideration of  19 degrees of freedom as
           vibrations may cause significant error
 Vibrational temperatures:      8.99    96.19   140.82   154.18   263.90
          (Kelvin)            323.56   340.96   379.32   388.82   547.30
                              574.32   629.08   659.65   706.71   709.68
                              730.62   749.85   775.31   830.40   894.49
                              910.27   928.22  1000.21  1047.88  1051.41
                             1074.96  1110.15  1129.06  1200.43  1232.83
                             1269.18  1338.61  1345.02  1369.85  1397.85
                             1435.68  1484.29  1497.37  1523.19  1618.70
                             1648.43  1688.00  1693.36  1725.45  1752.80
                             1784.10  1828.72  1935.57  1955.83  1983.32
                             2030.74  2081.87  2111.40  2185.44  2201.12
                             2224.76  2248.64  2292.84  2368.10  2385.34
                             4607.07  4613.00  4625.74  4628.83  4639.99
                             4641.44  4653.53  4660.88  5305.48

 Zero-point correction=                           0.185846 (Hartree/Particle)
 Thermal correction to Energy=                    0.198559
 Thermal correction to Enthalpy=                  0.199503
 Thermal correction to Gibbs Free Energy=         0.144440
 Sum of electronic and zero-point Energies=          -1028.489483
 Sum of electronic and thermal Energies=             -1028.476770
 Sum of electronic and thermal Enthalpies=           -1028.475826
 Sum of electronic and thermal Free Energies=        -1028.530889

                     E (Thermal)             CV                S
                      KCal/Mol        Cal/Mol-Kelvin    Cal/Mol-Kelvin
 Total                  124.598             50.593            115.890
 Electronic               0.000              0.000              0.000
 Translational            0.889              2.981             42.162
 Rotational               0.889              2.981             32.625
 Vibrational            122.820             44.631             41.103
 Vibration     1          0.593              1.987              8.946
 Vibration     2          0.598              1.970              4.244
 Vibration     3          0.603              1.951              3.496
 Vibration     4          0.606              1.944              3.320
 Vibration     5          0.631              1.862              2.293
 Vibration     6          0.650              1.803              1.919
 Vibration     7          0.656              1.784              1.825
 Vibration     8          0.670              1.740              1.638
 Vibration     9          0.674              1.728              1.595
 Vibration    10          0.750              1.512              1.038
 Vibration    11          0.765              1.472              0.966
 Vibration    12          0.798              1.389              0.835
 Vibration    13          0.817              1.342              0.771
 Vibration    14          0.847              1.270              0.681
 Vibration    15          0.849              1.265              0.675
 Vibration    16          0.863              1.233              0.639
 Vibration    17          0.876              1.203              0.607
 Vibration    18          0.894              1.164              0.568
 Vibration    19          0.934              1.081              0.491

                           ! Non-Optimized Parameters !
 Normal termination of Gaussian 16 at Mon Jul 13 20:46:13 2020.
