 Gaussian 16, Revision C.01,
 Gaussian 16:  ES64L-G16RevC.01  3-Jul-2019

 ----------------------------------------------------------------------
 #p opt=addgic freq td wb97xd/cc-pvdz nosymm int=ultrafine scrf=(solven
 t=CarbonTetraChloride)
 ----------------------------------------------------------------------

 ------------------------------------------------
 NM 2D-scan of HBT TD-WB97XD pVDZ in CTC Relaxed.
 ------------------------------------------------
 Symbolic Z-matrix:
 Charge =  0 Multiplicity = 1

 SCF Done:  E(RwB97XD) =  -1028.81918467     A.U. after   15 cycles
 Total Energy, E(TD-HF/TD-DFT) =  -1028.68992458
 SCF Done:  E(RwB97XD) =  -1028.82059165     A.U. after   12 cycles
 Total Energy, E(TD-HF/TD-DFT) =  -1028.69239863
 SCF Done:  E(RwB97XD) =  -1028.81994473     A.U. after   12 cycles
 Total Energy, E(TD-HF/TD-DFT) =  -1028.69273390
 SCF Done:  E(RwB97XD) =  -1028.82006056     A.U. after   10 cycles
 Total Energy, E(TD-HF/TD-DFT) =  -1028.69274613
 SCF Done:  E(RwB97XD) =  -1028.82002425     A.U. after    9 cycles
 Total Energy, E(TD-HF/TD-DFT) =  -1028.69275310
 SCF Done:  E(RwB97XD) =  -1028.82005831     A.U. after    8 cycles
 Total Energy, E(TD-HF/TD-DFT) =  -1028.69275509
 SCF Done:  E(RwB97XD) =  -1028.82006463     A.U. after    6 cycles
 Total Energy, E(TD-HF/TD-DFT) =  -1028.69275518
 Optimization completed.
    -- Stationary point found.
 Normal termination of Gaussian 16 at Mon Jul 13 14:10:37 2020.

 ----------------------------------------------------------------------
 #P Geom=AllCheck Guess=TCheck SCRF=Check GenChk RwB97XD TD(FC,Read)/CC
 -pVDZ Freq
 ----------------------------------------------------------------------

 Structure from the checkpoint file:  "config_4_12.chk"
 ------------------------------------------------
 NM 2D-scan of HBT TD-WB97XD pVDZ in CTC Relaxed.
 ------------------------------------------------
 Charge =  0 Multiplicity = 1

                          Input orientation:
 ---------------------------------------------------------------------
 Center     Atomic      Atomic             Coordinates (Angstroms)
 Number     Number       Type             X           Y           Z
 ---------------------------------------------------------------------
      1          6           0        1.605553   -3.270218   -0.000066
      2          6           0        0.989502   -2.022889   -0.000079
      3          6           0        1.738369   -0.803103    0.000007
      4          6           0        3.153923   -0.885103    0.000108
      5          6           0        3.754614   -2.131942    0.000118
      6          6           0        2.996926   -3.320551    0.000032
      7          1           0        1.011094   -4.184636   -0.000130
      8          1           0        3.744637    0.031558    0.000174
      9          1           0        4.844225   -2.197867    0.000194
     10          1           0        3.503246   -4.286711    0.000044
     11          7           0        0.990364    0.318112   -0.000022
     12         16           0       -0.723306   -1.682368   -0.000182
     13          6           0       -1.335480    1.049258   -0.000099
     14          6           0       -2.725628    0.784853   -0.000026
     15          6           0       -0.907583    2.457621   -0.000061
     16          6           0       -3.645629    1.826483    0.000119
     17          1           0       -3.075137   -0.248771   -0.000051
     18          6           0       -1.868399    3.484620    0.000115
     19          6           0       -3.226606    3.175875    0.000206
     20          1           0       -4.712199    1.596106    0.000189
     21          1           0       -1.511960    4.515140    0.000145
     22          1           0       -3.968208    3.975174    0.000330
     23          6           0       -0.344867    0.047430   -0.000133
     24          8           0        0.368395    2.738507   -0.000251
     25          1           0        0.897235    1.828183   -0.000573
 ---------------------------------------------------------------------

 SCF Done:  E(RwB97XD) =  -1028.82006463     A.U. after    1 cycles

 Excitation energies and oscillator strengths:

 Excited state symmetry could not be determined.
 Excited State   1:      Singlet-?Sym    3.4643 eV  357.89 nm  f=0.6403  <S**2>=0.000
      59 -> 60         0.68973
 This state for optimization and/or second-order correction.
 Total Energy, E(TD-HF/TD-DFT) =  -1028.69275513
 Copying the excited state density for this state as the 1-particle RhoCI density.

 Excited state symmetry could not be determined.
 Excited State   2:      Singlet-?Sym    4.3910 eV  282.36 nm  f=0.2360  <S**2>=0.000
      57 -> 60         0.22795
      58 -> 60         0.62543
      59 -> 62         0.11538
      59 -> 63         0.10749

 Excited state symmetry could not be determined.
 Excited State   3:      Singlet-?Sym    4.6361 eV  267.43 nm  f=0.0710  <S**2>=0.000
      57 -> 60         0.57558
      57 -> 62        -0.14207
      58 -> 60        -0.22423
      58 -> 61        -0.13753
      59 -> 61         0.22200

 Alpha  occ. eigenvalues --  -89.09042 -19.27641 -14.47488 -10.39870 -10.37949
 Alpha  occ. eigenvalues --  -10.35329 -10.34793 -10.32266 -10.32223 -10.32206
 Alpha  occ. eigenvalues --  -10.31953 -10.31629 -10.31470 -10.31410 -10.30387
 Alpha  occ. eigenvalues --  -10.30290  -8.11046  -6.05890  -6.05548  -6.05106
 Alpha  occ. eigenvalues --   -1.16517  -1.08512  -0.96795  -0.95762  -0.92066
 Alpha  occ. eigenvalues --   -0.88831  -0.85071  -0.84369  -0.82393  -0.75936
 Alpha  occ. eigenvalues --   -0.71167  -0.70310  -0.69131  -0.68153  -0.63551
 Alpha  occ. eigenvalues --   -0.60535  -0.58932  -0.58631  -0.55847  -0.54419
 Alpha  occ. eigenvalues --   -0.53993  -0.53175  -0.53040  -0.50822  -0.50293
 Alpha  occ. eigenvalues --   -0.49486  -0.47418  -0.45993  -0.45627  -0.44803
 Alpha  occ. eigenvalues --   -0.44040  -0.42823  -0.42428  -0.40151  -0.37010
 Alpha  occ. eigenvalues --   -0.36479  -0.32185  -0.31397  -0.28040
 Alpha virt. eigenvalues --   -0.01759   0.05025   0.06898   0.07302   0.07536
 Alpha virt. eigenvalues --    0.11014   0.14205   0.15152   0.16522   0.18025
 Alpha virt. eigenvalues --    0.18610   0.21106   0.21648   0.22390   0.22607

 Mulliken charges:
               1
     1  C    0.017641
     2  C   -0.224257
     3  C    0.236176
     4  C   -0.018538
     5  C    0.006821
     6  C   -0.004597
     7  H    0.017978
     8  H    0.018812
     9  H    0.019604
    10  H    0.020799
    11  N   -0.361464
    12  S    0.162980
    13  C   -0.087231
    14  C   -0.023225
    15  C    0.096830
    16  C   -0.014973
    17  H    0.016459
    18  C    0.001249
    19  C    0.023922
    20  H    0.010378
    21  H    0.017706
    22  H    0.022520
    23  C    0.084169
    24  O   -0.231548
    25  H    0.191790
 Sum of Mulliken charges =  -0.00000

 Dipole moment (field-independent basis, Debye):
    X=             -0.3683    Y=             -2.4106    Z=             -0.0002  Tot=              2.4386
 Quadrupole moment (field-independent basis, Debye-Ang):
   XX=            -83.2290   YY=            -89.7603   ZZ=           -104.3128
   XY=             -7.0548   XZ=             -0.0006   YZ=              0.0006

  Exact polarizability:     391.659    -180.312     368.071      -0.001       0.006      63.337
 Approx polarizability:     276.861     -35.690     259.729       0.001       0.005      82.356

                      1                      2                      3
                      A                      A                      A
 Frequencies --     45.0968                55.5790               107.8651
 Red. masses --      5.7301                 6.3207                 5.5261
 Frc consts  --      0.0069                 0.0115                 0.0379
 IR Inten    --      1.4267                 0.1163                 1.2594

                      4                      5                      6
                      A                      A                      A
 Frequencies --    108.2581               177.3203               223.0817
 Red. masses --      4.9946                 6.3210                 5.3457
 Frc consts  --      0.0345                 0.1171                 0.1567
 IR Inten    --      0.1131                 1.1576                 0.0070

                      7                      8                      9
                      A                      A                      A
 Frequencies --    270.7573               272.1784               304.1196
 Red. masses --      7.5677                 4.8097                 6.2456
 Frc consts  --      0.3269                 0.2099                 0.3403
 IR Inten    --     27.0861                 0.0639                 6.3735

                     10                     11                     12
                      A                      A                      A
 Frequencies --    384.7329               407.5080               439.1532
 Red. masses --      4.6492                 9.4813                 3.2351
 Frc consts  --      0.4055                 0.9277                 0.3676
 IR Inten    --      0.1094                11.7818                 4.2437

                     13                     14                     15
                      A                      A                      A
 Frequencies --    486.1942               502.4083               502.5960
 Red. masses --      4.6589                 7.6600                 3.1665
 Frc consts  --      0.6489                 1.1392                 0.4713
 IR Inten    --      0.0672                 2.9545                 0.0279

                     16                     17                     18
                      A                      A                      A
 Frequencies --    510.7614               529.5953               555.3459
 Red. masses --      4.8663                 8.0395                 3.9507
 Frc consts  --      0.7480                 1.3285                 0.7179
 IR Inten    --     12.9731                41.8101                 0.1352

                     19                     20                     21
                      A                      A                      A
 Frequencies --    577.3882               640.9203               710.3402
 Red. masses --      7.6274                 6.6545                 7.2524
 Frc consts  --      1.4982                 1.6105                 2.1561
 IR Inten    --     15.6563                40.5047                 6.6557

                     22                     23                     24
                      A                      A                      A
 Frequencies --    711.7002               726.7892               739.1884
 Red. masses --      1.6718                 9.2076                 1.8768
 Frc consts  --      0.4989                 2.8656                 0.6042
 IR Inten    --     47.5973                30.7215                32.3357

                     25                     26                     27
                      A                      A                      A
 Frequencies --    751.0856               769.7400               814.3816
 Red. masses --      1.8871                 2.0813                 1.7036
 Frc consts  --      0.6272                 0.7266                 0.6657
 IR Inten    --     23.9150                51.9079                 0.7169

                     28                     29                     30
                      A                      A                      A
 Frequencies --    821.3205               860.9413               895.0228
 Red. masses --      6.2419                 1.4184                 6.4714
 Frc consts  --      2.4808                 0.6194                 3.0543
 IR Inten    --     10.9689                 0.9342                60.0643

                     31                     32                     33
                      A                      A                      A
 Frequencies --    913.2173               953.0296               963.6295
 Red. masses --      1.3531                 1.3451                 1.3668
 Frc consts  --      0.6648                 0.7198                 0.7478
 IR Inten    --      5.2543                 1.8755                 0.1128

                     34                     35                     36
                      A                      A                      A
 Frequencies --    972.3468               999.3000              1038.2438
 Red. masses --      7.2543                 1.3000                 2.1406
 Frc consts  --      4.0410                 0.7649                 1.3595
 IR Inten    --      4.9669                 0.0051                 1.5605

                     37                     38                     39
                      A                      A                      A
 Frequencies --   1044.5769              1082.3878              1096.8842
 Red. masses --      2.1133                 4.1740                 1.0574
 Frc consts  --      1.3586                 2.8812                 0.7496
 IR Inten    --      0.9135                68.0197                66.3833

                     40                     41                     42
                      A                      A                      A
 Frequencies --   1132.7057              1148.9025              1173.9395
 Red. masses --      1.4893                 1.3495                 1.1350
 Frc consts  --      1.1258                 1.0496                 0.9216
 IR Inten    --     64.9319                14.7571                14.0131

                     43                     44                     45
                      A                      A                      A
 Frequencies --   1178.6350              1239.4679              1248.1297
 Red. masses --      1.2065                 3.1964                 2.1450
 Frc consts  --      0.9875                 2.8933                 1.9688
 IR Inten    --     34.7022                53.2669               132.7601

                     46                     47                     48
                      A                      A                      A
 Frequencies --   1283.4831              1301.4957              1368.7857
 Red. masses --      1.7563                 3.8356                 2.5727
 Frc consts  --      1.7047                 3.8280                 2.8399
 IR Inten    --      1.6568               206.6378                14.8662

                     49                     50                     51
                      A                      A                      A
 Frequencies --   1373.0827              1402.0987              1442.4713
 Red. masses --      5.1390                 2.2507                 2.5674
 Frc consts  --      5.7085                 2.6069                 3.1474
 IR Inten    --    140.9119                 2.8747               155.9159

                     52                     53                     54
                      A                      A                      A
 Frequencies --   1471.5887              1495.7369              1534.8279
 Red. masses --      3.8511                 3.4229                 4.5315
 Frc consts  --      4.9138                 4.5119                 6.2894
 IR Inten    --     35.9131                51.6860               199.4639

                     55                     56                     57
                      A                      A                      A
 Frequencies --   1541.8164              1571.5192              1596.7233
 Red. masses --      4.0014                 6.8683                 4.4637
 Frc consts  --      5.6044                 9.9940                 6.7051
 IR Inten    --     37.3212               466.7984                 0.9013

                     58                     59                     60
                      A                      A                      A
 Frequencies --   1612.2634              1645.3438              1673.8536
 Red. masses --      5.7250                 5.3891                 1.5018
 Frc consts  --      8.7679                 8.5957                 2.4791
 IR Inten    --    678.6047               443.2946               226.7212

                     61                     62                     63
                      A                      A                      A
 Frequencies --   2186.8942              3207.7234              3210.4133
 Red. masses --      1.1257                 1.0862                 1.0864
 Frc consts  --      3.1720                 6.5850                 6.5971
 IR Inten    --    333.5977                 9.5015                 7.4520

                     64                     65                     66
                      A                      A                      A
 Frequencies --   3218.7454              3221.4163              3228.9756
 Red. masses --      1.0899                 1.0890                 1.0942
 Frc consts  --      6.6529                 6.6584                 6.7215
 IR Inten    --      2.8297                 3.4466                15.3793

                     67                     68                     69
                      A                      A                      A
 Frequencies --   3230.4584              3236.5025              3240.6639
 Red. masses --      1.0952                 1.0991                 1.0983
 Frc consts  --      6.7342                 6.7830                 6.7959
 IR Inten    --     10.3559                38.0713                24.4762

 - Thermochemistry -
 -------------------
 Temperature   298.150 Kelvin.  Pressure   1.00000 Atm.
 Atom     1 has atomic number  6 and mass  12.00000

 Molecular mass:   227.04049 amu.
 Principal axes and moments of inertia in atomic units:
                           1         2         3
     Eigenvalues --  1305.806986317.789867623.59681
           X           -0.70242   0.71176  -0.00001
           Y            0.71176   0.70242  -0.00002
           Z            0.00001   0.00002   1.00000
 This molecule is an asymmetric top.
 Rotational symmetry number  1.
 Warning -- assumption of classical behavior for rotation
           may cause significant error
 Rotational temperatures (Kelvin)      0.06633     0.01371     0.01136
 Rotational constants (GHZ):           1.38209     0.28566     0.23673
 Zero-point vibrational energy     486782.3 (Joules/Mol)
                                  116.34377 (Kcal/Mol)
 Warning -- explicit consideration of  19 degrees of freedom as
           vibrations may cause significant error
 Vibrational temperatures:     64.88    79.97   155.19   155.76   255.12
          (Kelvin)            320.96   389.56   391.60   437.56   553.54
                              586.31   631.84   699.52   722.85   723.12
                              734.87   761.97   799.02   830.73   922.14
                             1022.02  1023.98  1045.69  1063.53  1080.64
                             1107.48  1171.71  1181.70  1238.70  1287.74
                             1313.92  1371.20  1386.45  1398.99  1437.77
                             1493.80  1502.91  1557.31  1578.17  1629.71
                             1653.01  1689.04  1695.79  1783.32  1795.78
                             1846.65  1872.56  1969.38  1975.56  2017.31
                             2075.39  2117.29  2152.03  2208.28  2218.33
                             2261.07  2297.33  2319.69  2367.28  2408.30
                             3146.45  4615.20  4619.07  4631.06  4634.90
                             4645.78  4647.91  4656.61  4662.59

 Zero-point correction=                           0.185406 (Hartree/Particle)
 Thermal correction to Energy=                    0.197681
 Thermal correction to Enthalpy=                  0.198625
 Thermal correction to Gibbs Free Energy=         0.145983
 Sum of electronic and zero-point Energies=          -1028.507350
 Sum of electronic and thermal Energies=             -1028.495074
 Sum of electronic and thermal Enthalpies=           -1028.494130
 Sum of electronic and thermal Free Energies=        -1028.546772

                     E (Thermal)             CV                S
                      KCal/Mol        Cal/Mol-Kelvin    Cal/Mol-Kelvin
 Total                  124.047             49.099            110.795
 Electronic               0.000              0.000              0.000
 Translational            0.889              2.981             42.162
 Rotational               0.889              2.981             32.509
 Vibrational            122.269             43.138             36.125
 Vibration     1          0.595              1.979              5.022
 Vibration     2          0.596              1.975              4.608
 Vibration     3          0.606              1.943              3.307
 Vibration     4          0.606              1.943              3.300
 Vibration     5          0.628              1.870              2.356
 Vibration     6          0.649              1.806              1.934
 Vibration     7          0.674              1.727              1.591
 Vibration     8          0.675              1.725              1.582
 Vibration     9          0.695              1.666              1.394
 Vibration    10          0.754              1.503              1.020
 Vibration    11          0.772              1.454              0.935
 Vibration    12          0.799              1.385              0.829
 Vibration    13          0.842              1.281              0.694
 Vibration    14          0.858              1.245              0.652
 Vibration    15          0.858              1.244              0.652
 Vibration    16          0.866              1.226              0.632
 Vibration    17          0.885              1.185              0.588
 Vibration    18          0.911              1.128              0.533
 Vibration    19          0.934              1.080              0.490

 Optimization completed.
    -- Stationary point found.
 Normal termination of Gaussian 16 at Mon Jul 13 14:28:15 2020.
