 Gaussian 16, Revision C.01,
 Gaussian 16:  ES64L-G16RevC.01  3-Jul-2019

 ----------------------------------------------------------------------
 #p opt=addgic freq td wb97xd/cc-pvdz nosymm int=ultrafine scrf=(solven
 t=CarbonTetraChloride)
 ----------------------------------------------------------------------

 ------------------------------------------------
 NM 2D-scan of HBT TD-WB97XD pVDZ in CTC Relaxed.
 ------------------------------------------------
 Symbolic Z-matrix:
 Charge =  0 Multiplicity = 1

 SCF Done:  E(RwB97XD) =  -1028.81221394     A.U. after   15 cycles
 Total Energy, E(TD-HF/TD-DFT) =  -1028.68885711
 SCF Done:  E(RwB97XD) =  -1028.81262597     A.U. after   11 cycles
 Total Energy, E(TD-HF/TD-DFT) =  -1028.68890882
 SCF Done:  E(RwB97XD) =  -1028.81241811     A.U. after   11 cycles
 Total Energy, E(TD-HF/TD-DFT) =  -1028.68894956
 SCF Done:  E(RwB97XD) =  -1028.81241439     A.U. after    9 cycles
 Total Energy, E(TD-HF/TD-DFT) =  -1028.68899083
 SCF Done:  E(RwB97XD) =  -1028.81234269     A.U. after    9 cycles
 Total Energy, E(TD-HF/TD-DFT) =  -1028.68899230
 SCF Done:  E(RwB97XD) =  -1028.81231749     A.U. after    9 cycles
 Total Energy, E(TD-HF/TD-DFT) =  -1028.68899261
 Optimization completed.
    -- Stationary point found.
 Normal termination of Gaussian 16 at Mon Jul 13 15:04:28 2020.

 ----------------------------------------------------------------------
 #P Geom=AllCheck Guess=TCheck SCRF=Check GenChk RwB97XD TD(FC,Read)/CC
 -pVDZ Freq
 ----------------------------------------------------------------------

 Structure from the checkpoint file:  "config_6_2.chk"
 ------------------------------------------------
 NM 2D-scan of HBT TD-WB97XD pVDZ in CTC Relaxed.
 ------------------------------------------------
 Charge =  0 Multiplicity = 1

                          Input orientation:
 ---------------------------------------------------------------------
 Center     Atomic      Atomic             Coordinates (Angstroms)
 Number     Number       Type             X           Y           Z
 ---------------------------------------------------------------------
      1          6           0        1.748408   -3.271275   -0.000082
      2          6           0        1.001144   -2.094000   -0.000102
      3          6           0        1.658330   -0.831074    0.000029
      4          6           0        3.068141   -0.754588    0.000183
      5          6           0        3.793553   -1.929189    0.000199
      6          6           0        3.143675   -3.178201    0.000067
      7          1           0        1.261388   -4.247260   -0.000177
      8          1           0        3.548504    0.224397    0.000281
      9          1           0        4.884330   -1.891349    0.000314
     10          1           0        3.737454   -4.093388    0.000083
     11          7           0        0.841155    0.229178   -0.000012
     12         16           0       -0.750544   -1.848777   -0.000256
     13          6           0       -1.417613    0.998414   -0.000156
     14          6           0       -2.823452    0.894227   -0.000046
     15          6           0       -0.865670    2.384410   -0.000144
     16          6           0       -3.638880    2.032753    0.000181
     17          1           0       -3.285878   -0.094434   -0.000070
     18          6           0       -1.725971    3.501411    0.000133
     19          6           0       -3.103850    3.337930    0.000304
     20          1           0       -4.722234    1.900776    0.000295
     21          1           0       -1.253847    4.484363    0.000150
     22          1           0       -3.765370    4.204249    0.000497
     23          6           0       -0.480629   -0.075517   -0.000194
     24          8           0        0.413557    2.600007   -0.000481
     25          1           0        0.878920    1.593437   -0.000911
 ---------------------------------------------------------------------

 SCF Done:  E(RwB97XD) =  -1028.81231749     A.U. after    1 cycles

 Excitation energies and oscillator strengths:

 Excited state symmetry could not be determined.
 Excited State   1:      Singlet-?Sym    3.3558 eV  369.46 nm  f=0.5525  <S**2>=0.000
      59 -> 60         0.69213
 This state for optimization and/or second-order correction.
 Total Energy, E(TD-HF/TD-DFT) =  -1028.68899263
 Copying the excited state density for this state as the 1-particle RhoCI density.

 Excited state symmetry could not be determined.
 Excited State   2:      Singlet-?Sym    4.3844 eV  282.78 nm  f=0.3647  <S**2>=0.000
      57 -> 60         0.13892
      58 -> 60         0.65882
      59 -> 62        -0.10219
      59 -> 64        -0.11152

 Excited state symmetry could not be determined.
 Excited State   3:      Singlet-?Sym    4.6833 eV  264.74 nm  f=0.0352  <S**2>=0.000
      55 -> 61        -0.11124
      57 -> 60         0.58015
      57 -> 62        -0.14920
      58 -> 60        -0.13559
      58 -> 61        -0.18681
      59 -> 61        -0.24264

 Alpha  occ. eigenvalues --  -89.09703 -19.26171 -14.47812 -10.40598 -10.37619
 Alpha  occ. eigenvalues --  -10.35461 -10.35327 -10.32648 -10.32449 -10.32091
 Alpha  occ. eigenvalues --  -10.31776 -10.31735 -10.31648 -10.31581 -10.30037
 Alpha  occ. eigenvalues --  -10.29679  -8.11574  -6.06443  -6.06090  -6.05617
 Alpha  occ. eigenvalues --   -1.15498  -1.09156  -0.96954  -0.95339  -0.91925
 Alpha  occ. eigenvalues --   -0.88885  -0.85153  -0.84041  -0.82316  -0.75935
 Alpha  occ. eigenvalues --   -0.71147  -0.70340  -0.68762  -0.68398  -0.63367
 Alpha  occ. eigenvalues --   -0.60668  -0.58984  -0.58243  -0.55553  -0.54311
 Alpha  occ. eigenvalues --   -0.54258  -0.53218  -0.52560  -0.51248  -0.49898
 Alpha  occ. eigenvalues --   -0.49774  -0.47489  -0.46138  -0.45517  -0.44843
 Alpha  occ. eigenvalues --   -0.43831  -0.42760  -0.42419  -0.40339  -0.36522
 Alpha  occ. eigenvalues --   -0.35948  -0.32598  -0.31159  -0.27661
 Alpha virt. eigenvalues --   -0.01775   0.04716   0.06898   0.06976   0.07687
 Alpha virt. eigenvalues --    0.10777   0.12816   0.15028   0.15929   0.17865
 Alpha virt. eigenvalues --    0.18778   0.20840   0.21670   0.22375   0.22476

 Mulliken charges:
               1
     1  C    0.009533
     2  C   -0.234763
     3  C    0.268793
     4  C   -0.015214
     5  C    0.010874
     6  C   -0.005524
     7  H    0.021311
     8  H    0.022378
     9  H    0.021372
    10  H    0.022485
    11  N   -0.328063
    12  S    0.168976
    13  C   -0.115669
    14  C   -0.016608
    15  C    0.109720
    16  C   -0.024723
    17  H    0.007035
    18  C   -0.000437
    19  C    0.026780
    20  H    0.008774
    21  H    0.013756
    22  H    0.020135
    23  C    0.078782
    24  O   -0.273086
    25  H    0.203381
 Sum of Mulliken charges =  -0.00000

 Dipole moment (field-independent basis, Debye):
    X=              0.2709    Y=             -2.8640    Z=             -0.0002  Tot=              2.8768
 Quadrupole moment (field-independent basis, Debye-Ang):
   XX=            -83.3318   YY=            -90.2184   ZZ=           -104.3993
   XY=             -6.9022   XZ=             -0.0006   YZ=              0.0016

  Exact polarizability:     380.013    -162.042     345.991      -0.002       0.008      63.447
 Approx polarizability:     277.291     -35.565     262.433       0.001       0.008      82.441

 ******    2 imaginary frequencies (negative Signs) ******

                      1                      2                      3
                      A                      A                      A
 Frequencies --   -250.3063               -30.5468                43.5585
 Red. masses --      2.0528                 7.1785                 6.4586
 Frc consts  --      0.0758                 0.0039                 0.0072
 IR Inten    --    171.9344                 0.1808                 1.3990

                      4                      5                      6
                      A                      A                      A
 Frequencies --    103.9418               165.7463               175.4980
 Red. masses --      4.4611                 5.1610                 5.8592
 Frc consts  --      0.0284                 0.0835                 0.1063
 IR Inten    --      0.1026                31.6051                 0.6246

                      7                      8                      9
                      A                      A                      A
 Frequencies --    222.3662               268.6687               269.2411
 Red. masses --      5.3165                 4.7807                 7.5160
 Frc consts  --      0.1549                 0.2033                 0.3210
 IR Inten    --      0.0515                 0.2230                17.6681

                     10                     11                     12
                      A                      A                      A
 Frequencies --    379.6332               392.8467               428.2600
 Red. masses --      4.8765                 7.2077                 5.3468
 Frc consts  --      0.4141                 0.6554                 0.5778
 IR Inten    --      0.4213                 4.1278                10.9574

                     13                     14                     15
                      A                      A                      A
 Frequencies --    436.9260               481.8864               494.8878
 Red. masses --      3.2095                 4.7346                 3.1684
 Frc consts  --      0.3610                 0.6478                 0.4572
 IR Inten    --      5.0684                 0.0030                 0.2537

                     16                     17                     18
                      A                      A                      A
 Frequencies --    503.9274               533.0356               554.2891
 Red. masses --      8.8721                 8.3215                 3.9102
 Frc consts  --      1.3274                 1.3930                 0.7078
 IR Inten    --      0.1544                15.1626                 0.2181

                     19                     20                     21
                      A                      A                      A
 Frequencies --    580.0025               629.0174               697.2824
 Red. masses --      7.4745                 7.0766                 6.8365
 Frc consts  --      1.4815                 1.6497                 1.9584
 IR Inten    --      0.7287                32.1643                 0.3591

                     22                     23                     24
                      A                      A                      A
 Frequencies --    700.0631               733.4497               737.7715
 Red. masses --      1.7123                 9.4463                 2.0202
 Frc consts  --      0.4944                 2.9940                 0.6479
 IR Inten    --     39.1079                13.6016                22.3964

                     25                     26                     27
                      A                      A                      A
 Frequencies --    761.0206               767.6018               807.6977
 Red. masses --      1.9332                 1.9080                 6.0688
 Frc consts  --      0.6597                 0.6624                 2.3326
 IR Inten    --     26.6696                60.5170                31.5693

                     28                     29                     30
                      A                      A                      A
 Frequencies --    825.0552               859.0207               882.5037
 Red. masses --      1.5923                 1.4163                 4.0058
 Frc consts  --      0.6386                 0.6157                 1.8381
 IR Inten    --      0.0048                 1.0040               226.8547

                     31                     32                     33
                      A                      A                      A
 Frequencies --    912.9008               925.3983               952.1516
 Red. masses --      1.3640                 4.9353                 1.3454
 Frc consts  --      0.6698                 2.4901                 0.7186
 IR Inten    --      5.3837                28.2288                 1.6437

                     34                     35                     36
                      A                      A                      A
 Frequencies --    958.8321               997.5215               999.0999
 Red. masses --      1.3774                 5.4622                 1.2955
 Frc consts  --      0.7461                 3.2023                 0.7619
 IR Inten    --      0.6521                 3.7010                 0.0119

                     37                     38                     39
                      A                      A                      A
 Frequencies --   1038.0730              1046.4166              1079.2480
 Red. masses --      2.2170                 1.9787                 5.0247
 Frc consts  --      1.4076                 1.2765                 3.4483
 IR Inten    --      0.6648                 4.0152                56.7347

                     40                     41                     42
                      A                      A                      A
 Frequencies --   1135.1430              1150.1702              1172.1131
 Red. masses --      1.3856                 1.3194                 1.1636
 Frc consts  --      1.0520                 1.0284                 0.9419
 IR Inten    --     55.8829                17.4011                83.1656

                     43                     44                     45
                      A                      A                      A
 Frequencies --   1177.6572              1195.0151              1250.9174
 Red. masses --      1.1573                 1.0566                 1.9039
 Frc consts  --      0.9457                 0.8890                 1.7553
 IR Inten    --     60.9305                63.3928               127.9168

                     46                     47                     48
                      A                      A                      A
 Frequencies --   1257.6229              1287.9592              1351.8549
 Red. masses --      3.6847                 1.8509                 2.7877
 Frc consts  --      3.4336                 1.8090                 3.0016
 IR Inten    --     28.4964                13.1237               125.8967

                     49                     50                     51
                      A                      A                      A
 Frequencies --   1372.7017              1402.8017              1418.8674
 Red. masses --      5.8979                 2.1332                 2.6528
 Frc consts  --      6.5479                 2.4733                 3.1466
 IR Inten    --    202.6680                 3.6326                74.3804

                     52                     53                     54
                      A                      A                      A
 Frequencies --   1449.0008              1478.3995              1505.3304
 Red. masses --      3.3078                 3.3158                 4.9102
 Frc consts  --      4.0919                 4.2699                 6.5556
 IR Inten    --    320.1021               301.1554               492.7702

                     55                     56                     57
                      A                      A                      A
 Frequencies --   1538.2817              1544.7559              1557.7660
 Red. masses --      4.6676                 5.2486                 4.3841
 Frc consts  --      6.5075                 7.3793                 6.2680
 IR Inten    --    117.3781                51.0114               386.5419

                     58                     59                     60
                      A                      A                      A
 Frequencies --   1618.3498              1649.8294              1659.3453
 Red. masses --      6.0696                 5.5497                 5.1226
 Frc consts  --      9.3660                 8.9002                 8.3103
 IR Inten    --    165.8293               877.9171               105.7484

                     61                     62                     63
                      A                      A                      A
 Frequencies --   1865.6742              3204.2205              3208.0150
 Red. masses --      1.1046                 1.0872                 1.0859
 Frc consts  --      2.2654                 6.5765                 6.5842
 IR Inten    --    143.0239                11.5096                 7.0708

                     64                     65                     66
                      A                      A                      A
 Frequencies --   3217.4744              3217.5395              3226.1734
 Red. masses --      1.0897                 1.0899                 1.0924
 Frc consts  --      6.6461                 6.6479                 6.6987
 IR Inten    --      2.7359                 3.4375                19.0289

                     67                     68                     69
                      A                      A                      A
 Frequencies --   3228.2122              3235.5707              3239.4094
 Red. masses --      1.0954                 1.0994                 1.0987
 Frc consts  --      6.7260                 6.7811                 6.7928
 IR Inten    --     10.9270                30.9403                15.6732

 - Thermochemistry -
 -------------------
 Temperature   298.150 Kelvin.  Pressure   1.00000 Atm.
 Atom     1 has atomic number  6 and mass  12.00000

 Molecular mass:   227.04049 amu.
 Principal axes and moments of inertia in atomic units:
                           1         2         3
     Eigenvalues --  1339.085676318.227807657.31339
           X           -0.70135   0.71282  -0.00001
           Y            0.71282   0.70135  -0.00002
           Z            0.00000   0.00002   1.00000
 This molecule is an asymmetric top.
 Rotational symmetry number  1.
 Warning -- assumption of classical behavior for rotation
           may cause significant error
 Rotational temperatures (Kelvin)      0.06468     0.01371     0.01131
 Rotational constants (GHZ):           1.34774     0.28564     0.23569
    2 imaginary frequencies ignored.
 Zero-point vibrational energy     479469.3 (Joules/Mol)
                                  114.59592 (Kcal/Mol)
 Warning -- explicit consideration of  17 degrees of freedom as
           vibrations may cause significant error
 Vibrational temperatures:     62.67   149.55   238.47   252.50   319.94
          (Kelvin)            386.55   387.38   546.21   565.22   616.17
                              628.64   693.33   712.03   725.04   766.92
                              797.50   834.49   905.02  1003.23  1007.23
                             1055.27  1061.49  1094.94  1104.41  1162.10
                             1187.07  1235.94  1269.73  1313.46  1331.44
                             1369.93  1379.55  1435.21  1437.48  1493.56
                             1505.56  1552.80  1633.22  1654.84  1686.41
                             1694.39  1719.36  1799.79  1809.44  1853.09
                             1945.02  1975.01  2018.32  2041.43  2084.79
                             2127.09  2165.83  2213.24  2222.56  2241.28
                             2328.44  2373.74  2387.43  2684.29  4610.16
                             4615.62  4629.23  4629.32  4641.74  4644.68
                             4655.26  4660.79

 Zero-point correction=                           0.182620 (Hartree/Particle)
 Thermal correction to Energy=                    0.193715
 Thermal correction to Enthalpy=                  0.194659
 Thermal correction to Gibbs Free Energy=         0.144933
 Sum of electronic and zero-point Energies=          -1028.506372
 Sum of electronic and thermal Energies=             -1028.495278
 Sum of electronic and thermal Enthalpies=           -1028.494334
 Sum of electronic and thermal Free Energies=        -1028.544060

                     E (Thermal)             CV                S
                      KCal/Mol        Cal/Mol-Kelvin    Cal/Mol-Kelvin
 Total                  121.558             46.003            104.657
 Electronic               0.000              0.000              0.000
 Translational            0.889              2.981             42.162
 Rotational               0.889              2.981             32.538
 Vibrational            119.780             40.041             29.957
 Vibration     1          0.595              1.980              5.090
 Vibration     2          0.605              1.946              3.379
 Vibration     3          0.624              1.885              2.483
 Vibration     4          0.627              1.873              2.376
 Vibration     5          0.648              1.807              1.940
 Vibration     6          0.673              1.731              1.605
 Vibration     7          0.674              1.730              1.601
 Vibration     8          0.750              1.514              1.041
 Vibration     9          0.760              1.485              0.989
 Vibration    10          0.790              1.409              0.864
 Vibration    11          0.797              1.390              0.836
 Vibration    12          0.838              1.290              0.705
 Vibration    13          0.850              1.261              0.671
 Vibration    14          0.859              1.241              0.648
 Vibration    15          0.888              1.177              0.580
 Vibration    16          0.910              1.130              0.535
 Vibration    17          0.937              1.075              0.485

 Optimization completed.
    -- Stationary point found.
 Normal termination of Gaussian 16 at Mon Jul 13 15:21:56 2020.
