 Gaussian 16, Revision C.01,
 Gaussian 16:  ES64L-G16RevC.01  3-Jul-2019

 ----------------------------------------------------------------------
 #p opt=addgic freq td wb97xd/cc-pvdz nosymm int=ultrafine scrf=(solven
 t=CarbonTetraChloride)
 ----------------------------------------------------------------------

 ------------------------------------------------
 NM 2D-scan of HBT TD-WB97XD pVDZ in CTC Relaxed.
 ------------------------------------------------
 Symbolic Z-matrix:
 Charge =  0 Multiplicity = 1

 SCF Done:  E(RwB97XD) =  -1028.42161149     A.U. after   16 cycles
 Total Energy, E(TD-HF/TD-DFT) =  -1028.31751769
 SCF Done:  E(RwB97XD) =  -1028.67662965     A.U. after   14 cycles
 Total Energy, E(TD-HF/TD-DFT) =  -1028.57534963
 SCF Done:  E(RwB97XD) =  -1028.76891580     A.U. after   15 cycles
 Total Energy, E(TD-HF/TD-DFT) =  -1028.67292985
 SCF Done:  E(RwB97XD) =  -1028.78070650     A.U. after   14 cycles
 Total Energy, E(TD-HF/TD-DFT) =  -1028.68429053
 SCF Done:  E(RwB97XD) =  -1028.78360780     A.U. after   12 cycles
 Total Energy, E(TD-HF/TD-DFT) =  -1028.68548051
 SCF Done:  E(RwB97XD) =  -1028.78393816     A.U. after   12 cycles
 Total Energy, E(TD-HF/TD-DFT) =  -1028.68561447
 SCF Done:  E(RwB97XD) =  -1028.78404011     A.U. after   10 cycles
 Total Energy, E(TD-HF/TD-DFT) =  -1028.68562634
 Optimization completed.
    -- Stationary point found.
 Normal termination of Gaussian 16 at Mon Jul 13 21:23:08 2020.

 ----------------------------------------------------------------------
 #P Geom=AllCheck Guess=TCheck SCRF=Check GenChk RwB97XD TD(FC,Read)/CC
 -pVDZ Freq
 ----------------------------------------------------------------------

 Structure from the checkpoint file:  "config_12_15.chk"
 ------------------------------------------------
 NM 2D-scan of HBT TD-WB97XD pVDZ in CTC Relaxed.
 ------------------------------------------------
 Charge =  0 Multiplicity = 1

                          Input orientation:
 ---------------------------------------------------------------------
 Center     Atomic      Atomic             Coordinates (Angstroms)
 Number     Number       Type             X           Y           Z
 ---------------------------------------------------------------------
      1          6           0        1.597159   -3.298303    0.000241
      2          6           0        1.017685   -2.037614    0.000107
      3          6           0        1.801752   -0.890148   -0.000128
      4          6           0        3.200734   -0.963573   -0.000229
      5          6           0        3.776645   -2.232187   -0.000095
      6          6           0        2.989039   -3.388005    0.000136
      7          1           0        0.978568   -4.195608    0.000415
      8          1           0        3.813545   -0.060683   -0.000407
      9          1           0        4.864193   -2.319405   -0.000172
     10          1           0        3.465281   -4.368690    0.000231
     11          7           0        1.014190    0.230754   -0.000247
     12         16           0       -0.693555   -1.603251    0.000162
     13          6           0       -1.371516    1.123916   -0.000072
     14          6           0       -2.713531    0.810372   -0.000244
     15          6           0       -0.935657    2.529927    0.000201
     16          6           0       -3.723180    1.829407   -0.000140
     17          1           0       -3.037057   -0.233907   -0.000474
     18          6           0       -1.993686    3.512054    0.000295
     19          6           0       -3.361174    3.164140    0.000134
     20          1           0       -4.771946    1.528424   -0.000274
     21          1           0       -1.690471    4.561133    0.000553
     22          1           0       -4.127140    3.941655    0.000227
     23          6           0       -0.348992    0.095691   -0.000093
     24          8           0        0.287960    2.761198    0.000392
     25          1           0        1.584063    1.037767   -0.000430
 ---------------------------------------------------------------------

 SCF Done:  E(RwB97XD) =  -1028.78404011     A.U. after    1 cycles

 Excitation energies and oscillator strengths:

 Excited state symmetry could not be determined.
 Excited State   1:      Singlet-?Sym    2.6780 eV  462.98 nm  f=0.4324  <S**2>=0.000
      59 -> 60         0.69780
 This state for optimization and/or second-order correction.
 Total Energy, E(TD-HF/TD-DFT) =  -1028.68562631
 Copying the excited state density for this state as the 1-particle RhoCI density.

 Excited state symmetry could not be determined.
 Excited State   2:      Singlet-?Sym    3.2547 eV  380.94 nm  f=0.0000  <S**2>=0.000
      58 -> 60         0.68452
      58 -> 62         0.11254
      58 -> 64         0.10063

 Excited state symmetry could not be determined.
 Excited State   3:      Singlet-?Sym    4.2721 eV  290.22 nm  f=0.4339  <S**2>=0.000
      57 -> 60         0.68424

 Alpha  occ. eigenvalues --  -89.10483 -19.19855 -14.53268 -10.42817 -10.37399
 Alpha  occ. eigenvalues --  -10.36146 -10.35122 -10.33587 -10.33521 -10.32968
 Alpha  occ. eigenvalues --  -10.32623 -10.31313 -10.30747 -10.30517 -10.28973
 Alpha  occ. eigenvalues --  -10.28080  -8.12535  -6.07414  -6.07018  -6.06557
 Alpha  occ. eigenvalues --   -1.13401  -1.09004  -0.98729  -0.95887  -0.93271
 Alpha  occ. eigenvalues --   -0.89040  -0.86896  -0.84069  -0.80576  -0.75972
 Alpha  occ. eigenvalues --   -0.74812  -0.72034  -0.69438  -0.67436  -0.64735
 Alpha  occ. eigenvalues --   -0.61092  -0.59788  -0.56506  -0.56312  -0.56101
 Alpha  occ. eigenvalues --   -0.55111  -0.53665  -0.53018  -0.50343  -0.48698
 Alpha  occ. eigenvalues --   -0.48660  -0.48171  -0.47096  -0.45609  -0.44892
 Alpha  occ. eigenvalues --   -0.43915  -0.42733  -0.42256  -0.39768  -0.36965
 Alpha  occ. eigenvalues --   -0.33879  -0.31576  -0.30405  -0.25194
 Alpha virt. eigenvalues --   -0.02302   0.03483   0.05603   0.06704   0.09849
 Alpha virt. eigenvalues --    0.10962   0.13390   0.14417   0.15834   0.16469
 Alpha virt. eigenvalues --    0.17780   0.19749   0.20781   0.21218   0.22630

 Mulliken charges:
               1
     1  C    0.016646
     2  C   -0.238932
     3  C    0.198571
     4  C   -0.012496
     5  C    0.012310
     6  C    0.004664
     7  H    0.025598
     8  H    0.033022
     9  H    0.029708
    10  H    0.028168
    11  N   -0.085901
    12  S    0.199911
    13  C   -0.063459
    14  C   -0.041298
    15  C    0.101604
    16  C   -0.038778
    17  H    0.008580
    18  C   -0.062838
    19  C    0.035025
    20  H    0.000382
    21  H   -0.001985
    22  H    0.013498
    23  C    0.093015
    24  O   -0.376073
    25  H    0.121057
 Sum of Mulliken charges =  -0.00000

 Dipole moment (field-independent basis, Debye):
    X=              2.8310    Y=             -6.3511    Z=             -0.0011  Tot=              6.9535
 Quadrupole moment (field-independent basis, Debye-Ang):
   XX=            -80.8880   YY=            -97.3678   ZZ=           -104.1314
   XY=             -5.8214   XZ=             -0.0018   YZ=             -0.0031

  Exact polarizability:     345.258    -116.125     287.478       0.000       0.000      63.270
 Approx polarizability:     276.813     -40.605     264.277      -0.001       0.002      81.980

 ******    2 imaginary frequencies (negative Signs) ******

                      1                      2                      3
                      A                      A                      A
 Frequencies --   -136.6660               -41.1921                67.3202
 Red. masses --      2.0227                 6.0373                 6.1447
 Frc consts  --      0.0223                 0.0060                 0.0164
 IR Inten    --     27.4320                 0.2406                 2.3789

                      4                      5                      6
                      A                      A                      A
 Frequencies --    105.1469               154.6346               181.5905
 Red. masses --      5.7796                 3.0010                 5.4436
 Frc consts  --      0.0376                 0.0423                 0.1058
 IR Inten    --      6.3272                21.3100                 7.0774

                      7                      8                      9
                      A                      A                      A
 Frequencies --    245.4210               261.2528               280.5006
 Red. masses --      3.7633                 8.4975                 7.8342
 Frc consts  --      0.1335                 0.3417                 0.3632
 IR Inten    --      5.6746                 1.6935                 2.0417

                     10                     11                     12
                      A                      A                      A
 Frequencies --    318.0119               335.7166               374.8523
 Red. masses --      2.6725                 4.6289                 6.7410
 Frc consts  --      0.1592                 0.3074                 0.5581
 IR Inten    --     16.8939                 0.5018                 7.5343

                     13                     14                     15
                      A                      A                      A
 Frequencies --    432.1934               442.2691               500.4134
 Red. masses --      3.9259                 3.0754                 8.1385
 Frc consts  --      0.4321                 0.3544                 1.2008
 IR Inten    --      6.2413                 0.1545                12.1718

                     16                     17                     18
                      A                      A                      A
 Frequencies --    517.4410               536.0859               543.2187
 Red. masses --      3.2352                 6.2236                 8.7609
 Frc consts  --      0.5104                 1.0538                 1.5232
 IR Inten    --      0.4991                32.9822                23.6789

                     19                     20                     21
                      A                      A                      A
 Frequencies --    559.6894               565.2788               642.1235
 Red. masses --      3.7995                 7.3953                 6.4757
 Frc consts  --      0.7013                 1.3923                 1.5732
 IR Inten    --      0.0806                 4.0176                 9.3200

                     22                     23                     24
                      A                      A                      A
 Frequencies --    688.8445               704.3568               738.8757
 Red. masses --      1.4957                 5.5354                 7.3523
 Frc consts  --      0.4181                 1.6180                 2.3649
 IR Inten    --     33.4343                 1.7798                 5.7802

                     25                     26                     27
                      A                      A                      A
 Frequencies --    743.8451               756.8167               766.5303
 Red. masses --      2.3160                 1.6633                 1.7596
 Frc consts  --      0.7550                 0.5613                 0.6091
 IR Inten    --     21.8319                12.8846                81.1604

                     28                     29                     30
                      A                      A                      A
 Frequencies --    821.8910               836.8247               863.7065
 Red. masses --      6.2979                 2.0880                 1.3857
 Frc consts  --      2.5065                 0.8615                 0.6090
 IR Inten    --     14.8474                 1.6068                 1.1622

                     31                     32                     33
                      A                      A                      A
 Frequencies --    893.6103               898.9683               953.1297
 Red. masses --      5.8331                 1.4521                 1.3559
 Frc consts  --      2.7444                 0.6914                 0.7257
 IR Inten    --      3.0359                 9.3536                 0.2931

                     34                     35                     36
                      A                      A                      A
 Frequencies --    957.1857               967.5470              1002.9949
 Red. masses --      1.3531                 4.7410                 1.2969
 Frc consts  --      0.7304                 2.6150                 0.7687
 IR Inten    --      1.7395                 2.4546                 0.0001

                     37                     38                     39
                      A                      A                      A
 Frequencies --   1041.0407              1056.6410              1087.0817
 Red. masses --      2.3482                 2.1655                 2.4209
 Frc consts  --      1.4994                 1.4245                 1.6856
 IR Inten    --      0.9619                 8.6712                22.1188

                     40                     41                     42
                      A                      A                      A
 Frequencies --   1095.2244              1142.2532              1153.1996
 Red. masses --      2.2755                 1.4441                 1.3242
 Frc consts  --      1.6082                 1.1101                 1.0375
 IR Inten    --     18.6162                80.1894                 8.7892

                     43                     44                     45
                      A                      A                      A
 Frequencies --   1163.9474              1179.7736              1223.8836
 Red. masses --      1.2023                 1.1360                 4.3016
 Frc consts  --      0.9597                 0.9316                 3.7963
 IR Inten    --      2.9503                10.2856                30.3251

                     46                     47                     48
                      A                      A                      A
 Frequencies --   1244.2903              1302.9070              1332.0699
 Red. masses --      2.0923                 1.5495                 3.3028
 Frc consts  --      1.9086                 1.5498                 3.4530
 IR Inten    --     25.7669                 4.1567                15.0868

                     49                     50                     51
                      A                      A                      A
 Frequencies --   1355.6812              1403.3195              1411.8018
 Red. masses --      2.5897                 6.1049                 2.2628
 Frc consts  --      2.8042                 7.0834                 2.6574
 IR Inten    --     36.0123                63.2508                47.3500

                     52                     53                     54
                      A                      A                      A
 Frequencies --   1444.3135              1459.4393              1510.7079
 Red. masses --      2.7070                 3.5768                 3.6720
 Frc consts  --      3.3270                 4.4887                 4.9376
 IR Inten    --     76.9282                 9.4182                94.7359

                     55                     56                     57
                      A                      A                      A
 Frequencies --   1524.2720              1536.2998              1621.3135
 Red. masses --      2.8227                 4.7629                 5.1730
 Frc consts  --      3.8640                 6.6234                 8.0117
 IR Inten    --      2.8436               189.2849                85.6631

                     58                     59                     60
                      A                      A                      A
 Frequencies --   1648.7586              1664.6285              1686.7545
 Red. masses --      9.3772                 6.8756                 7.4701
 Frc consts  --     15.0188                11.2252                12.5222
 IR Inten    --    163.8926                87.4421                21.6259

                     61                     62                     63
                      A                      A                      A
 Frequencies --   3191.7611              3207.2736              3210.9929
 Red. masses --      1.0889                 1.0863                 1.0870
 Frc consts  --      6.5358                 6.5836                 6.6036
 IR Inten    --     28.1665                 2.9381                 4.4980

                     64                     65                     66
                      A                      A                      A
 Frequencies --   3219.1253              3221.4406              3229.8916
 Red. masses --      1.0913                 1.0909                 1.0951
 Frc consts  --      6.6629                 6.6699                 6.7311
 IR Inten    --     15.7277                 1.4098                 7.3386

                     67                     68                     69
                      A                      A                      A
 Frequencies --   3232.5930              3240.8633              3944.5277
 Red. masses --      1.0991                 1.0991                 1.0786
 Frc consts  --      6.7668                 6.8013                 9.8881
 IR Inten    --     26.8557                12.6333               166.5585

 - Thermochemistry -
 -------------------
 Temperature   298.150 Kelvin.  Pressure   1.00000 Atm.
 Atom     1 has atomic number  6 and mass  12.00000

 Molecular mass:   227.04049 amu.
 Principal axes and moments of inertia in atomic units:
                           1         2         3
     Eigenvalues --  1253.527526558.129437811.65688
           X           -0.70688   0.70733   0.00000
           Y            0.70733   0.70688  -0.00001
           Z            0.00001   0.00001   1.00000
 This molecule is an asymmetric top.
 Rotational symmetry number  1.
 Warning -- assumption of classical behavior for rotation
           may cause significant error
 Rotational temperatures (Kelvin)      0.06910     0.01321     0.01109
 Rotational constants (GHZ):           1.43973     0.27519     0.23103
    2 imaginary frequencies ignored.
 Zero-point vibrational energy     488353.7 (Joules/Mol)
                                  116.71933 (Kcal/Mol)
 Warning -- explicit consideration of  18 degrees of freedom as
           vibrations may cause significant error
 Vibrational temperatures:     96.86   151.28   222.48   261.27   353.11
          (Kelvin)            375.88   403.58   457.55   483.02   539.33
                              621.83   636.33   719.98   744.48   771.31
                              781.57   805.27   813.31   923.87   991.09
                             1013.41  1063.08  1070.23  1088.89  1102.87
                             1182.52  1204.00  1242.68  1285.71  1293.41
                             1371.34  1377.18  1392.08  1443.09  1497.83
                             1520.27  1564.07  1575.78  1643.45  1659.20
                             1674.66  1697.43  1760.90  1790.26  1874.59
                             1916.55  1950.52  2019.06  2031.27  2078.04
                             2099.81  2173.57  2193.09  2210.39  2332.71
                             2372.20  2395.03  2426.86  4592.23  4614.55
                             4619.90  4631.60  4634.93  4647.09  4650.98
                             4662.88  5675.30

 Zero-point correction=                           0.186004 (Hartree/Particle)
 Thermal correction to Energy=                    0.197366
 Thermal correction to Enthalpy=                  0.198310
 Thermal correction to Gibbs Free Energy=         0.148486
 Sum of electronic and zero-point Energies=          -1028.499622
 Sum of electronic and thermal Energies=             -1028.488260
 Sum of electronic and thermal Enthalpies=           -1028.487316
 Sum of electronic and thermal Free Energies=        -1028.537141

                     E (Thermal)             CV                S
                      KCal/Mol        Cal/Mol-Kelvin    Cal/Mol-Kelvin
 Total                  123.849             47.079            104.865
 Electronic               0.000              0.000              0.000
 Translational            0.889              2.981             42.162
 Rotational               0.889              2.981             32.529
 Vibrational            122.072             41.117             30.174
 Vibration     1          0.598              1.970              4.230
 Vibration     2          0.605              1.945              3.357
 Vibration     3          0.620              1.898              2.614
 Vibration     4          0.630              1.865              2.312
 Vibration     5          0.660              1.770              1.763
 Vibration     6          0.669              1.744              1.653
 Vibration     7          0.680              1.710              1.531
 Vibration     8          0.704              1.639              1.320
 Vibration     9          0.717              1.604              1.232
 Vibration    10          0.746              1.524              1.060
 Vibration    11          0.793              1.400              0.852
 Vibration    12          0.802              1.378              0.820
 Vibration    13          0.856              1.249              0.657
 Vibration    14          0.872              1.211              0.616
 Vibration    15          0.891              1.170              0.574
 Vibration    16          0.898              1.155              0.558
 Vibration    17          0.915              1.119              0.524
 Vibration    18          0.921              1.106              0.513

 Optimization completed.
    -- Stationary point found.
 Normal termination of Gaussian 16 at Mon Jul 13 21:40:39 2020.
