 Gaussian 16, Revision C.01,
 Gaussian 16:  ES64L-G16RevC.01  3-Jul-2019

 ----------------------------------------------------------------------
 #p opt=addgic freq td wb97xd/cc-pvdz nosymm int=ultrafine scrf=(solven
 t=CarbonTetraChloride)
 ----------------------------------------------------------------------

 ------------------------------------------------
 NM 2D-scan of HBT TD-WB97XD pVDZ in CTC Relaxed.
 ------------------------------------------------
 Symbolic Z-matrix:
 Charge =  0 Multiplicity = 1

 SCF Done:  E(RwB97XD) =  -1028.72937310     A.U. after   16 cycles
 Total Energy, E(TD-HF/TD-DFT) =  -1028.62333510
 SCF Done:  E(RwB97XD) =  -1028.78645602     A.U. after   14 cycles
 Total Energy, E(TD-HF/TD-DFT) =  -1028.68432616
 SCF Done:  E(RwB97XD) =  -1028.79556230     A.U. after   13 cycles
 Total Energy, E(TD-HF/TD-DFT) =  -1028.69249102
 SCF Done:  E(RwB97XD) =  -1028.79553205     A.U. after   11 cycles
 Total Energy, E(TD-HF/TD-DFT) =  -1028.69268783
 SCF Done:  E(RwB97XD) =  -1028.79532397     A.U. after   10 cycles
 Total Energy, E(TD-HF/TD-DFT) =  -1028.69270294
 SCF Done:  E(RwB97XD) =  -1028.79534251     A.U. after    9 cycles
 Total Energy, E(TD-HF/TD-DFT) =  -1028.69270448
 SCF Done:  E(RwB97XD) =  -1028.79531782     A.U. after    9 cycles
 Total Energy, E(TD-HF/TD-DFT) =  -1028.69270501
 Optimization completed.
    -- Stationary point found.
 Normal termination of Gaussian 16 at Mon Jul 13 19:29:47 2020.

 ----------------------------------------------------------------------
 #P Geom=AllCheck Guess=TCheck SCRF=Check GenChk RwB97XD TD(FC,Read)/CC
 -pVDZ Freq
 ----------------------------------------------------------------------

 Structure from the checkpoint file:  "config_11_5.chk"
 ------------------------------------------------
 NM 2D-scan of HBT TD-WB97XD pVDZ in CTC Relaxed.
 ------------------------------------------------
 Charge =  0 Multiplicity = 1

                          Input orientation:
 ---------------------------------------------------------------------
 Center     Atomic      Atomic             Coordinates (Angstroms)
 Number     Number       Type             X           Y           Z
 ---------------------------------------------------------------------
      1          6           0        1.729607   -3.290947    0.000362
      2          6           0        1.025162   -2.091567    0.000125
      3          6           0        1.718237   -0.879233   -0.000262
      4          6           0        3.117190   -0.817233   -0.000408
      5          6           0        3.809580   -2.020687   -0.000169
      6          6           0        3.126954   -3.243348    0.000209
      7          1           0        1.208212   -4.248287    0.000661
      8          1           0        3.630037    0.145097   -0.000689
      9          1           0        4.900555   -2.010866   -0.000270
     10          1           0        3.691038   -4.176524    0.000391
     11          7           0        0.864457    0.171490   -0.000435
     12         16           0       -0.729108   -1.780581    0.000226
     13          6           0       -1.424395    1.059803   -0.000064
     14          6           0       -2.798087    0.900675   -0.000337
     15          6           0       -0.868465    2.444466    0.000348
     16          6           0       -3.694852    2.016235   -0.000203
     17          1           0       -3.226704   -0.104945   -0.000696
     18          6           0       -1.820528    3.520204    0.000438
     19          6           0       -3.207775    3.314812    0.000188
     20          1           0       -4.768665    1.823256   -0.000418
     21          1           0       -1.398436    4.526967    0.000805
     22          1           0       -3.892886    4.163839    0.000301
     23          6           0       -0.479286   -0.041072   -0.000140
     24          8           0        0.367217    2.644629    0.000683
     25          1           0        1.249125    1.095909   -0.000573
 ---------------------------------------------------------------------

 SCF Done:  E(RwB97XD) =  -1028.79531782     A.U. after    1 cycles

 Excitation energies and oscillator strengths:

 Excited state symmetry could not be determined.
 Excited State   1:      Singlet-?Sym    2.7922 eV  444.03 nm  f=0.4305  <S**2>=0.000
      59 -> 60         0.69650
 This state for optimization and/or second-order correction.
 Total Energy, E(TD-HF/TD-DFT) =  -1028.69270501
 Copying the excited state density for this state as the 1-particle RhoCI density.

 Excited state symmetry could not be determined.
 Excited State   2:      Singlet-?Sym    3.4974 eV  354.50 nm  f=0.0000  <S**2>=0.000
      58 -> 60         0.68366
      58 -> 62         0.11712
      58 -> 64         0.10991

 Excited state symmetry could not be determined.
 Excited State   3:      Singlet-?Sym    4.3322 eV  286.19 nm  f=0.4833  <S**2>=0.000
      57 -> 60         0.68125

 Alpha  occ. eigenvalues --  -89.10823 -19.20690 -14.52228 -10.42599 -10.37206
 Alpha  occ. eigenvalues --  -10.36358 -10.35742 -10.33646 -10.33189 -10.32808
 Alpha  occ. eigenvalues --  -10.32561 -10.31429 -10.31303 -10.30542 -10.29048
 Alpha  occ. eigenvalues --  -10.28128  -8.12754  -6.07644  -6.07255  -6.06771
 Alpha  occ. eigenvalues --   -1.13458  -1.09530  -0.98578  -0.95157  -0.93235
 Alpha  occ. eigenvalues --   -0.89190  -0.86629  -0.84188  -0.80746  -0.76076
 Alpha  occ. eigenvalues --   -0.74023  -0.71809  -0.69255  -0.67470  -0.64915
 Alpha  occ. eigenvalues --   -0.60997  -0.59837  -0.56572  -0.56195  -0.55881
 Alpha  occ. eigenvalues --   -0.55047  -0.53581  -0.53068  -0.50775  -0.48895
 Alpha  occ. eigenvalues --   -0.48740  -0.48219  -0.47004  -0.45567  -0.44790
 Alpha  occ. eigenvalues --   -0.44319  -0.42830  -0.42094  -0.40102  -0.36924
 Alpha  occ. eigenvalues --   -0.33811  -0.31556  -0.31201  -0.25541
 Alpha virt. eigenvalues --   -0.02204   0.03562   0.05902   0.06357   0.09545
 Alpha virt. eigenvalues --    0.10721   0.11998   0.14499   0.16056   0.17021
 Alpha virt. eigenvalues --    0.18596   0.19900   0.20956   0.21312   0.22993

 Mulliken charges:
               1
     1  C    0.012581
     2  C   -0.251682
     3  C    0.241602
     4  C   -0.010279
     5  C    0.015015
     6  C    0.001174
     7  H    0.027088
     8  H    0.034424
     9  H    0.029077
    10  H    0.027780
    11  N   -0.083169
    12  S    0.198779
    13  C   -0.106425
    14  C   -0.025285
    15  C    0.117297
    16  C   -0.040437
    17  H    0.000870
    18  C   -0.041192
    19  C    0.034868
    20  H    0.001679
    21  H   -0.000909
    22  H    0.013421
    23  C    0.075416
    24  O   -0.393660
    25  H    0.121964
 Sum of Mulliken charges =  -0.00000

 Dipole moment (field-independent basis, Debye):
    X=              2.2885    Y=             -5.8327    Z=             -0.0017  Tot=              6.2656
 Quadrupole moment (field-independent basis, Debye-Ang):
   XX=            -82.0830   YY=            -95.5928   ZZ=           -104.2340
   XY=             -6.4018   XZ=             -0.0019   YZ=             -0.0053

  Exact polarizability:     348.625    -120.763     295.010       0.003      -0.002      63.344
 Approx polarizability:     276.146     -39.648     266.247       0.000       0.001      82.101

 ******    1 imaginary frequencies (negative Signs) ******

                      1                      2                      3
                      A                      A                      A
 Frequencies --    -97.2376                46.2895                98.8654
 Red. masses --      6.7746                 6.4801                 4.8249
 Frc consts  --      0.0377                 0.0082                 0.0278
 IR Inten    --      2.1823                 1.5007                 0.0496

                      4                      5                      6
                      A                      A                      A
 Frequencies --    108.9642               172.1355               227.4185
 Red. masses --      5.7466                 5.0329                 5.5474
 Frc consts  --      0.0402                 0.0879                 0.1690
 IR Inten    --      7.6693                 0.0080                 0.7165

                      7                      8                      9
                      A                      A                      A
 Frequencies --    262.1765               269.7562               313.5939
 Red. masses --      7.5651                 4.4702                 7.8289
 Frc consts  --      0.3064                 0.1917                 0.4536
 IR Inten    --      1.2855                 1.9793                 2.9040

                     10                     11                     12
                      A                      A                      A
 Frequencies --    344.9832               375.1327               426.3818
 Red. masses --      4.5755                 7.9263                 3.5258
 Frc consts  --      0.3208                 0.6572                 0.3777
 IR Inten    --      0.9890                 7.9232                 5.3555

                     13                     14                     15
                      A                      A                      A
 Frequencies --    444.7404               498.4012               511.5386
 Red. masses --      4.3838                 8.1509                 3.2001
 Frc consts  --      0.5109                 1.1929                 0.4934
 IR Inten    --      4.3580                11.0113                 0.3565

                     16                     17                     18
                      A                      A                      A
 Frequencies --    538.4158               553.6863               557.2276
 Red. masses --      8.6919                 3.5670                 6.9280
 Frc consts  --      1.4846                 0.6443                 1.2674
 IR Inten    --     12.2248                 3.6522                39.7452

                     19                     20                     21
                      A                      A                      A
 Frequencies --    567.2378               641.7423               648.1064
 Red. masses --      7.3735                 6.1853                 1.1465
 Frc consts  --      1.3978                 1.5008                 0.2837
 IR Inten    --     11.2308                36.6770                61.4963

                     22                     23                     24
                      A                      A                      A
 Frequencies --    690.7479               697.4777               731.3949
 Red. masses --      1.4985                 6.2039                 8.0093
 Frc consts  --      0.4212                 1.7782                 2.5244
 IR Inten    --     14.3440                 1.4943                 3.9622

                     25                     26                     27
                      A                      A                      A
 Frequencies --    743.2999               761.0989               768.7068
 Red. masses --      2.6011                 1.7150                 1.6645
 Frc consts  --      0.8467                 0.5853                 0.5795
 IR Inten    --     14.4066                 4.8939               107.6814

                     28                     29                     30
                      A                      A                      A
 Frequencies --    809.7321               842.5036               864.3998
 Red. masses --      6.4348                 1.8328                 1.3815
 Frc consts  --      2.4858                 0.7665                 0.6082
 IR Inten    --     18.2836                 1.0344                 1.8910

                     31                     32                     33
                      A                      A                      A
 Frequencies --    896.8248               906.0334               953.7424
 Red. masses --      5.3863                 1.4343                 1.3596
 Frc consts  --      2.5524                 0.6937                 0.7287
 IR Inten    --      0.7681                 9.1533                 0.6941

                     34                     35                     36
                      A                      A                      A
 Frequencies --    957.4861               958.4157              1004.0951
 Red. masses --      1.3485                 5.0585                 1.2933
 Frc consts  --      0.7284                 2.7377                 0.7682
 IR Inten    --      1.7032                 1.0527                 0.0014

                     37                     38                     39
                      A                      A                      A
 Frequencies --   1039.5310              1054.3667              1080.8584
 Red. masses --      2.2954                 2.2781                 3.7195
 Frc consts  --      1.4614                 1.4921                 2.5602
 IR Inten    --      1.2480                10.9078                 0.8310

                     40                     41                     42
                      A                      A                      A
 Frequencies --   1101.0164              1151.2353              1158.6659
 Red. masses --      1.6594                 1.3267                 1.1915
 Frc consts  --      1.1852                 1.0360                 0.9425
 IR Inten    --     43.5057                 4.2927                85.9797

                     43                     44                     45
                      A                      A                      A
 Frequencies --   1178.6808              1188.8010              1240.9166
 Red. masses --      1.1840                 1.5370                 2.4328
 Frc consts  --      0.9692                 1.2798                 2.2072
 IR Inten    --     57.8900                53.9973                16.1001

                     46                     47                     48
                      A                      A                      A
 Frequencies --   1263.9708              1297.3928              1335.3778
 Red. masses --      2.3374                 1.5722                 3.7906
 Frc consts  --      2.2002                 1.5592                 3.9826
 IR Inten    --     79.2005                 9.6082                27.6388

                     49                     50                     51
                      A                      A                      A
 Frequencies --   1367.4794              1390.4792              1402.4750
 Red. masses --      2.6560                 2.2891                 4.6948
 Frc consts  --      2.9263                 2.6076                 5.4407
 IR Inten    --     62.4314                36.7145                58.5649

                     52                     53                     54
                      A                      A                      A
 Frequencies --   1446.2548              1471.9047              1519.3903
 Red. masses --      3.0172                 2.9114                 2.9922
 Frc consts  --      3.7184                 3.7163                 4.0698
 IR Inten    --    161.0308                 6.2926                50.7040

                     55                     56                     57
                      A                      A                      A
 Frequencies --   1524.2643              1567.5799              1605.3364
 Red. masses --      3.4881                 5.9540                 5.2121
 Frc consts  --      4.7749                 8.6203                 7.9140
 IR Inten    --     46.2337               177.1128               121.2234

                     58                     59                     60
                      A                      A                      A
 Frequencies --   1638.8625              1665.3281              1677.4481
 Red. masses --      7.9654                 6.9998                 6.9966
 Frc consts  --     12.6050                11.4375                11.5994
 IR Inten    --    141.6952                46.7620               125.6338

                     61                     62                     63
                      A                      A                      A
 Frequencies --   3187.0080              3207.3241              3213.4431
 Red. masses --      1.0895                 1.0862                 1.0865
 Frc consts  --      6.5198                 6.5831                 6.6103
 IR Inten    --     21.8773                 1.9789                 6.1971

                     64                     65                     66
                      A                      A                      A
 Frequencies --   3220.0683              3225.2243              3232.9129
 Red. masses --      1.0916                 1.0900                 1.0988
 Frc consts  --      6.6687                 6.6806                 6.7661
 IR Inten    --     12.3229                 2.3898                26.2508

                     67                     68                     69
                      A                      A                      A
 Frequencies --   3233.0159              3241.5042              3701.6411
 Red. masses --      1.0964                 1.0992                 1.0814
 Frc consts  --      6.7522                 6.8050                 8.7300
 IR Inten    --      6.3750                13.5382               546.7742

 - Thermochemistry -
 -------------------
 Temperature   298.150 Kelvin.  Pressure   1.00000 Atm.
 Atom     1 has atomic number  6 and mass  12.00000

 Molecular mass:   227.04049 amu.
 Principal axes and moments of inertia in atomic units:
                           1         2         3
     Eigenvalues --  1301.721826480.351257782.07289
           X           -0.70424   0.70996  -0.00000
           Y            0.70996   0.70424  -0.00003
           Z            0.00002   0.00002   1.00000
 This molecule is an asymmetric top.
 Rotational symmetry number  1.
 Warning -- assumption of classical behavior for rotation
           may cause significant error
 Rotational temperatures (Kelvin)      0.06654     0.01337     0.01113
 Rotational constants (GHZ):           1.38643     0.27849     0.23191
    1 imaginary frequencies ignored.
 Zero-point vibrational energy     490603.6 (Joules/Mol)
                                  117.25707 (Kcal/Mol)
 Warning -- explicit consideration of  18 degrees of freedom as
           vibrations may cause significant error
 Vibrational temperatures:     66.60   142.25   156.78   247.66   327.20
          (Kelvin)            377.21   388.12   451.19   496.35   539.73
                              613.47   639.88   717.09   735.99   774.66
                              796.63   801.73   816.13   923.32   932.48
                              993.83  1003.51  1052.31  1069.44  1095.05
                             1106.00  1165.02  1212.17  1243.68  1290.33
                             1303.58  1372.22  1377.61  1378.95  1444.67
                             1495.65  1517.00  1555.11  1584.12  1656.37
                             1667.06  1695.86  1710.42  1785.40  1818.57
                             1866.66  1921.31  1967.50  2000.59  2017.85
                             2080.84  2117.74  2186.06  2193.08  2255.40
                             2309.72  2357.96  2396.04  2413.47  4585.39
                             4614.62  4623.43  4632.96  4640.38  4651.44
                             4651.59  4663.80  5325.84

 Zero-point correction=                           0.186861 (Hartree/Particle)
 Thermal correction to Energy=                    0.198545
 Thermal correction to Enthalpy=                  0.199489
 Thermal correction to Gibbs Free Energy=         0.148616
 Sum of electronic and zero-point Energies=          -1028.505844
 Sum of electronic and thermal Energies=             -1028.494160
 Sum of electronic and thermal Enthalpies=           -1028.493216
 Sum of electronic and thermal Free Energies=        -1028.544089

                     E (Thermal)             CV                S
                      KCal/Mol        Cal/Mol-Kelvin    Cal/Mol-Kelvin
 Total                  124.589             48.085            107.072
 Electronic               0.000              0.000              0.000
 Translational            0.889              2.981             42.162
 Rotational               0.889              2.981             32.551
 Vibrational            122.812             42.123             32.359
 Vibration     1          0.595              1.979              4.970
 Vibration     2          0.604              1.950              3.477
 Vibration     3          0.606              1.942              3.287
 Vibration     4          0.626              1.877              2.412
 Vibration     5          0.651              1.799              1.899
 Vibration     6          0.669              1.742              1.647
 Vibration     7          0.674              1.729              1.598
 Vibration     8          0.701              1.648              1.343
 Vibration     9          0.723              1.585              1.189
 Vibration    10          0.746              1.523              1.059
 Vibration    11          0.788              1.413              0.871
 Vibration    12          0.804              1.372              0.812
 Vibration    13          0.854              1.254              0.662
 Vibration    14          0.867              1.224              0.630
 Vibration    15          0.893              1.165              0.569
 Vibration    16          0.909              1.132              0.537
 Vibration    17          0.913              1.124              0.529
 Vibration    18          0.923              1.102              0.510

 Optimization completed.
    -- Stationary point found.
 Normal termination of Gaussian 16 at Mon Jul 13 19:47:18 2020.
