 Gaussian 16, Revision C.01,
 Gaussian 16:  ES64L-G16RevC.01  3-Jul-2019

 ----------------------------------------------------------------------
 #p opt=addgic freq td wb97xd/cc-pvdz nosymm int=ultrafine scrf=(solven
 t=CarbonTetraChloride)
 ----------------------------------------------------------------------

 ------------------------------------------------
 NM 2D-scan of HBT TD-WB97XD pVDZ in CTC Relaxed.
 ------------------------------------------------
 Symbolic Z-matrix:
 Charge =  0 Multiplicity = 1

 SCF Done:  E(RwB97XD) =  -1028.81882457     A.U. after   15 cycles
 Total Energy, E(TD-HF/TD-DFT) =  -1028.69222164
 SCF Done:  E(RwB97XD) =  -1028.81866372     A.U. after   11 cycles
 Total Energy, E(TD-HF/TD-DFT) =  -1028.69241240
 SCF Done:  E(RwB97XD) =  -1028.81793172     A.U. after   11 cycles
 Total Energy, E(TD-HF/TD-DFT) =  -1028.69243917
 SCF Done:  E(RwB97XD) =  -1028.81815635     A.U. after    9 cycles
 Total Energy, E(TD-HF/TD-DFT) =  -1028.69248221
 SCF Done:  E(RwB97XD) =  -1028.81818444     A.U. after    9 cycles
 Total Energy, E(TD-HF/TD-DFT) =  -1028.69248446
 Optimization completed.
    -- Stationary point found.
 Normal termination of Gaussian 16 at Mon Jul 13 13:58:14 2020.

 ----------------------------------------------------------------------
 #P Geom=AllCheck Guess=TCheck SCRF=Check GenChk RwB97XD TD(FC,Read)/CC
 -pVDZ Freq
 ----------------------------------------------------------------------

 Structure from the checkpoint file:  "config_5_9.chk"
 ------------------------------------------------
 NM 2D-scan of HBT TD-WB97XD pVDZ in CTC Relaxed.
 ------------------------------------------------
 Charge =  0 Multiplicity = 1

                          Input orientation:
 ---------------------------------------------------------------------
 Center     Atomic      Atomic             Coordinates (Angstroms)
 Number     Number       Type             X           Y           Z
 ---------------------------------------------------------------------
      1          6           0        1.647889   -3.267921   -0.000026
      2          6           0        0.995774   -2.038663   -0.000008
      3          6           0        1.717467   -0.806981   -0.000013
      4          6           0        3.131929   -0.844029   -0.000035
      5          6           0        3.768479   -2.073016   -0.000052
      6          6           0        3.041746   -3.279042   -0.000048
      7          1           0        1.081638   -4.200061   -0.000023
      8          1           0        3.693763    0.090573   -0.000038
      9          1           0        4.859441   -2.109163   -0.000069
     10          1           0        3.572872   -4.231790   -0.000062
     11          7           0        0.942660    0.295180    0.000005
     12         16           0       -0.729983   -1.728338    0.000018
     13          6           0       -1.363592    1.032287    0.000038
     14          6           0       -2.757304    0.815127    0.000025
     15          6           0       -0.892157    2.432594    0.000050
     16          6           0       -3.646794    1.889304    0.000010
     17          1           0       -3.141304   -0.206377    0.000018
     18          6           0       -1.823950    3.489542    0.000027
     19          6           0       -3.190623    3.225142    0.000007
     20          1           0       -4.719567    1.689518   -0.000005
     21          1           0       -1.432146    4.507191    0.000034
     22          1           0       -3.908016    4.046074   -0.000008
     23          6           0       -0.387556    0.009748    0.000027
     24          8           0        0.384706    2.680622    0.000092
     25          1           0        0.896672    1.721057    0.000137
 ---------------------------------------------------------------------

 SCF Done:  E(RwB97XD) =  -1028.81818444     A.U. after    1 cycles

 Excitation energies and oscillator strengths:

 Excited state symmetry could not be determined.
 Excited State   1:      Singlet-?Sym    3.4205 eV  362.48 nm  f=0.5931  <S**2>=0.000
      59 -> 60         0.69098
 This state for optimization and/or second-order correction.
 Total Energy, E(TD-HF/TD-DFT) =  -1028.69248446
 Copying the excited state density for this state as the 1-particle RhoCI density.

 Excited state symmetry could not be determined.
 Excited State   2:      Singlet-?Sym    4.3912 eV  282.35 nm  f=0.2975  <S**2>=0.000
      57 -> 60         0.17858
      58 -> 60         0.64556
      59 -> 62         0.10726
      59 -> 64         0.11003

 Excited state symmetry could not be determined.
 Excited State   3:      Singlet-?Sym    4.6718 eV  265.39 nm  f=0.0559  <S**2>=0.000
      55 -> 61        -0.10227
      57 -> 60         0.58299
      57 -> 62        -0.14759
      58 -> 60        -0.17681
      58 -> 61        -0.16129
      59 -> 61         0.22854

 Alpha  occ. eigenvalues --  -89.09303 -19.26840 -14.47739 -10.40136 -10.37750
 Alpha  occ. eigenvalues --  -10.35484 -10.35005 -10.32379 -10.32186 -10.32141
 Alpha  occ. eigenvalues --  -10.31802 -10.31744 -10.31589 -10.31535 -10.30221
 Alpha  occ. eigenvalues --  -10.30029  -8.11277  -6.06127  -6.05782  -6.05331
 Alpha  occ. eigenvalues --   -1.15889  -1.08825  -0.96874  -0.95644  -0.92107
 Alpha  occ. eigenvalues --   -0.88859  -0.85176  -0.84158  -0.82422  -0.75920
 Alpha  occ. eigenvalues --   -0.71134  -0.70409  -0.69002  -0.68183  -0.63491
 Alpha  occ. eigenvalues --   -0.60632  -0.58991  -0.58449  -0.55709  -0.54372
 Alpha  occ. eigenvalues --   -0.54155  -0.53169  -0.52935  -0.50981  -0.50098
 Alpha  occ. eigenvalues --   -0.49648  -0.47329  -0.46086  -0.45593  -0.44831
 Alpha  occ. eigenvalues --   -0.44015  -0.42640  -0.42633  -0.40274  -0.36505
 Alpha  occ. eigenvalues --   -0.36499  -0.32369  -0.31274  -0.27905
 Alpha virt. eigenvalues --   -0.01739   0.04878   0.06868   0.07331   0.07503
 Alpha virt. eigenvalues --    0.10905   0.13972   0.15092   0.16304   0.17959
 Alpha virt. eigenvalues --    0.18675   0.21001   0.21680   0.22444   0.22489

 Mulliken charges:
               1
     1  C    0.015999
     2  C   -0.228965
     3  C    0.251150
     4  C   -0.017096
     5  C    0.008136
     6  C   -0.004182
     7  H    0.019153
     8  H    0.020372
     9  H    0.020521
    10  H    0.021550
    11  N   -0.349478
    12  S    0.167986
    13  C   -0.097327
    14  C   -0.021239
    15  C    0.104817
    16  C   -0.019329
    17  H    0.012570
    18  C   -0.001844
    19  C    0.025334
    20  H    0.009394
    21  H    0.015734
    22  H    0.021545
    23  C    0.081597
    24  O   -0.258051
    25  H    0.201651
 Sum of Mulliken charges =  -0.00000

 Dipole moment (field-independent basis, Debye):
    X=             -0.0853    Y=             -2.7135    Z=              0.0000  Tot=              2.7149
 Quadrupole moment (field-independent basis, Debye-Ang):
   XX=            -83.2571   YY=            -90.1055   ZZ=           -104.3150
   XY=             -7.0023   XZ=             -0.0000   YZ=              0.0000

  Exact polarizability:     384.367    -169.845     354.385      -0.002       0.003      63.343
 Approx polarizability:     276.378     -35.435     260.119      -0.001       0.001      82.359

 ******    1 imaginary frequencies (negative Signs) ******

                      1                      2                      3
                      A                      A                      A
 Frequencies --    -51.7415                40.8214                52.7951
 Red. masses --      4.2969                 5.7820                 6.9077
 Frc consts  --      0.0068                 0.0057                 0.0113
 IR Inten    --      7.6741                 0.9435                 0.6229

                      4                      5                      6
                      A                      A                      A
 Frequencies --    109.3220               176.9630               222.5624
 Red. masses --      4.8351                 6.1263                 5.3569
 Frc consts  --      0.0340                 0.1130                 0.1563
 IR Inten    --      0.0737                 0.9281                 0.0236

                      7                      8                      9
                      A                      A                      A
 Frequencies --    237.3896               271.4553               271.6050
 Red. masses --      4.5776                 7.4560                 4.7916
 Frc consts  --      0.1520                 0.3237                 0.2083
 IR Inten    --     30.0216                20.5850                 0.1108

                     10                     11                     12
                      A                      A                      A
 Frequencies --    381.4129               402.7558               438.0632
 Red. masses --      4.7463                 8.3079                 3.2358
 Frc consts  --      0.4068                 0.7940                 0.3659
 IR Inten    --      0.1896                 8.3696                 4.4768

                     13                     14                     15
                      A                      A                      A
 Frequencies --    464.3313               483.9188               499.2466
 Red. masses --      4.3205                 4.7292                 3.1680
 Frc consts  --      0.5488                 0.6525                 0.4652
 IR Inten    --      8.4134                 0.0116                 0.1412

                     16                     17                     18
                      A                      A                      A
 Frequencies --    504.3576               533.0208               556.1362
 Red. masses --      8.7643                 8.1810                 3.9305
 Frc consts  --      1.3135                 1.3694                 0.7162
 IR Inten    --      0.0996                27.4835                 0.1602

                     19                     20                     21
                      A                      A                      A
 Frequencies --    578.3530               636.1439               705.0031
 Red. masses --      7.5743                 6.7650                 1.6619
 Frc consts  --      1.4927                 1.6130                 0.4867
 IR Inten    --      4.3969                38.0168                44.5248

                     22                     23                     24
                      A                      A                      A
 Frequencies --    708.0618               734.6076               740.0098
 Red. masses --      6.8128                 9.8310                 1.9976
 Frc consts  --      2.0124                 3.1258                 0.6445
 IR Inten    --      0.3771                21.3893                25.3935

                     25                     26                     27
                      A                      A                      A
 Frequencies --    756.9387               769.3808               817.3370
 Red. masses --      1.9166                 1.9512                 1.6613
 Frc consts  --      0.6470                 0.6805                 0.6539
 IR Inten    --     27.2272                56.2767                 0.0606

                     28                     29                     30
                      A                      A                      A
 Frequencies --    820.0729               861.8669               897.7726
 Red. masses --      6.2037                 1.4102                 6.2174
 Frc consts  --      2.4582                 0.6172                 2.9525
 IR Inten    --      8.3798                 0.9394                73.0597

                     31                     32                     33
                      A                      A                      A
 Frequencies --    911.0445               953.7227               961.1017
 Red. masses --      1.3597                 1.3444                 1.3749
 Frc consts  --      0.6649                 0.7205                 0.7483
 IR Inten    --      5.1814                 1.8062                 0.2940

                     34                     35                     36
                      A                      A                      A
 Frequencies --    968.3948              1000.0823              1038.3153
 Red. masses --      6.4336                 1.2970                 2.1733
 Frc consts  --      3.5547                 0.7643                 1.3805
 IR Inten    --     11.7365                 0.0033                 0.9285

                     37                     38                     39
                      A                      A                      A
 Frequencies --   1044.2771              1071.8705              1112.1847
 Red. masses --      2.3074                 2.9238                 2.2023
 Frc consts  --      1.4826                 1.9792                 1.6050
 IR Inten    --      0.2610                51.2453                18.0533

                     40                     41                     42
                      A                      A                      A
 Frequencies --   1143.4642              1164.0482              1165.9984
 Red. masses --      1.3632                 1.0551                 1.3057
 Frc consts  --      1.0501                 0.8423                 1.0459
 IR Inten    --     17.1404                65.1516                 2.2255

                     43                     44                     45
                      A                      A                      A
 Frequencies --   1177.5065              1195.0347              1247.7085
 Red. masses --      1.1889                 1.4754                 1.9371
 Frc consts  --      0.9712                 1.2415                 1.7767
 IR Inten    --      6.3742               117.9508                98.6784

                     46                     47                     48
                      A                      A                      A
 Frequencies --   1259.8068              1288.1780              1367.8976
 Red. masses --      3.2716                 1.9005                 2.8924
 Frc consts  --      3.0593                 1.8581                 3.1887
 IR Inten    --     70.5487                13.8277                25.1732

                     49                     50                     51
                      A                      A                      A
 Frequencies --   1374.2351              1403.7493              1436.0069
 Red. masses --      4.4743                 2.2269                 2.2149
 Frc consts  --      4.9785                 2.5854                 2.6910
 IR Inten    --    216.7022                 1.0850                24.6982

                     52                     53                     54
                      A                      A                      A
 Frequencies --   1455.9239              1481.5089              1527.0549
 Red. masses --      4.9095                 2.9016                 4.9105
 Frc consts  --      6.1314                 3.7523                 6.7465
 IR Inten    --    252.3452               198.6004               318.1287

                     55                     56                     57
                      A                      A                      A
 Frequencies --   1539.9908              1548.0096              1565.9067
 Red. masses --      4.5742                 3.8432                 5.2715
 Frc consts  --      6.3915                 5.4262                 7.6159
 IR Inten    --     61.8600                47.4524               546.2747

                     58                     59                     60
                      A                      A                      A
 Frequencies --   1615.2736              1648.3897              1662.4753
 Red. masses --      5.9510                 5.7136                 3.1671
 Frc consts  --      9.1481                 9.1471                 5.1572
 IR Inten    --    305.5089               704.8987               418.2175

                     61                     62                     63
                      A                      A                      A
 Frequencies --   1855.5782              3207.9803              3208.1159
 Red. masses --      1.1491                 1.0864                 1.0869
 Frc consts  --      2.3312                 6.5872                 6.5911
 IR Inten    --    253.0503                15.5326                 2.9661

                     64                     65                     66
                      A                      A                      A
 Frequencies --   3219.4003              3219.5444              3227.6125
 Red. masses --      1.0885                 1.0900                 1.0937
 Frc consts  --      6.6472                 6.6567                 6.7132
 IR Inten    --      2.8848                 3.1287                15.7419

                     67                     68                     69
                      A                      A                      A
 Frequencies --   3231.3815              3237.3517              3239.5164
 Red. masses --      1.0952                 1.0990                 1.0985
 Frc consts  --      6.7379                 6.7863                 6.7922
 IR Inten    --     10.7609                36.4126                18.8594

 - Thermochemistry -
 -------------------
 Temperature   298.150 Kelvin.  Pressure   1.00000 Atm.
 Atom     1 has atomic number  6 and mass  12.00000

 Molecular mass:   227.04049 amu.
 Principal axes and moments of inertia in atomic units:
                           1         2         3
     Eigenvalues --  1310.213426314.348397624.56180
           X           -0.70314   0.71105   0.00000
           Y            0.71105   0.70314  -0.00001
           Z            0.00001   0.00000   1.00000
 This molecule is an asymmetric top.
 Rotational symmetry number  1.
 Warning -- assumption of classical behavior for rotation
           may cause significant error
 Rotational temperatures (Kelvin)      0.06611     0.01372     0.01136
 Rotational constants (GHZ):           1.37744     0.28582     0.23670
    1 imaginary frequencies ignored.
 Zero-point vibrational energy     482378.3 (Joules/Mol)
                                  115.29117 (Kcal/Mol)
 Warning -- explicit consideration of  18 degrees of freedom as
           vibrations may cause significant error
 Vibrational temperatures:     58.73    75.96   157.29   254.61   320.22
          (Kelvin)            341.55   390.56   390.78   548.77   579.48
                              630.28   668.07   696.25   718.30   725.66
                              766.90   800.16   832.12   915.27  1014.34
                             1018.74  1056.94  1064.71  1089.07  1106.97
                             1175.97  1179.90  1240.03  1291.69  1310.79
                             1372.19  1382.81  1393.30  1438.90  1493.90
                             1502.48  1542.18  1600.19  1645.19  1674.81
                             1677.61  1694.17  1719.39  1795.17  1812.58
                             1853.40  1968.10  1977.22  2019.68  2066.09
                             2094.75  2131.56  2197.09  2215.70  2227.24
                             2252.99  2324.02  2371.67  2391.93  2669.76
                             4615.57  4615.76  4632.00  4632.21  4643.81
                             4649.24  4657.83  4660.94

 Zero-point correction=                           0.183728 (Hartree/Particle)
 Thermal correction to Energy=                    0.195438
 Thermal correction to Enthalpy=                  0.196382
 Thermal correction to Gibbs Free Energy=         0.144889
 Sum of electronic and zero-point Energies=          -1028.508756
 Sum of electronic and thermal Energies=             -1028.497047
 Sum of electronic and thermal Enthalpies=           -1028.496102
 Sum of electronic and thermal Free Energies=        -1028.547596

                     E (Thermal)             CV                S
                      KCal/Mol        Cal/Mol-Kelvin    Cal/Mol-Kelvin
 Total                  122.639             47.468            108.377
 Electronic               0.000              0.000              0.000
 Translational            0.889              2.981             42.162
 Rotational               0.889              2.981             32.511
 Vibrational            120.862             41.506             33.703
 Vibration     1          0.594              1.981              5.219
 Vibration     2          0.596              1.976              4.710
 Vibration     3          0.606              1.942              3.281
 Vibration     4          0.628              1.871              2.360
 Vibration     5          0.648              1.807              1.938
 Vibration     6          0.656              1.783              1.822
 Vibration     7          0.675              1.726              1.587
 Vibration     8          0.675              1.726              1.586
 Vibration     9          0.751              1.510              1.034
 Vibration    10          0.768              1.464              0.953
 Vibration    11          0.798              1.387              0.833
 Vibration    12          0.822              1.329              0.754
 Vibration    13          0.840              1.286              0.700
 Vibration    14          0.855              1.252              0.660
 Vibration    15          0.860              1.240              0.647
 Vibration    16          0.888              1.177              0.580
 Vibration    17          0.912              1.126              0.532
 Vibration    18          0.935              1.078              0.488

 Optimization completed.
    -- Stationary point found.
 Normal termination of Gaussian 16 at Mon Jul 13 14:16:09 2020.
