 Gaussian 16, Revision C.01,
 Gaussian 16:  ES64L-G16RevC.01  3-Jul-2019

 ----------------------------------------------------------------------
 #p opt=addgic freq td wb97xd/cc-pvdz nosymm int=ultrafine scrf=(solven
 t=CarbonTetraChloride)
 ----------------------------------------------------------------------

 ------------------------------------------------
 NM 2D-scan of HBT TD-WB97XD pVDZ in CTC Relaxed.
 ------------------------------------------------
 Symbolic Z-matrix:
 Charge =  0 Multiplicity = 1

 SCF Done:  E(RwB97XD) =  -1028.44335864     A.U. after   15 cycles
 Total Energy, E(TD-HF/TD-DFT) =  -1028.31164162
 SCF Done:  E(RwB97XD) =  -1028.73129005     A.U. after   13 cycles
 Total Energy, E(TD-HF/TD-DFT) =  -1028.60128938
 SCF Done:  E(RwB97XD) =  -1028.80400428     A.U. after   15 cycles
 Total Energy, E(TD-HF/TD-DFT) =  -1028.67816228
 SCF Done:  E(RwB97XD) =  -1028.81170156     A.U. after   13 cycles
 Total Energy, E(TD-HF/TD-DFT) =  -1028.68475951
 SCF Done:  E(RwB97XD) =  -1028.81232075     A.U. after   11 cycles
 Total Energy, E(TD-HF/TD-DFT) =  -1028.68502194
 SCF Done:  E(RwB97XD) =  -1028.81249774     A.U. after    9 cycles
 Total Energy, E(TD-HF/TD-DFT) =  -1028.68503833
 SCF Done:  E(RwB97XD) =  -1028.81253562     A.U. after    9 cycles
 Total Energy, E(TD-HF/TD-DFT) =  -1028.68504034
 Optimization completed.
    -- Stationary point found.
 Normal termination of Gaussian 16 at Mon Jul 13 20:33:21 2020.

 ----------------------------------------------------------------------
 #P Geom=AllCheck Guess=TCheck SCRF=Check GenChk RwB97XD TD(FC,Read)/CC
 -pVDZ Freq
 ----------------------------------------------------------------------

 Structure from the checkpoint file:  "config_1_7.chk"
 ------------------------------------------------
 NM 2D-scan of HBT TD-WB97XD pVDZ in CTC Relaxed.
 ------------------------------------------------
 Charge =  0 Multiplicity = 1

                          Input orientation:
 ---------------------------------------------------------------------
 Center     Atomic      Atomic             Coordinates (Angstroms)
 Number     Number       Type             X           Y           Z
 ---------------------------------------------------------------------
      1          6           0        1.683241   -3.319544   -0.000022
      2          6           0        0.959413   -2.124811   -0.000014
      3          6           0        1.661909   -0.865803   -0.000009
      4          6           0        3.083386   -0.838656   -0.000011
      5          6           0        3.774173   -2.024406   -0.000020
      6          6           0        3.081230   -3.258721   -0.000026
      7          1           0        1.178237   -4.286523   -0.000025
      8          1           0        3.581909    0.131117   -0.000007
      9          1           0        4.865545   -2.022156   -0.000022
     10          1           0        3.650459   -4.189777   -0.000032
     11          7           0        0.934066    0.242932   -0.000004
     12         16           0       -0.772250   -1.815339   -0.000007
     13          6           0       -1.343174    1.040966   -0.000006
     14          6           0       -2.766658    0.856520   -0.000015
     15          6           0       -0.906731    2.462111    0.000017
     16          6           0       -3.642445    1.924491    0.000023
     17          1           0       -3.159887   -0.161842   -0.000047
     18          6           0       -1.825715    3.511925    0.000065
     19          6           0       -3.184850    3.265592    0.000071
     20          1           0       -4.716085    1.729740    0.000018
     21          1           0       -1.414716    4.521775    0.000090
     22          1           0       -3.895527    4.092394    0.000107
     23          6           0       -0.400622   -0.011064   -0.000006
     24          8           0        0.357617    2.878073   -0.000002
     25          1           0        0.951311    2.103693   -0.000010
 ---------------------------------------------------------------------

 SCF Done:  E(RwB97XD) =  -1028.81253562     A.U. after    1 cycles

 Excitation energies and oscillator strengths:

 Excited state symmetry could not be determined.
 Excited State   1:      Singlet-?Sym    3.4693 eV  357.37 nm  f=0.7558  <S**2>=0.000
      59 -> 60         0.69014
 This state for optimization and/or second-order correction.
 Total Energy, E(TD-HF/TD-DFT) =  -1028.68504033
 Copying the excited state density for this state as the 1-particle RhoCI density.

 Excited state symmetry could not be determined.
 Excited State   2:      Singlet-?Sym    4.3811 eV  283.00 nm  f=0.1508  <S**2>=0.000
      57 -> 60        -0.37411
      58 -> 60        -0.54024
      58 -> 64        -0.10409
      59 -> 62         0.16496

 Excited state symmetry could not be determined.
 Excited State   3:      Singlet-?Sym    4.5185 eV  274.39 nm  f=0.0725  <S**2>=0.000
      57 -> 60         0.50488
      57 -> 64        -0.13071
      58 -> 60        -0.35875
      58 -> 61        -0.10107
      59 -> 61         0.23531

 Alpha  occ. eigenvalues --  -89.08997 -19.29334 -14.46741 -10.39824 -10.38502
 Alpha  occ. eigenvalues --  -10.34860 -10.34584 -10.33330 -10.32410 -10.32185
 Alpha  occ. eigenvalues --  -10.31947 -10.31362 -10.31135 -10.31075 -10.30592
 Alpha  occ. eigenvalues --  -10.30332  -8.10812  -6.05674  -6.05343  -6.04863
 Alpha  occ. eigenvalues --   -1.17607  -1.07949  -0.96637  -0.95486  -0.91223
 Alpha  occ. eigenvalues --   -0.88739  -0.85139  -0.84239  -0.82149  -0.76029
 Alpha  occ. eigenvalues --   -0.71149  -0.70100  -0.69112  -0.68174  -0.63318
 Alpha  occ. eigenvalues --   -0.59958  -0.58940  -0.58343  -0.55973  -0.54412
 Alpha  occ. eigenvalues --   -0.53336  -0.53117  -0.52583  -0.50770  -0.50511
 Alpha  occ. eigenvalues --   -0.48958  -0.48102  -0.45789  -0.45436  -0.44699
 Alpha  occ. eigenvalues --   -0.43709  -0.42926  -0.42036  -0.39789  -0.37587
 Alpha  occ. eigenvalues --   -0.36385  -0.32003  -0.31619  -0.27869
 Alpha virt. eigenvalues --   -0.01919   0.05296   0.06834   0.07003   0.07107
 Alpha virt. eigenvalues --    0.11366   0.12896   0.15107   0.15871   0.17714
 Alpha virt. eigenvalues --    0.18526   0.20390   0.21664   0.22259   0.22821

 Mulliken charges:
               1
     1  C    0.005865
     2  C   -0.211732
     3  C    0.214374
     4  C   -0.014772
     5  C    0.009382
     6  C   -0.010642
     7  H    0.018732
     8  H    0.013204
     9  H    0.017217
    10  H    0.019930
    11  N   -0.332131
    12  S    0.140096
    13  C   -0.080149
    14  C   -0.015765
    15  C    0.075021
    16  C   -0.009381
    17  H    0.014026
    18  C    0.021414
    19  C    0.019497
    20  H    0.012632
    21  H    0.020415
    22  H    0.022797
    23  C    0.068806
    24  O   -0.176819
    25  H    0.157983
 Sum of Mulliken charges =  -0.00000

 Dipole moment (field-independent basis, Debye):
    X=             -0.4271    Y=             -1.3939    Z=              0.0000  Tot=              1.4579
 Quadrupole moment (field-independent basis, Debye-Ang):
   XX=            -83.0705   YY=            -88.8248   ZZ=           -104.5744
   XY=             -6.6098   XZ=             -0.0001   YZ=              0.0003

  Exact polarizability:     410.638    -202.305     404.441      -0.003       0.004      63.601
 Approx polarizability:     282.703     -37.748     265.476      -0.001       0.002      82.511

                      1                      2                      3
                      A                      A                      A
 Frequencies --     26.2557                72.8306               101.8286
 Red. masses --      5.9039                 5.5530                 5.6241
 Frc consts  --      0.0024                 0.0174                 0.0344
 IR Inten    --      1.0074                 0.0094                 1.7630

                      4                      5                      6
                      A                      A                      A
 Frequencies --    107.7428               184.2052               224.8149
 Red. masses --      4.7185                 6.8865                 5.4996
 Frc consts  --      0.0323                 0.1377                 0.1638
 IR Inten    --      0.4935                 0.7624                 0.0018

                      7                      8                      9
                      A                      A                      A
 Frequencies --    248.9858               266.5892               276.9558
 Red. masses --      8.2256                 4.7882                 6.4747
 Frc consts  --      0.3004                 0.2005                 0.2926
 IR Inten    --     10.7083                 0.1918                16.9041

                     10                     11                     12
                      A                      A                      A
 Frequencies --    388.8387               397.9086               438.5089
 Red. masses --      8.4439                 4.6274                 3.3128
 Frc consts  --      0.7522                 0.4317                 0.3753
 IR Inten    --     13.2479                 0.1220                 4.4078

                     13                     14                     15
                      A                      A                      A
 Frequencies --    477.9780               494.7687               496.5012
 Red. masses --      4.7038                 4.3534                 9.1130
 Frc consts  --      0.6332                 0.6279                 1.3236
 IR Inten    --     18.3914                 0.0018                 0.2762

                     16                     17                     18
                      A                      A                      A
 Frequencies --    508.7834               523.1280               544.7820
 Red. masses --      3.1233                 8.2234                 3.8537
 Frc consts  --      0.4764                 1.3259                 0.6739
 IR Inten    --      0.6304                23.8192                 0.8900

                     19                     20                     21
                      A                      A                      A
 Frequencies --    578.5564               636.4438               648.7961
 Red. masses --      7.7732                 7.4966                 7.6071
 Frc consts  --      1.5330                 1.7891                 1.8866
 IR Inten    --     84.0994                51.4188                 8.3980

                     22                     23                     24
                      A                      A                      A
 Frequencies --    697.1255               701.6374               732.3073
 Red. masses --      1.2532                 6.7066                 1.9036
 Frc consts  --      0.3588                 1.9453                 0.6015
 IR Inten    --    115.3948                 8.8385                31.8709

                     25                     26                     27
                      A                      A                      A
 Frequencies --    743.7681               746.7596               773.1743
 Red. masses --      2.7567                 1.2433                 2.0464
 Frc consts  --      0.8985                 0.4085                 0.7208
 IR Inten    --     20.5884                 6.3160                61.4034

                     28                     29                     30
                      A                      A                      A
 Frequencies --    796.1363               829.5651               859.3077
 Red. masses --      6.7985                 1.5318                 1.4339
 Frc consts  --      2.5389                 0.6211                 0.6238
 IR Inten    --     20.8698                 0.0014                 1.5536

                     31                     32                     33
                      A                      A                      A
 Frequencies --    882.7658               929.9740               938.4130
 Red. masses --      6.3358                 1.3422                 7.1186
 Frc consts  --      2.9090                 0.6839                 3.6934
 IR Inten    --     55.2338                 2.9101                 7.9784

                     34                     35                     36
                      A                      A                      A
 Frequencies --    954.2557               971.4857              1000.2615
 Red. masses --      1.3424                 1.3375                 1.3013
 Frc consts  --      0.7202                 0.7437                 0.7671
 IR Inten    --      2.0083                 0.0007                 0.0155

                     37                     38                     39
                      A                      A                      A
 Frequencies --   1035.5466              1042.5643              1067.8318
 Red. masses --      2.1476                 2.2786                 5.2598
 Frc consts  --      1.3569                 1.4592                 3.5337
 IR Inten    --      1.4218                 5.3245                24.5051

                     40                     41                     42
                      A                      A                      A
 Frequencies --   1134.0456              1147.4688              1175.6011
 Red. masses --      1.5587                 1.2962                 1.1808
 Frc consts  --      1.1811                 1.0055                 0.9615
 IR Inten    --     26.2797                15.7917                39.3567

                     43                     44                     45
                      A                      A                      A
 Frequencies --   1179.8758              1209.6809              1225.8198
 Red. masses --      1.1748                 4.5732                 1.4799
 Frc consts  --      0.9636                 3.9428                 1.3102
 IR Inten    --      0.8045               132.5218               116.9157

                     46                     47                     48
                      A                      A                      A
 Frequencies --   1265.9103              1274.5141              1353.6188
 Red. masses --      2.5380                 1.6253                 2.8153
 Frc consts  --      2.3964                 1.5555                 3.0393
 IR Inten    --    223.9586                 1.6844               103.3688

                     49                     50                     51
                      A                      A                      A
 Frequencies --   1365.7783              1397.1287              1418.8734
 Red. masses --      5.2734                 1.9544                 2.3376
 Frc consts  --      5.7956                 2.2477                 2.7728
 IR Inten    --     20.0008               198.1600               194.6609

                     52                     53                     54
                      A                      A                      A
 Frequencies --   1458.8997              1471.5880              1522.1935
 Red. masses --      2.0882                 3.1422                 5.9930
 Frc consts  --      2.6186                 4.0092                 8.1816
 IR Inten    --     62.6602                33.0866                82.9777

                     55                     56                     57
                      A                      A                      A
 Frequencies --   1537.9432              1548.2674              1570.6614
 Red. masses --      4.7333                 5.4549                 4.2883
 Frc consts  --      6.5962                 7.7042                 6.2330
 IR Inten    --     32.0248               495.3027                43.9146

                     58                     59                     60
                      A                      A                      A
 Frequencies --   1593.2465              1640.4367              1653.5801
 Red. masses --      5.5543                 5.5077                 5.9226
 Frc consts  --      8.3070                 8.7324                 9.5415
 IR Inten    --    132.7199               328.0746               227.9330

                     61                     62                     63
                      A                      A                      A
 Frequencies --   3203.2813              3207.6146              3217.3300
 Red. masses --      1.0871                 1.0861                 1.0898
 Frc consts  --      6.5722                 6.5836                 6.6464
 IR Inten    --      2.1179                 8.0541                 3.7835

                     64                     65                     66
                      A                      A                      A
 Frequencies --   3218.1557              3226.5608              3229.0869
 Red. masses --      1.0887                 1.0939                 1.0953
 Frc consts  --      6.6429                 6.7098                 6.7289
 IR Inten    --      1.0707                17.5827                14.0756

                     67                     68                     69
                      A                      A                      A
 Frequencies --   3235.8868              3239.1709              3535.5663
 Red. masses --      1.0994                 1.0992                 1.0680
 Frc consts  --      6.7824                 6.7951                 7.8657
 IR Inten    --     41.6961                27.5753                 0.8534

 - Thermochemistry -
 -------------------
 Temperature   298.150 Kelvin.  Pressure   1.00000 Atm.
 Atom     1 has atomic number  6 and mass  12.00000

 Molecular mass:   227.04049 amu.
 Principal axes and moments of inertia in atomic units:
                           1         2         3
     Eigenvalues --  1375.123416404.121307779.24472
           X           -0.69176   0.72213   0.00000
           Y            0.72213   0.69176  -0.00001
           Z            0.00001   0.00000   1.00000
 This molecule is an asymmetric top.
 Rotational symmetry number  1.
 Warning -- assumption of classical behavior for rotation
           may cause significant error
 Rotational temperatures (Kelvin)      0.06299     0.01352     0.01113
 Rotational constants (GHZ):           1.31242     0.28181     0.23199
 Zero-point vibrational energy     489307.8 (Joules/Mol)
                                  116.94736 (Kcal/Mol)
 Warning -- explicit consideration of  19 degrees of freedom as
           vibrations may cause significant error
 Vibrational temperatures:     37.78   104.79   146.51   155.02   265.03
          (Kelvin)            323.46   358.23   383.56   398.48   559.45
                              572.50   630.92   687.70   711.86   714.35
                              732.03   752.66   783.82   832.41   915.70
                              933.47  1003.01  1009.50  1053.63  1070.12
                             1074.42  1112.43  1145.46  1193.56  1236.35
                             1270.10  1338.03  1350.17  1372.96  1397.75
                             1439.15  1489.92  1500.02  1536.37  1631.64
                             1650.95  1691.43  1697.58  1740.46  1763.68
                             1821.36  1833.74  1947.56  1965.05  2010.16
                             2041.44  2099.03  2117.29  2190.10  2212.76
                             2227.61  2259.83  2292.33  2360.22  2379.13
                             4608.81  4615.04  4629.02  4630.21  4642.30
                             4645.94  4655.72  4660.44  5086.89

 Zero-point correction=                           0.186367 (Hartree/Particle)
 Thermal correction to Energy=                    0.198889
 Thermal correction to Enthalpy=                  0.199833
 Thermal correction to Gibbs Free Energy=         0.146479
 Sum of electronic and zero-point Energies=          -1028.498673
 Sum of electronic and thermal Energies=             -1028.486151
 Sum of electronic and thermal Enthalpies=           -1028.485207
 Sum of electronic and thermal Free Energies=        -1028.538562

                     E (Thermal)             CV                S
                      KCal/Mol        Cal/Mol-Kelvin    Cal/Mol-Kelvin
 Total                  124.805             50.132            112.294
 Electronic               0.000              0.000              0.000
 Translational            0.889              2.981             42.162
 Rotational               0.889              2.981             32.593
 Vibrational            123.027             44.170             37.538
 Vibration     1          0.593              1.985              6.094
 Vibration     2          0.599              1.967              4.075
 Vibration     3          0.604              1.948              3.419
 Vibration     4          0.606              1.943              3.309
 Vibration     5          0.631              1.861              2.285
 Vibration     6          0.649              1.803              1.920
 Vibration     7          0.662              1.764              1.738
 Vibration     8          0.672              1.734              1.618
 Vibration     9          0.678              1.716              1.552
 Vibration    10          0.757              1.494              1.005
 Vibration    11          0.764              1.475              0.970
 Vibration    12          0.799              1.386              0.831
 Vibration    13          0.834              1.299              0.716
 Vibration    14          0.850              1.262              0.671
 Vibration    15          0.852              1.258              0.667
 Vibration    16          0.864              1.231              0.637
 Vibration    17          0.878              1.199              0.603
 Vibration    18          0.900              1.151              0.555
 Vibration    19          0.935              1.078              0.488

 Optimization completed.
    -- Stationary point found.
 Normal termination of Gaussian 16 at Mon Jul 13 20:51:10 2020.
