 Gaussian 16, Revision C.01,
 Gaussian 16:  ES64L-G16RevC.01  3-Jul-2019

 ----------------------------------------------------------------------
 #p opt=addgic freq td wb97xd/cc-pvdz nosymm int=ultrafine scrf=(solven
 t=CarbonTetraChloride)
 ----------------------------------------------------------------------

 ------------------------------------------------
 NM 2D-scan of HBT TD-WB97XD pVDZ in CTC Relaxed.
 ------------------------------------------------
 Symbolic Z-matrix:
 Charge =  0 Multiplicity = 1

 SCF Done:  E(RwB97XD) =  -1028.64571244     A.U. after   15 cycles
 Total Energy, E(TD-HF/TD-DFT) =  -1028.51409777
 SCF Done:  E(RwB97XD) =  -1028.78813560     A.U. after   13 cycles
 Total Energy, E(TD-HF/TD-DFT) =  -1028.65856317
 SCF Done:  E(RwB97XD) =  -1028.79272528     A.U. after   15 cycles
 Total Energy, E(TD-HF/TD-DFT) =  -1028.66804377
 SCF Done:  E(RwB97XD) =  -1028.81186910     A.U. after   13 cycles
 Total Energy, E(TD-HF/TD-DFT) =  -1028.68541779
 SCF Done:  E(RwB97XD) =  -1028.81306952     A.U. after   12 cycles
 Total Energy, E(TD-HF/TD-DFT) =  -1028.68581768
 SCF Done:  E(RwB97XD) =  -1028.81306255     A.U. after   10 cycles
 Total Energy, E(TD-HF/TD-DFT) =  -1028.68589556
 SCF Done:  E(RwB97XD) =  -1028.81315838     A.U. after    9 cycles
 Total Energy, E(TD-HF/TD-DFT) =  -1028.68590460
 Optimization completed.
    -- Stationary point found.
 Normal termination of Gaussian 16 at Mon Jul 13 18:13:29 2020.

 ----------------------------------------------------------------------
 #P Geom=AllCheck Guess=TCheck SCRF=Check GenChk RwB97XD TD(FC,Read)/CC
 -pVDZ Freq
 ----------------------------------------------------------------------

 Structure from the checkpoint file:  "config_2_5.chk"
 ------------------------------------------------
 NM 2D-scan of HBT TD-WB97XD pVDZ in CTC Relaxed.
 ------------------------------------------------
 Charge =  0 Multiplicity = 1

                          Input orientation:
 ---------------------------------------------------------------------
 Center     Atomic      Atomic             Coordinates (Angstroms)
 Number     Number       Type             X           Y           Z
 ---------------------------------------------------------------------
      1          6           0        1.709849   -3.309949   -0.000027
      2          6           0        0.967700   -2.126728   -0.000014
      3          6           0        1.651486   -0.860901   -0.000005
      4          6           0        3.071012   -0.808818   -0.000006
      5          6           0        3.781007   -1.983922   -0.000019
      6          6           0        3.107387   -3.227678   -0.000031
      7          1           0        1.220083   -4.284710   -0.000034
      8          1           0        3.554193    0.168743    0.000002
      9          1           0        4.872217   -1.964181   -0.000022
     10          1           0        3.690508   -4.150057   -0.000041
     11          7           0        0.902526    0.233728    0.000002
     12         16           0       -0.771668   -1.839390   -0.000006
     13          6           0       -1.365872    1.025532   -0.000002
     14          6           0       -2.789834    0.873788   -0.000013
     15          6           0       -0.896287    2.438451    0.000019
     16          6           0       -3.640878    1.964950    0.000022
     17          1           0       -3.208274   -0.134392   -0.000043
     18          6           0       -1.790415    3.511603    0.000063
     19          6           0       -3.154981    3.295963    0.000068
     20          1           0       -4.718731    1.794478    0.000017
     21          1           0       -1.355212    4.511238    0.000085
     22          1           0       -3.848234    4.137327    0.000101
     23          6           0       -0.428984   -0.034998   -0.000002
     24          8           0        0.376825    2.809645   -0.000001
     25          1           0        0.933973    1.998255   -0.000011
 ---------------------------------------------------------------------

 SCF Done:  E(RwB97XD) =  -1028.81315838     A.U. after    1 cycles

 Excitation energies and oscillator strengths:

 Excited state symmetry could not be determined.
 Excited State   1:      Singlet-?Sym    3.4628 eV  358.05 nm  f=0.7298  <S**2>=0.000
      59 -> 60         0.69001
 This state for optimization and/or second-order correction.
 Total Energy, E(TD-HF/TD-DFT) =  -1028.68590459
 Copying the excited state density for this state as the 1-particle RhoCI density.

 Excited state symmetry could not be determined.
 Excited State   2:      Singlet-?Sym    4.3804 eV  283.05 nm  f=0.1925  <S**2>=0.000
      57 -> 60        -0.28678
      58 -> 60        -0.59328
      59 -> 62         0.16776

 Excited state symmetry could not be determined.
 Excited State   3:      Singlet-?Sym    4.5383 eV  273.20 nm  f=0.0563  <S**2>=0.000
      57 -> 60         0.55219
      57 -> 64        -0.13311
      58 -> 60        -0.27312
      58 -> 61        -0.11307
      59 -> 61         0.24287

 Alpha  occ. eigenvalues --  -89.09131 -19.28971 -14.46766 -10.39933 -10.38388
 Alpha  occ. eigenvalues --  -10.34936 -10.34648 -10.33259 -10.32378 -10.32263
 Alpha  occ. eigenvalues --  -10.31906 -10.31416 -10.31207 -10.31147 -10.30525
 Alpha  occ. eigenvalues --  -10.30252  -8.10941  -6.05806  -6.05471  -6.04990
 Alpha  occ. eigenvalues --   -1.17472  -1.08100  -0.96605  -0.95505  -0.91256
 Alpha  occ. eigenvalues --   -0.88761  -0.85007  -0.84282  -0.82224  -0.76012
 Alpha  occ. eigenvalues --   -0.71062  -0.70124  -0.69100  -0.68201  -0.63284
 Alpha  occ. eigenvalues --   -0.60077  -0.58894  -0.58406  -0.55889  -0.54398
 Alpha  occ. eigenvalues --   -0.53442  -0.53070  -0.52623  -0.50894  -0.50456
 Alpha  occ. eigenvalues --   -0.49082  -0.48064  -0.45793  -0.45470  -0.44683
 Alpha  occ. eigenvalues --   -0.43678  -0.42898  -0.42148  -0.39844  -0.37483
 Alpha  occ. eigenvalues --   -0.36402  -0.32095  -0.31524  -0.27875
 Alpha virt. eigenvalues --   -0.01898   0.05223   0.06929   0.06989   0.07098
 Alpha virt. eigenvalues --    0.11273   0.12749   0.15103   0.15827   0.17781
 Alpha virt. eigenvalues --    0.18559   0.20583   0.21679   0.22273   0.22773

 Mulliken charges:
               1
     1  C    0.005442
     2  C   -0.216482
     3  C    0.225747
     4  C   -0.015104
     5  C    0.009813
     6  C   -0.010213
     7  H    0.019251
     8  H    0.014551
     9  H    0.017759
    10  H    0.020290
    11  N   -0.340954
    12  S    0.144578
    13  C   -0.089764
    14  C   -0.014845
    15  C    0.081008
    16  C   -0.012032
    17  H    0.012221
    18  C    0.018867
    19  C    0.020307
    20  H    0.012288
    21  H    0.019707
    22  H    0.022486
    23  C    0.074615
    24  O   -0.181775
    25  H    0.162238
 Sum of Mulliken charges =  -0.00000

 Dipole moment (field-independent basis, Debye):
    X=             -0.3414    Y=             -1.5575    Z=             -0.0000  Tot=              1.5945
 Quadrupole moment (field-independent basis, Debye-Ang):
   XX=            -83.1347   YY=            -88.8867   ZZ=           -104.5617
   XY=             -6.7374   XZ=             -0.0001   YZ=              0.0004

  Exact polarizability:     409.235    -199.220     398.460      -0.002       0.004      63.595
 Approx polarizability:     282.141     -37.372     264.902      -0.001       0.002      82.524

                      1                      2                      3
                      A                      A                      A
 Frequencies --     29.5581                66.8492               107.6324
 Red. masses --      5.9231                 5.8183                 4.6440
 Frc consts  --      0.0030                 0.0153                 0.0317
 IR Inten    --      1.1687                 0.0206                 0.4173

                      4                      5                      6
                      A                      A                      A
 Frequencies --    108.4163               182.9494               224.3890
 Red. masses --      5.6404                 6.7628                 5.4433
 Frc consts  --      0.0391                 0.1334                 0.1615
 IR Inten    --      2.0421                 0.8347                 0.0006

                      7                      8                      9
                      A                      A                      A
 Frequencies --    258.6927               266.5333               284.5265
 Red. masses --      8.2573                 4.7966                 6.5209
 Frc consts  --      0.3256                 0.2008                 0.3110
 IR Inten    --     17.1716                 0.2056                10.5245

                     10                     11                     12
                      A                      A                      A
 Frequencies --    388.5961               396.3592               437.8044
 Red. masses --      8.5952                 4.6591                 3.2857
 Frc consts  --      0.7647                 0.4313                 0.3711
 IR Inten    --     13.5205                 0.1629                 4.5198

                     13                     14                     15
                      A                      A                      A
 Frequencies --    486.5514               494.1938               498.5847
 Red. masses --      4.8798                 4.4293                 8.5253
 Frc consts  --      0.6806                 0.6373                 1.2486
 IR Inten    --     25.8556                 0.1237                 0.4455

                     16                     17                     18
                      A                      A                      A
 Frequencies --    506.0859               524.9771               546.4806
 Red. masses --      3.1260                 8.0710                 3.9385
 Frc consts  --      0.4717                 1.3106                 0.6930
 IR Inten    --      0.3503                21.9797                 0.3411

                     19                     20                     21
                      A                      A                      A
 Frequencies --    578.8017               637.0764               655.5891
 Red. masses --      7.7530                 7.1425                 8.1009
 Frc consts  --      1.5303                 1.7080                 2.0514
 IR Inten    --     73.0684                52.0102                12.6353

                     22                     23                     24
                      A                      A                      A
 Frequencies --    702.5835               715.2883               732.3401
 Red. masses --      6.8319                 1.7851                 1.8890
 Frc consts  --      1.9870                 0.5381                 0.5969
 IR Inten    --      9.5643                56.9462                31.9404

                     25                     26                     27
                      A                      A                      A
 Frequencies --    747.3894               771.6629               797.2330
 Red. masses --      1.7851                 2.0311                 6.6838
 Frc consts  --      0.5875                 0.7126                 2.5029
 IR Inten    --     30.8503                48.0653                19.6152

                     28                     29                     30
                      A                      A                      A
 Frequencies --    804.3165               831.3563               858.1863
 Red. masses --      1.2675                 1.3970                 1.4348
 Frc consts  --      0.4831                 0.5689                 0.6226
 IR Inten    --     57.9878                 5.0324                 2.6097

                     31                     32                     33
                      A                      A                      A
 Frequencies --    886.1362               927.6639               943.3704
 Red. masses --      6.3345                 1.3429                 7.1192
 Frc consts  --      2.9307                 0.6809                 3.7329
 IR Inten    --     50.6626                 2.4158                 7.9997

                     34                     35                     36
                      A                      A                      A
 Frequencies --    952.8557               969.1046               999.5081
 Red. masses --      1.3436                 1.3438                 1.3007
 Frc consts  --      0.7187                 0.7436                 0.7656
 IR Inten    --      1.9572                 0.0079                 0.0113

                     37                     38                     39
                      A                      A                      A
 Frequencies --   1035.9395              1039.2243              1066.8147
 Red. masses --      2.1492                 2.2511                 5.1376
 Frc consts  --      1.3589                 1.4324                 3.4450
 IR Inten    --      1.7739                 3.7784                28.1940

                     40                     41                     42
                      A                      A                      A
 Frequencies --   1134.6280              1146.7446              1174.8881
 Red. masses --      1.5196                 1.2980                 1.1595
 Frc consts  --      1.1526                 1.0057                 0.9430
 IR Inten    --     38.4469                15.4606                22.8729

                     43                     44                     45
                      A                      A                      A
 Frequencies --   1178.1922              1217.0289              1228.5230
 Red. masses --      1.1633                 5.6100                 1.5826
 Frc consts  --      0.9514                 4.8957                 1.4073
 IR Inten    --      9.4690               121.4812               141.1771

                     46                     47                     48
                      A                      A                      A
 Frequencies --   1273.9960              1277.1648              1358.5339
 Red. masses --      1.8630                 2.1186                 2.8691
 Frc consts  --      1.7816                 2.0361                 3.1199
 IR Inten    --     92.5474               142.9003                94.7483

                     49                     50                     51
                      A                      A                      A
 Frequencies --   1368.4251              1401.0029              1427.4219
 Red. masses --      5.3549                 1.9994                 2.3693
 Frc consts  --      5.9081                 2.3123                 2.8443
 IR Inten    --     19.3420                75.0908               256.1277

                     52                     53                     54
                      A                      A                      A
 Frequencies --   1466.8548              1472.6650              1521.4786
 Red. masses --      1.9626                 3.1701                 6.1182
 Frc consts  --      2.4880                 4.0507                 8.3445
 IR Inten    --    130.3781                33.7027               112.5763

                     55                     56                     57
                      A                      A                      A
 Frequencies --   1536.5091              1545.7968              1571.7379
 Red. masses --      5.4898                 5.3912                 3.4046
 Frc consts  --      7.6362                 7.5899                 4.9554
 IR Inten    --    227.4017               397.2618               100.7138

                     58                     59                     60
                      A                      A                      A
 Frequencies --   1596.9822              1636.7792              1653.6909
 Red. masses --      5.2742                 5.5023                 5.9872
 Frc consts  --      7.9251                 8.6851                 9.6468
 IR Inten    --     88.4522               381.8947               200.3248

                     61                     62                     63
                      A                      A                      A
 Frequencies --   3203.4043              3207.5595              3216.6508
 Red. masses --      1.0870                 1.0859                 1.0898
 Frc consts  --      6.5720                 6.5825                 6.6435
 IR Inten    --      2.6315                 7.9007                 3.3727

                     64                     65                     66
                      A                      A                      A
 Frequencies --   3217.6856              3226.3667              3228.0987
 Red. masses --      1.0891                 1.0935                 1.0952
 Frc consts  --      6.6437                 6.7068                 6.7244
 IR Inten    --      1.8252                19.9090                12.4778

                     67                     68                     69
                      A                      A                      A
 Frequencies --   3235.1765              3238.8938              3374.1668
 Red. masses --      1.0995                 1.0992                 1.0683
 Frc consts  --      6.7802                 6.7937                 7.1661
 IR Inten    --     41.8571                25.3685                13.7533

 - Thermochemistry -
 -------------------
 Temperature   298.150 Kelvin.  Pressure   1.00000 Atm.
 Atom     1 has atomic number  6 and mass  12.00000

 Molecular mass:   227.04049 amu.
 Principal axes and moments of inertia in atomic units:
                           1         2         3
     Eigenvalues --  1373.100396382.869577755.96996
           X           -0.69355   0.72041   0.00000
           Y            0.72041   0.69355  -0.00001
           Z            0.00001   0.00000   1.00000
 This molecule is an asymmetric top.
 Rotational symmetry number  1.
 Warning -- assumption of classical behavior for rotation
           may cause significant error
 Rotational temperatures (Kelvin)      0.06308     0.01357     0.01117
 Rotational constants (GHZ):           1.31435     0.28275     0.23269
 Zero-point vibrational energy     489264.7 (Joules/Mol)
                                  116.93707 (Kcal/Mol)
 Warning -- explicit consideration of  19 degrees of freedom as
           vibrations may cause significant error
 Vibrational temperatures:     42.53    96.18   154.86   155.99   263.22
          (Kelvin)            322.85   372.20   383.48   409.37   559.10
                              570.27   629.90   700.04   711.03   717.35
                              728.14   755.32   786.26   832.77   916.61
                              943.25  1010.86  1029.14  1053.67  1075.33
                             1110.25  1147.04  1157.23  1196.14  1234.74
                             1274.95  1334.70  1357.30  1370.95  1394.33
                             1438.07  1490.49  1495.21  1534.91  1632.48
                             1649.91  1690.40  1695.16  1751.03  1767.57
                             1833.00  1837.56  1954.63  1968.86  2015.73
                             2053.74  2110.48  2118.84  2189.07  2210.69
                             2224.06  2261.38  2297.70  2354.96  2379.29
                             4608.98  4614.96  4628.04  4629.53  4642.02
                             4644.51  4654.70  4660.05  4854.67

 Zero-point correction=                           0.186351 (Hartree/Particle)
 Thermal correction to Energy=                    0.198806
 Thermal correction to Enthalpy=                  0.199751
 Thermal correction to Gibbs Free Energy=         0.146587
 Sum of electronic and zero-point Energies=          -1028.499554
 Sum of electronic and thermal Energies=             -1028.487098
 Sum of electronic and thermal Enthalpies=           -1028.486154
 Sum of electronic and thermal Free Energies=        -1028.539317

                     E (Thermal)             CV                S
                      KCal/Mol        Cal/Mol-Kelvin    Cal/Mol-Kelvin
 Total                  124.753             49.907            111.891
 Electronic               0.000              0.000              0.000
 Translational            0.889              2.981             42.162
 Rotational               0.889              2.981             32.586
 Vibrational            122.975             43.945             37.143
 Vibration     1          0.593              1.984              5.859
 Vibration     2          0.598              1.970              4.244
 Vibration     3          0.606              1.943              3.311
 Vibration     4          0.606              1.942              3.297
 Vibration     5          0.630              1.863              2.298
 Vibration     6          0.649              1.804              1.923
 Vibration     7          0.668              1.748              1.671
 Vibration     8          0.672              1.735              1.619
 Vibration     9          0.683              1.702              1.506
 Vibration    10          0.757              1.495              1.006
 Vibration    11          0.763              1.478              0.976
 Vibration    12          0.798              1.388              0.834
 Vibration    13          0.843              1.280              0.693
 Vibration    14          0.850              1.263              0.673
 Vibration    15          0.854              1.253              0.662
 Vibration    16          0.861              1.237              0.643
 Vibration    17          0.880              1.195              0.599
 Vibration    18          0.902              1.147              0.552
 Vibration    19          0.935              1.077              0.488

 Optimization completed.
    -- Stationary point found.
 Normal termination of Gaussian 16 at Mon Jul 13 18:31:06 2020.
