 Gaussian 16, Revision C.01,
 Gaussian 16:  ES64L-G16RevC.01  3-Jul-2019

 ----------------------------------------------------------------------
 #p opt=addgic freq td wb97xd/cc-pvdz nosymm int=ultrafine scrf=(solven
 t=CarbonTetraChloride)
 ----------------------------------------------------------------------

 ------------------------------------------------
 NM 2D-scan of HBT TD-WB97XD pVDZ in CTC Relaxed.
 ------------------------------------------------
 Symbolic Z-matrix:
 Charge =  0 Multiplicity = 1

 SCF Done:  E(RwB97XD) =  -1028.80671751     A.U. after   15 cycles
 Total Energy, E(TD-HF/TD-DFT) =  -1028.67563258
 SCF Done:  E(RwB97XD) =  -1028.82094685     A.U. after   13 cycles
 Total Energy, E(TD-HF/TD-DFT) =  -1028.69181683
 SCF Done:  E(RwB97XD) =  -1028.82067475     A.U. after   12 cycles
 Total Energy, E(TD-HF/TD-DFT) =  -1028.69286465
 SCF Done:  E(RwB97XD) =  -1028.82096511     A.U. after   11 cycles
 Total Energy, E(TD-HF/TD-DFT) =  -1028.69291704
 SCF Done:  E(RwB97XD) =  -1028.82101344     A.U. after   10 cycles
 Total Energy, E(TD-HF/TD-DFT) =  -1028.69302530
 SCF Done:  E(RwB97XD) =  -1028.82103855     A.U. after    8 cycles
 Total Energy, E(TD-HF/TD-DFT) =  -1028.69302651
 Optimization completed.
    -- Stationary point found.
 Normal termination of Gaussian 16 at Mon Jul 13 17:13:47 2020.

 ----------------------------------------------------------------------
 #P Geom=AllCheck Guess=TCheck SCRF=Check GenChk RwB97XD TD(FC,Read)/CC
 -pVDZ Freq
 ----------------------------------------------------------------------

 Structure from the checkpoint file:  "config_3_13.chk"
 ------------------------------------------------
 NM 2D-scan of HBT TD-WB97XD pVDZ in CTC Relaxed.
 ------------------------------------------------
 Charge =  0 Multiplicity = 1

                          Input orientation:
 ---------------------------------------------------------------------
 Center     Atomic      Atomic             Coordinates (Angstroms)
 Number     Number       Type             X           Y           Z
 ---------------------------------------------------------------------
      1          6           0        1.592325   -3.279412   -0.000037
      2          6           0        0.980811   -2.029083   -0.000025
      3          6           0        1.738812   -0.810275   -0.000004
      4          6           0        3.156005   -0.901667    0.000005
      5          6           0        3.749433   -2.149729   -0.000007
      6          6           0        2.983555   -3.335295   -0.000028
      7          1           0        0.995024   -4.191995   -0.000053
      8          1           0        3.749738    0.013024    0.000021
      9          1           0        4.838589   -2.222757    0.000000
     10          1           0        3.485396   -4.303860   -0.000036
     11          7           0        1.010503    0.319622    0.000003
     12         16           0       -0.726812   -1.674386   -0.000032
     13          6           0       -1.319698    1.058446    0.000005
     14          6           0       -2.712687    0.778517    0.000018
     15          6           0       -0.916842    2.472999    0.000018
     16          6           0       -3.643569    1.805051    0.000042
     17          1           0       -3.048789   -0.259522    0.000013
     18          6           0       -1.887337    3.485603    0.000045
     19          6           0       -3.240525    3.160509    0.000056
     20          1           0       -4.707300    1.562102    0.000053
     21          1           0       -1.543063    4.520199    0.000052
     22          1           0       -3.991246    3.951347    0.000075
     23          6           0       -0.328002    0.060601   -0.000011
     24          8           0        0.356659    2.792787   -0.000004
     25          1           0        0.899945    1.925170   -0.000057
 ---------------------------------------------------------------------

 SCF Done:  E(RwB97XD) =  -1028.82103855     A.U. after    1 cycles

 Excitation energies and oscillator strengths:

 Excited state symmetry could not be determined.
 Excited State   1:      Singlet-?Sym    3.4834 eV  355.93 nm  f=0.6851  <S**2>=0.000
      59 -> 60         0.68907
 This state for optimization and/or second-order correction.
 Total Energy, E(TD-HF/TD-DFT) =  -1028.69302649
 Copying the excited state density for this state as the 1-particle RhoCI density.

 Excited state symmetry could not be determined.
 Excited State   2:      Singlet-?Sym    4.3890 eV  282.49 nm  f=0.1873  <S**2>=0.000
      57 -> 60         0.29185
      58 -> 60         0.59448
      59 -> 62         0.13433

 Excited state symmetry could not be determined.
 Excited State   3:      Singlet-?Sym    4.5972 eV  269.70 nm  f=0.0803  <S**2>=0.000
      57 -> 60         0.55285
      57 -> 62        -0.12843
      58 -> 60        -0.28448
      58 -> 61        -0.11937
      59 -> 61         0.22007

 Alpha  occ. eigenvalues --  -89.08904 -19.28330 -14.47269 -10.39736 -10.38128
 Alpha  occ. eigenvalues --  -10.35136 -10.34689 -10.32452 -10.32319 -10.32110
 Alpha  occ. eigenvalues --  -10.32038 -10.31482 -10.31385 -10.31295 -10.30509
 Alpha  occ. eigenvalues --  -10.30435  -8.10896  -6.05738  -6.05400  -6.04957
 Alpha  occ. eigenvalues --   -1.17039  -1.08266  -0.96763  -0.95749  -0.91945
 Alpha  occ. eigenvalues --   -0.88809  -0.85008  -0.84512  -0.82313  -0.75961
 Alpha  occ. eigenvalues --   -0.71200  -0.70203  -0.69170  -0.68201  -0.63556
 Alpha  occ. eigenvalues --   -0.60415  -0.58930  -0.58658  -0.55956  -0.54446
 Alpha  occ. eigenvalues --   -0.53822  -0.53248  -0.52956  -0.50724  -0.50434
 Alpha  occ. eigenvalues --   -0.49354  -0.47616  -0.45928  -0.45616  -0.44783
 Alpha  occ. eigenvalues --   -0.44005  -0.42931  -0.42254  -0.40041  -0.37367
 Alpha  occ. eigenvalues --   -0.36456  -0.32065  -0.31517  -0.28067
 Alpha virt. eigenvalues --   -0.01807   0.05143   0.06930   0.07151   0.07595
 Alpha virt. eigenvalues --    0.11114   0.14150   0.15183   0.16537   0.18057
 Alpha virt. eigenvalues --    0.18559   0.21100   0.21606   0.22354   0.22705

 Mulliken charges:
               1
     1  C    0.017070
     2  C   -0.220468
     3  C    0.223995
     4  C   -0.018541
     5  C    0.006533
     6  C   -0.005865
     7  H    0.017366
     8  H    0.017203
     9  H    0.018732
    10  H    0.020249
    11  N   -0.363039
    12  S    0.157366
    13  C   -0.080493
    14  C   -0.023497
    15  C    0.087645
    16  C   -0.011530
    17  H    0.018424
    18  C    0.006386
    19  C    0.022681
    20  H    0.011259
    21  H    0.019149
    22  H    0.023078
    23  C    0.084254
    24  O   -0.208686
    25  H    0.180727
 Sum of Mulliken charges =  -0.00000

 Dipole moment (field-independent basis, Debye):
    X=             -0.5519    Y=             -2.1043    Z=             -0.0001  Tot=              2.1755
 Quadrupole moment (field-independent basis, Debye-Ang):
   XX=            -83.2115   YY=            -89.4397   ZZ=           -104.3475
   XY=             -7.0351   XZ=             -0.0002   YZ=              0.0001

  Exact polarizability:     398.078    -189.144     380.851      -0.002       0.004      63.360
 Approx polarizability:     277.979     -36.266     260.510      -0.001       0.002      82.370

                      1                      2                      3
                      A                      A                      A
 Frequencies --     44.3518                61.8045               108.4602
 Red. masses --      6.0200                 5.6460                 5.0255
 Frc consts  --      0.0070                 0.0127                 0.0348
 IR Inten    --      1.4593                 0.0003                 0.1792

                      4                      5                      6
                      A                      A                      A
 Frequencies --    114.1082               179.0926               223.5286
 Red. masses --      5.6327                 6.5334                 5.3576
 Frc consts  --      0.0432                 0.1235                 0.1577
 IR Inten    --      1.9794                 1.2738                 0.0000

                      7                      8                      9
                      A                      A                      A
 Frequencies --    270.6039               271.7379               303.6990
 Red. masses --      7.7451                 4.8302                 6.6335
 Frc consts  --      0.3342                 0.2101                 0.3605
 IR Inten    --     27.3336                 0.0515                 5.4554

                     10                     11                     12
                      A                      A                      A
 Frequencies --    388.7888               405.7578               439.7633
 Red. masses --      4.5861                 9.3289                 3.2526
 Frc consts  --      0.4084                 0.9049                 0.3706
 IR Inten    --      0.0855                13.3470                 4.1119

                     13                     14                     15
                      A                      A                      A
 Frequencies --    489.2503               500.2497               505.6350
 Red. masses --      4.5571                 7.9572                 3.1610
 Frc consts  --      0.6427                 1.1732                 0.4762
 IR Inten    --      0.1532                 4.5776                 0.0064

                     16                     17                     18
                      A                      A                      A
 Frequencies --    517.3576               526.0959               553.5342
 Red. masses --      4.8828                 8.4560                 3.9769
 Frc consts  --      0.7700                 1.3789                 0.7179
 IR Inten    --     24.6446                34.6107                 0.1308

                     19                     20                     21
                      A                      A                      A
 Frequencies --    577.1543               643.4082               702.0027
 Red. masses --      7.6679                 6.6053                 8.9985
 Frc consts  --      1.5049                 1.6111                 2.6128
 IR Inten    --     31.8245                30.4864                30.9930

                     22                     23                     24
                      A                      A                      A
 Frequencies --    717.5557               718.5333               737.7451
 Red. masses --      1.6869                 7.4261                 1.8221
 Frc consts  --      0.5117                 2.2589                 0.5843
 IR Inten    --     49.9510                22.6542                38.1462

                     25                     26                     27
                      A                      A                      A
 Frequencies --    746.6802               770.7260               815.5531
 Red. masses --      1.9053                 2.1503                 1.6964
 Frc consts  --      0.6259                 0.7526                 0.6648
 IR Inten    --     18.6869                50.1616                 1.8258

                     28                     29                     30
                      A                      A                      A
 Frequencies --    818.8853               860.3830               889.6591
 Red. masses --      6.3652                 1.4249                 6.4359
 Frc consts  --      2.5148                 0.6215                 3.0013
 IR Inten    --     16.8614                 0.8753                61.4656

                     31                     32                     33
                      A                      A                      A
 Frequencies --    916.7813               953.2071               966.1686
 Red. masses --      1.3473                 1.3443                 1.3566
 Frc consts  --      0.6672                 0.7196                 0.7461
 IR Inten    --      6.6211                 1.9332                 0.1017

                     34                     35                     36
                      A                      A                      A
 Frequencies --    966.2129               999.1106              1006.2141
 Red. masses --      7.2976                 1.2977                 1.0661
 Frc consts  --      4.0140                 0.7632                 0.6360
 IR Inten    --      6.8686                 1.0466                65.1252

                     37                     38                     39
                      A                      A                      A
 Frequencies --   1041.4467              1042.4724              1082.8862
 Red. masses --      2.1712                 2.0906                 4.4741
 Frc consts  --      1.3875                 1.3386                 3.0912
 IR Inten    --      1.9894                 1.2660                56.4575

                     40                     41                     42
                      A                      A                      A
 Frequencies --   1136.5973              1149.9309              1177.1386
 Red. masses --      1.4678                 1.3418                 1.1572
 Frc consts  --      1.1172                 1.0454                 0.9448
 IR Inten    --     62.4743                15.2458                 8.4484

                     43                     44                     45
                      A                      A                      A
 Frequencies --   1179.4886              1230.7662              1247.2267
 Red. masses --      1.2188                 4.8248                 1.7563
 Frc consts  --      0.9990                 4.3061                 1.6097
 IR Inten    --     32.8619                40.9649               171.0392

                     46                     47                     48
                      A                      A                      A
 Frequencies --   1280.4365              1318.7520              1363.9138
 Red. masses --      1.6842                 3.8756                 2.5955
 Frc consts  --      1.6269                 3.9711                 2.8447
 IR Inten    --      1.6106               318.8193                17.1174

                     49                     50                     51
                      A                      A                      A
 Frequencies --   1372.9340              1401.8064              1444.1799
 Red. masses --      5.7574                 2.1136                 2.4987
 Frc consts  --      6.3941                 2.4471                 3.0705
 IR Inten    --     82.2508                 9.6815               148.1557

                     52                     53                     54
                      A                      A                      A
 Frequencies --   1472.2615              1499.5150              1528.9664
 Red. masses --      3.6533                 3.7586                 3.0852
 Frc consts  --      4.6656                 4.9795                 4.2494
 IR Inten    --     67.9575                32.6478               198.2238

                     55                     56                     57
                      A                      A                      A
 Frequencies --   1542.7379              1573.9802              1599.2461
 Red. masses --      4.4365                 7.3864                 5.2206
 Frc consts  --      6.2212                10.7816                 7.8669
 IR Inten    --      1.4352               284.9353               296.9225

                     58                     59                     60
                      A                      A                      A
 Frequencies --   1617.9280              1630.2713              1649.7947
 Red. masses --      5.0627                 1.9193                 3.6400
 Frc consts  --      7.8082                 3.0054                 5.8373
 IR Inten    --    810.9448               168.5870                99.7787

                     61                     62                     63
                      A                      A                      A
 Frequencies --   2658.4935              3207.5292              3210.5523
 Red. masses --      1.0865                 1.0862                 1.0862
 Frc consts  --      4.5243                 6.5842                 6.5963
 IR Inten    --    112.7733                 9.6442                 6.3383

                     64                     65                     66
                      A                      A                      A
 Frequencies --   3218.4723              3221.7977              3229.4748
 Red. masses --      1.0898                 1.0891                 1.0944
 Frc consts  --      6.6514                 6.6606                 6.7252
 IR Inten    --      2.9478                 2.9139                15.6044

                     67                     68                     69
                      A                      A                      A
 Frequencies --   3230.3966              3236.2382              3240.8477
 Red. masses --      1.0953                 1.0990                 1.0984
 Frc consts  --      6.7345                 6.7814                 6.7972
 IR Inten    --     10.5170                39.8363                26.7175

 - Thermochemistry -
 -------------------
 Temperature   298.150 Kelvin.  Pressure   1.00000 Atm.
 Atom     1 has atomic number  6 and mass  12.00000

 Molecular mass:   227.04049 amu.
 Principal axes and moments of inertia in atomic units:
                           1         2         3
     Eigenvalues --  1313.125066331.998717645.12377
           X           -0.70039   0.71376   0.00000
           Y            0.71376   0.70039  -0.00001
           Z            0.00001   0.00001   1.00000
 This molecule is an asymmetric top.
 Rotational symmetry number  1.
 Warning -- assumption of classical behavior for rotation
           may cause significant error
 Rotational temperatures (Kelvin)      0.06596     0.01368     0.01133
 Rotational constants (GHZ):           1.37439     0.28502     0.23606
 Zero-point vibrational energy     488963.3 (Joules/Mol)
                                  116.86503 (Kcal/Mol)
 Warning -- explicit consideration of  19 degrees of freedom as
           vibrations may cause significant error
 Vibrational temperatures:     63.81    88.92   156.05   164.18   257.67
          (Kelvin)            321.61   389.34   390.97   436.96   559.38
                              583.80   632.72   703.92   719.75   727.50
                              744.36   756.93   796.41   830.40   925.72
                             1010.03  1032.40  1033.81  1061.45  1074.31
                             1108.90  1173.40  1178.19  1237.90  1280.02
                             1319.04  1371.45  1390.10  1390.16  1437.50
                             1447.72  1498.41  1499.89  1558.03  1635.31
                             1654.49  1693.64  1697.02  1770.80  1794.48
                             1842.26  1897.39  1962.37  1975.35  2016.89
                             2077.85  2118.26  2157.47  2199.84  2219.66
                             2264.61  2300.96  2327.84  2345.60  2373.69
                             3824.98  4614.92  4619.27  4630.66  4635.45
                             4646.49  4647.82  4656.22  4662.86

 Zero-point correction=                           0.186236 (Hartree/Particle)
 Thermal correction to Energy=                    0.198495
 Thermal correction to Enthalpy=                  0.199440
 Thermal correction to Gibbs Free Energy=         0.146928
 Sum of electronic and zero-point Energies=          -1028.506790
 Sum of electronic and thermal Energies=             -1028.494531
 Sum of electronic and thermal Enthalpies=           -1028.493587
 Sum of electronic and thermal Free Energies=        -1028.546098

                     E (Thermal)             CV                S
                      KCal/Mol        Cal/Mol-Kelvin    Cal/Mol-Kelvin
 Total                  124.558             49.186            110.519
 Electronic               0.000              0.000              0.000
 Translational            0.889              2.981             42.162
 Rotational               0.889              2.981             32.519
 Vibrational            122.780             43.224             35.838
 Vibration     1          0.595              1.980              5.055
 Vibration     2          0.597              1.973              4.399
 Vibration     3          0.606              1.942              3.296
 Vibration     4          0.607              1.938              3.198
 Vibration     5          0.629              1.868              2.338
 Vibration     6          0.649              1.805              1.930
 Vibration     7          0.674              1.727              1.592
 Vibration     8          0.675              1.725              1.585
 Vibration     9          0.695              1.667              1.396
 Vibration    10          0.757              1.494              1.005
 Vibration    11          0.771              1.458              0.942
 Vibration    12          0.800              1.383              0.827
 Vibration    13          0.845              1.274              0.686
 Vibration    14          0.856              1.249              0.657
 Vibration    15          0.861              1.238              0.644
 Vibration    16          0.872              1.212              0.616
 Vibration    17          0.881              1.192              0.596
 Vibration    18          0.909              1.132              0.537
 Vibration    19          0.934              1.081              0.491

 Optimization completed.
    -- Stationary point found.
 Normal termination of Gaussian 16 at Mon Jul 13 17:31:24 2020.
