 Gaussian 16, Revision C.01,
 Gaussian 16:  ES64L-G16RevC.01  3-Jul-2019

 ----------------------------------------------------------------------
 #p opt=addgic freq td wb97xd/cc-pvdz nosymm int=ultrafine scrf=(solven
 t=CarbonTetraChloride)
 ----------------------------------------------------------------------

 ------------------------------------------------
 NM 2D-scan of HBT TD-WB97XD pVDZ in CTC Relaxed.
 ------------------------------------------------
 Symbolic Z-matrix:
 Charge =  0 Multiplicity = 1

 SCF Done:  E(RwB97XD) =  -1028.65003240     A.U. after   16 cycles
 Total Energy, E(TD-HF/TD-DFT) =  -1028.54566106
 SCF Done:  E(RwB97XD) =  -1028.75978400     A.U. after   14 cycles
 Total Energy, E(TD-HF/TD-DFT) =  -1028.65782198
 SCF Done:  E(RwB97XD) =  -1028.75915103     A.U. after   13 cycles
 Total Energy, E(TD-HF/TD-DFT) =  -1028.66157572
 SCF Done:  E(RwB97XD) =  -1028.78285365     A.U. after   14 cycles
 Total Energy, E(TD-HF/TD-DFT) =  -1028.67990645
 SCF Done:  E(RwB97XD) =  -1028.78197957     A.U. after   13 cycles
 Total Energy, E(TD-HF/TD-DFT) =  -1028.68160165
 SCF Done:  E(RwB97XD) =  -1028.78267714     A.U. after   11 cycles
 Total Energy, E(TD-HF/TD-DFT) =  -1028.68168483
 SCF Done:  E(RwB97XD) =  -1028.78261987     A.U. after    9 cycles
 Total Energy, E(TD-HF/TD-DFT) =  -1028.68168783
 SCF Done:  E(RwB97XD) =  -1028.78258428     A.U. after    9 cycles
 Total Energy, E(TD-HF/TD-DFT) =  -1028.68168819
 Optimization completed.
    -- Stationary point found.
 Normal termination of Gaussian 16 at Mon Jul 13 21:32:23 2020.

 ----------------------------------------------------------------------
 #P Geom=AllCheck Guess=TCheck SCRF=Check GenChk RwB97XD TD(FC,Read)/CC
 -pVDZ Freq
 ----------------------------------------------------------------------

 Structure from the checkpoint file:  "config_12_2.chk"
 ------------------------------------------------
 NM 2D-scan of HBT TD-WB97XD pVDZ in CTC Relaxed.
 ------------------------------------------------
 Charge =  0 Multiplicity = 1

                          Input orientation:
 ---------------------------------------------------------------------
 Center     Atomic      Atomic             Coordinates (Angstroms)
 Number     Number       Type             X           Y           Z
 ---------------------------------------------------------------------
      1          6           0        1.777095   -3.292636   -0.001045
      2          6           0        1.035988   -2.115559   -0.000381
      3          6           0        1.700158   -0.896503    0.000631
      4          6           0        3.095436   -0.783445    0.001042
      5          6           0        3.823801   -1.965188    0.000389
      6          6           0        3.173919   -3.204252   -0.000654
      7          1           0        1.286880   -4.266062   -0.001846
      8          1           0        3.577589    0.194834    0.001808
      9          1           0        4.914016   -1.924228    0.000664
     10          1           0        3.763063   -4.121757   -0.001165
     11          7           0        0.819780    0.130357    0.001041
     12         16           0       -0.731646   -1.821168   -0.000528
     13          6           0       -1.457032    1.053179    0.000230
     14          6           0       -2.831129    0.941187    0.000822
     15          6           0       -0.855813    2.422765   -0.000741
     16          6           0       -3.702639    2.086460    0.000612
     17          1           0       -3.291569   -0.050328    0.001551
     18          6           0       -1.783966    3.526066   -0.000908
     19          6           0       -3.179665    3.366918   -0.000246
     20          1           0       -4.780861    1.919758    0.001119
     21          1           0       -1.332847    4.520290   -0.001807
     22          1           0       -3.837839    4.237126   -0.000460
     23          6           0       -0.525809   -0.073731    0.000329
     24          8           0        0.379444    2.578239   -0.001928
     25          1           0        1.280791    1.003584    0.001538
 ---------------------------------------------------------------------

 SCF Done:  E(RwB97XD) =  -1028.78258428     A.U. after    1 cycles

 Excitation energies and oscillator strengths:

 Excited state symmetry could not be determined.
 Excited State   1:      Singlet-?Sym    2.7455 eV  451.59 nm  f=0.4223  <S**2>=0.000
      59 -> 60         0.69639
 This state for optimization and/or second-order correction.
 Total Energy, E(TD-HF/TD-DFT) =  -1028.68168821
 Copying the excited state density for this state as the 1-particle RhoCI density.

 Excited state symmetry could not be determined.
 Excited State   2:      Singlet-?Sym    3.4091 eV  363.68 nm  f=0.0000  <S**2>=0.000
      58 -> 60         0.68397
      58 -> 62         0.11648
      58 -> 64         0.10620

 Excited state symmetry could not be determined.
 Excited State   3:      Singlet-?Sym    4.3334 eV  286.11 nm  f=0.5108  <S**2>=0.000
      57 -> 60         0.68149

 Alpha  occ. eigenvalues --  -89.10941 -19.20484 -14.52146 -10.42912 -10.37064
 Alpha  occ. eigenvalues --  -10.36391 -10.35676 -10.33758 -10.33293 -10.32909
 Alpha  occ. eigenvalues --  -10.32642 -10.31434 -10.31353 -10.30424 -10.28971
 Alpha  occ. eigenvalues --  -10.28014  -8.12846  -6.07743  -6.07345  -6.06859
 Alpha  occ. eigenvalues --   -1.13665  -1.09671  -0.98667  -0.95097  -0.93194
 Alpha  occ. eigenvalues --   -0.89210  -0.86604  -0.84302  -0.80516  -0.76152
 Alpha  occ. eigenvalues --   -0.74436  -0.71607  -0.69384  -0.67326  -0.64729
 Alpha  occ. eigenvalues --   -0.60968  -0.59887  -0.56549  -0.56273  -0.55960
 Alpha  occ. eigenvalues --   -0.55063  -0.53492  -0.52959  -0.50785  -0.48836
 Alpha  occ. eigenvalues --   -0.48725  -0.48090  -0.46982  -0.45593  -0.44749
 Alpha  occ. eigenvalues --   -0.44291  -0.42728  -0.42014  -0.40064  -0.36960
 Alpha  occ. eigenvalues --   -0.33883  -0.31607  -0.30918  -0.25359
 Alpha virt. eigenvalues --   -0.02283   0.03482   0.05951   0.06349   0.09694
 Alpha virt. eigenvalues --    0.10722   0.11192   0.14439   0.16019   0.16902
 Alpha virt. eigenvalues --    0.18542   0.19836   0.20942   0.21302   0.22855

 Mulliken charges:
               1
     1  C    0.009398
     2  C   -0.255616
     3  C    0.230708
     4  C   -0.012318
     5  C    0.015897
     6  C    0.001356
     7  H    0.027804
     8  H    0.036739
     9  H    0.029796
    10  H    0.028279
    11  N   -0.060742
    12  S    0.196311
    13  C   -0.112962
    14  C   -0.023487
    15  C    0.119613
    16  C   -0.042624
    17  H   -0.000755
    18  C   -0.048709
    19  C    0.035828
    20  H    0.001607
    21  H   -0.002050
    22  H    0.012830
    23  C    0.084164
    24  O   -0.385860
    25  H    0.114792
 Sum of Mulliken charges =  -0.00000

 Dipole moment (field-independent basis, Debye):
    X=              2.5120    Y=             -5.8965    Z=              0.0048  Tot=              6.4093
 Quadrupole moment (field-independent basis, Debye-Ang):
   XX=            -81.9520   YY=            -95.4685   ZZ=           -104.2660
   XY=             -6.3298   XZ=              0.0054   YZ=              0.0156

  Exact polarizability:     348.308    -119.424     292.951      -0.016       0.016      63.401
 Approx polarizability:     277.691     -41.172     267.099      -0.010       0.007      82.154

 ******    1 imaginary frequencies (negative Signs) ******

                      1                      2                      3
                      A                      A                      A
 Frequencies --   -127.0300                31.1251                84.4646
 Red. masses --      6.4214                 5.9375                 4.7735
 Frc consts  --      0.0611                 0.0034                 0.0201
 IR Inten    --      3.7889                 0.4707                 0.5239

                      4                      5                      6
                      A                      A                      A
 Frequencies --    108.5852               159.8009               220.5172
 Red. masses --      5.7481                 4.2392                 5.4516
 Frc consts  --      0.0399                 0.0638                 0.1562
 IR Inten    --      6.5170                 0.9243                 5.1118

                      7                      8                      9
                      A                      A                      A
 Frequencies --    259.3521               260.5467               323.1412
 Red. masses --      3.9107                 7.4661                 8.3282
 Frc consts  --      0.1550                 0.2986                 0.5124
 IR Inten    --      5.3254                 1.2230                 1.6729

                     10                     11                     12
                      A                      A                      A
 Frequencies --    340.0100               366.7845               404.5393
 Red. masses --      4.3040                 7.4370                 2.4613
 Frc consts  --      0.2932                 0.5895                 0.2373
 IR Inten    --      1.2237                 7.7581                25.3858

                     13                     14                     15
                      A                      A                      A
 Frequencies --    436.8704               479.2305               494.5804
 Red. masses --      4.3129                 1.5551                 7.9103
 Frc consts  --      0.4850                 0.2104                 1.1400
 IR Inten    --      6.2184                23.3045                10.1163

                     16                     17                     18
                      A                      A                      A
 Frequencies --    512.6067               537.6018               557.2568
 Red. masses --      3.2080                 8.7224                 7.1660
 Frc consts  --      0.4967                 1.4853                 1.3111
 IR Inten    --      1.7008                14.3873                40.4395

                     19                     20                     21
                      A                      A                      A
 Frequencies --    560.7681               566.4327               646.5035
 Red. masses --      3.3487                 7.4067                 6.3613
 Frc consts  --      0.6204                 1.4001                 1.5665
 IR Inten    --      1.1623                 8.9054                28.2624

                     22                     23                     24
                      A                      A                      A
 Frequencies --    684.5197               689.2837               731.0468
 Red. masses --      1.5604                 6.2465                 7.8542
 Frc consts  --      0.4308                 1.7486                 2.4731
 IR Inten    --     27.1159                 1.2848                 4.2011

                     25                     26                     27
                      A                      A                      A
 Frequencies --    740.4363               759.3939               766.4864
 Red. masses --      2.3433                 1.7148                 1.7403
 Frc consts  --      0.7569                 0.5826                 0.6024
 IR Inten    --     16.8460                 5.3187                99.5199

                     28                     29                     30
                      A                      A                      A
 Frequencies --    804.8267               844.3804               857.8435
 Red. masses --      6.4906                 1.8610                 1.3951
 Frc consts  --      2.4771                 0.7818                 0.6049
 IR Inten    --     19.4697                 1.4023                 1.6239

                     31                     32                     33
                      A                      A                      A
 Frequencies --    904.7065               908.1820               954.2516
 Red. masses --      6.0979                 1.4329                 1.3551
 Frc consts  --      2.9407                 0.6963                 0.7270
 IR Inten    --      0.8661                 9.3556                 0.1350

                     34                     35                     36
                      A                      A                      A
 Frequencies --    954.8537               965.3317              1002.3886
 Red. masses --      1.3511                 5.5130                 1.2945
 Frc consts  --      0.7258                 3.0268                 0.7664
 IR Inten    --      2.1057                 3.3245                 0.0000

                     37                     38                     39
                      A                      A                      A
 Frequencies --   1030.4931              1053.1832              1076.4156
 Red. masses --      2.3967                 2.3614                 3.4755
 Frc consts  --      1.4995                 1.5432                 2.3726
 IR Inten    --      3.2963                14.6402                 0.5814

                     40                     41                     42
                      A                      A                      A
 Frequencies --   1096.4039              1149.4816              1157.8678
 Red. masses --      1.6949                 1.3462                 1.1841
 Frc consts  --      1.2004                 1.0480                 0.9353
 IR Inten    --     31.2672                 8.4176                74.5969

                     43                     44                     45
                      A                      A                      A
 Frequencies --   1178.6751              1186.5844              1226.9255
 Red. masses --      1.1631                 1.6050                 2.8001
 Frc consts  --      0.9520                 1.3314                 2.4834
 IR Inten    --     46.1169                58.8233                14.6140

                     46                     47                     48
                      A                      A                      A
 Frequencies --   1246.1627              1296.5699              1336.5316
 Red. masses --      2.2808                 1.6296                 2.5731
 Frc consts  --      2.0868                 1.6140                 2.7081
 IR Inten    --     68.7356                13.0408                47.3044

                     49                     50                     51
                      A                      A                      A
 Frequencies --   1364.7429              1386.1593              1405.1400
 Red. masses --      2.3036                 2.2467                 5.6875
 Frc consts  --      2.5279                 2.5434                 6.6163
 IR Inten    --     31.9539                39.9108                71.3122

                     52                     53                     54
                      A                      A                      A
 Frequencies --   1450.7950              1466.8664              1517.2067
 Red. masses --      2.9695                 2.8300                 3.6203
 Frc consts  --      3.6825                 3.5877                 4.9100
 IR Inten    --    105.2840                 7.8940               108.5850

                     55                     56                     57
                      A                      A                      A
 Frequencies --   1528.9455              1569.3539              1618.1274
 Red. masses --      2.7730                 6.4241                 5.2639
 Frc consts  --      3.8193                 9.3219                 8.1205
 IR Inten    --      2.6636               167.1235               117.1429

                     58                     59                     60
                      A                      A                      A
 Frequencies --   1654.8888              1664.2578              1691.2784
 Red. masses --      9.2393                 7.0774                 7.0726
 Frc consts  --     14.9082                11.5495                11.9196
 IR Inten    --    135.4994               114.5159                51.4979

                     61                     62                     63
                      A                      A                      A
 Frequencies --   3187.1295              3206.7087              3213.9786
 Red. masses --      1.0895                 1.0861                 1.0863
 Frc consts  --      6.5203                 6.5804                 6.6115
 IR Inten    --     21.4993                 1.5353                 5.9474

                     64                     65                     66
                      A                      A                      A
 Frequencies --   3219.5596              3224.4708              3231.7375
 Red. masses --      1.0913                 1.0901                 1.0963
 Frc consts  --      6.6650                 6.6779                 6.7459
 IR Inten    --     12.4996                 1.3615                 7.0152

                     67                     68                     69
                      A                      A                      A
 Frequencies --   3232.3332              3241.5672              3914.8007
 Red. masses --      1.0991                 1.0991                 1.0777
 Frc consts  --      6.7660                 6.8046                 9.7309
 IR Inten    --     24.8689                14.2706               401.3434

 - Thermochemistry -
 -------------------
 Temperature   298.150 Kelvin.  Pressure   1.00000 Atm.
 Atom     1 has atomic number  6 and mass  12.00000

 Molecular mass:   227.04049 amu.
 Principal axes and moments of inertia in atomic units:
                           1         2         3
     Eigenvalues --  1303.720706503.882617807.60212
           X           -0.70499   0.70922   0.00003
           Y            0.70922   0.70499   0.00005
           Z           -0.00001  -0.00006   1.00000
 This molecule is an asymmetric top.
 Rotational symmetry number  1.
 Warning -- assumption of classical behavior for rotation
           may cause significant error
 Rotational temperatures (Kelvin)      0.06644     0.01332     0.01109
 Rotational constants (GHZ):           1.38430     0.27749     0.23115
    1 imaginary frequencies ignored.
 Zero-point vibrational energy     490133.9 (Joules/Mol)
                                  117.14482 (Kcal/Mol)
 Warning -- explicit consideration of  19 degrees of freedom as
           vibrations may cause significant error
 Vibrational temperatures:     44.78   121.53   156.23   229.92   317.27
          (Kelvin)            373.15   374.87   464.93   489.20   527.72
                              582.04   628.56   689.51   711.59   737.53
                              773.49   801.77   806.82   814.97   930.17
                              984.87   991.73  1051.81  1065.32  1092.60
                             1102.80  1157.97  1214.88  1234.25  1301.67
                             1306.67  1372.96  1373.82  1388.90  1442.21
                             1482.65  1515.30  1548.72  1577.48  1653.85
                             1665.91  1695.85  1707.23  1765.27  1792.95
                             1865.47  1922.97  1963.56  1994.37  2021.68
                             2087.37  2110.49  2182.92  2199.81  2257.95
                             2328.12  2381.02  2394.50  2433.37  4585.57
                             4613.74  4624.20  4632.23  4639.29  4649.75
                             4650.61  4663.89  5632.53

 Zero-point correction=                           0.186682 (Hartree/Particle)
 Thermal correction to Energy=                    0.198618
 Thermal correction to Enthalpy=                  0.199562
 Thermal correction to Gibbs Free Energy=         0.147807
 Sum of electronic and zero-point Energies=          -1028.495006
 Sum of electronic and thermal Energies=             -1028.483070
 Sum of electronic and thermal Enthalpies=           -1028.482126
 Sum of electronic and thermal Free Energies=        -1028.533881

                     E (Thermal)             CV                S
                      KCal/Mol        Cal/Mol-Kelvin    Cal/Mol-Kelvin
 Total                  124.635             48.641            108.928
 Electronic               0.000              0.000              0.000
 Translational            0.889              2.981             42.162
 Rotational               0.889              2.981             32.559
 Vibrational            122.857             42.679             34.206
 Vibration     1          0.594              1.983              5.756
 Vibration     2          0.601              1.960              3.784
 Vibration     3          0.606              1.942              3.294
 Vibration     4          0.622              1.892              2.552
 Vibration     5          0.647              1.810              1.955
 Vibration     6          0.668              1.747              1.666
 Vibration     7          0.669              1.745              1.658
 Vibration     8          0.708              1.629              1.294
 Vibration     9          0.720              1.596              1.212
 Vibration    10          0.740              1.541              1.093
 Vibration    11          0.770              1.460              0.946
 Vibration    12          0.797              1.390              0.837
 Vibration    13          0.836              1.296              0.712
 Vibration    14          0.850              1.262              0.672
 Vibration    15          0.868              1.222              0.627
 Vibration    16          0.893              1.167              0.570
 Vibration    17          0.913              1.124              0.529
 Vibration    18          0.916              1.116              0.522
 Vibration    19          0.922              1.104              0.511

                           ! Non-Optimized Parameters !
 Normal termination of Gaussian 16 at Mon Jul 13 21:49:47 2020.
