 Gaussian 16, Revision C.01,
 Gaussian 16:  ES64L-G16RevC.01  3-Jul-2019

 ----------------------------------------------------------------------
 #p opt=addgic freq td wb97xd/cc-pvdz nosymm int=ultrafine scrf=(solven
 t=CarbonTetraChloride)
 ----------------------------------------------------------------------

 ------------------------------------------------
 NM 2D-scan of HBT TD-WB97XD pVDZ in CTC Relaxed.
 ------------------------------------------------
 Symbolic Z-matrix:
 Charge =  0 Multiplicity = 1

 SCF Done:  E(RwB97XD) =  -1028.81503185     A.U. after   15 cycles
 Total Energy, E(TD-HF/TD-DFT) =  -1028.68738676
 SCF Done:  E(RwB97XD) =  -1028.81579321     A.U. after   11 cycles
 Total Energy, E(TD-HF/TD-DFT) =  -1028.68816162
 SCF Done:  E(RwB97XD) =  -1028.81612540     A.U. after   11 cycles
 Total Energy, E(TD-HF/TD-DFT) =  -1028.68831762
 SCF Done:  E(RwB97XD) =  -1028.81583330     A.U. after   11 cycles
 Total Energy, E(TD-HF/TD-DFT) =  -1028.68848155
 SCF Done:  E(RwB97XD) =  -1028.81573946     A.U. after    9 cycles
 Total Energy, E(TD-HF/TD-DFT) =  -1028.68848709
 SCF Done:  E(RwB97XD) =  -1028.81572114     A.U. after   10 cycles
 Total Energy, E(TD-HF/TD-DFT) =  -1028.68848695
 SCF Done:  E(RwB97XD) =  -1028.81572260     A.U. after    7 cycles
 Total Energy, E(TD-HF/TD-DFT) =  -1028.68848749
 Optimization completed.
    -- Stationary point found.
 Normal termination of Gaussian 16 at Tue Jul 14 13:39:23 2020.

 ----------------------------------------------------------------------
 #P Geom=AllCheck Guess=TCheck SCRF=Check GenChk RwB97XD TD(FC,Read)/CC
 -pVDZ Freq
 ----------------------------------------------------------------------

 Structure from the checkpoint file:  "config_4_17.chk"
 ------------------------------------------------
 NM 2D-scan of HBT TD-WB97XD pVDZ in CTC Relaxed.
 ------------------------------------------------
 Charge =  0 Multiplicity = 1

                          Input orientation:
 ---------------------------------------------------------------------
 Center     Atomic      Atomic             Coordinates (Angstroms)
 Number     Number       Type             X           Y           Z
 ---------------------------------------------------------------------
      1          6           0        1.534488   -3.253756   -0.000086
      2          6           0        0.996112   -1.972769   -0.000099
      3          6           0        1.788591   -0.781017    0.000004
      4          6           0        3.198146   -0.949502    0.000122
      5          6           0        3.728205   -2.233427    0.000134
      6          6           0        2.916699   -3.385143    0.000032
      7          1           0        0.880572   -4.126715   -0.000163
      8          1           0        3.849758   -0.074925    0.000202
      9          1           0        4.813298   -2.353721    0.000227
     10          1           0        3.372625   -4.375914    0.000048
     11          7           0        1.059308    0.366458   -0.000029
     12         16           0       -0.696400   -1.593138   -0.000222
     13          6           0       -1.302252    1.072493   -0.000100
     14          6           0       -2.672784    0.729968   -0.000005
     15          6           0       -0.924502    2.485370   -0.000067
     16          6           0       -3.643106    1.723829    0.000135
     17          1           0       -2.969871   -0.319288   -0.000007
     18          6           0       -1.936128    3.467370    0.000109
     19          6           0       -3.281630    3.088623    0.000203
     20          1           0       -4.697840    1.444302    0.000217
     21          1           0       -1.640238    4.516946    0.000135
     22          1           0       -4.059480    3.852950    0.000321
     23          6           0       -0.280555    0.107574   -0.000146
     24          8           0        0.349086    2.767607   -0.000257
     25          1           0        0.903966    1.847953   -0.000592
 ---------------------------------------------------------------------

 SCF Done:  E(RwB97XD) =  -1028.81572260     A.U. after    1 cycles

 Excitation energies and oscillator strengths:

 Excited state symmetry could not be determined.
 Excited State   1:      Singlet-?Sym    3.4622 eV  358.10 nm  f=0.6203  <S**2>=0.000
      59 -> 60         0.68979
 This state for optimization and/or second-order correction.
 Total Energy, E(TD-HF/TD-DFT) =  -1028.68848746
 Copying the excited state density for this state as the 1-particle RhoCI density.

 Excited state symmetry could not be determined.
 Excited State   2:      Singlet-?Sym    4.3813 eV  282.99 nm  f=0.2004  <S**2>=0.000
      57 -> 60         0.22423
      58 -> 60         0.62795
      59 -> 62         0.10497
      59 -> 63         0.10481

 Excited state symmetry could not be determined.
 Excited State   3:      Singlet-?Sym    4.6538 eV  266.42 nm  f=0.0971  <S**2>=0.000
      57 -> 60         0.58258
      57 -> 62        -0.14427
      58 -> 60        -0.22506
      58 -> 61        -0.13231
      59 -> 61         0.20320

 Alpha  occ. eigenvalues --  -89.08834 -19.27487 -14.47838 -10.39759 -10.37893
 Alpha  occ. eigenvalues --  -10.35617 -10.34651 -10.32225 -10.32119 -10.32028
 Alpha  occ. eigenvalues --  -10.31939 -10.31812 -10.31496 -10.31446 -10.30437
 Alpha  occ. eigenvalues --  -10.30411  -8.10937  -6.05769  -6.05427  -6.04999
 Alpha  occ. eigenvalues --   -1.16242  -1.08510  -0.96882  -0.95929  -0.92351
 Alpha  occ. eigenvalues --   -0.88832  -0.85233  -0.84364  -0.82379  -0.75919
 Alpha  occ. eigenvalues --   -0.71331  -0.70494  -0.69104  -0.67939  -0.63667
 Alpha  occ. eigenvalues --   -0.60616  -0.59013  -0.58683  -0.55894  -0.54443
 Alpha  occ. eigenvalues --   -0.54111  -0.53451  -0.53033  -0.50669  -0.50276
 Alpha  occ. eigenvalues --   -0.49436  -0.47095  -0.46053  -0.45713  -0.44850
 Alpha  occ. eigenvalues --   -0.44210  -0.42840  -0.42398  -0.40212  -0.36984
 Alpha  occ. eigenvalues --   -0.36482  -0.32120  -0.31452  -0.28125
 Alpha virt. eigenvalues --   -0.01753   0.04991   0.06767   0.07335   0.07816
 Alpha virt. eigenvalues --    0.10965   0.14567   0.15188   0.17076   0.17993
 Alpha virt. eigenvalues --    0.18663   0.21182   0.21552   0.22402   0.22530

 Mulliken charges:
               1
     1  C    0.022379
     2  C   -0.220864
     3  C    0.230096
     4  C   -0.022069
     5  C    0.004313
     6  C   -0.002181
     7  H    0.017630
     8  H    0.020109
     9  H    0.020036
    10  H    0.020783
    11  N   -0.367088
    12  S    0.165153
    13  C   -0.081549
    14  C   -0.028909
    15  C    0.104173
    16  C   -0.013787
    17  H    0.022296
    18  C   -0.005422
    19  C    0.024348
    20  H    0.010118
    21  H    0.018011
    22  H    0.022868
    23  C    0.086430
    24  O   -0.248333
    25  H    0.201459
 Sum of Mulliken charges =  -0.00000

 Dipole moment (field-independent basis, Debye):
    X=             -0.4764    Y=             -2.6260    Z=             -0.0002  Tot=              2.6689
 Quadrupole moment (field-independent basis, Debye-Ang):
   XX=            -83.1611   YY=            -90.1400   ZZ=           -104.2412
   XY=             -7.1326   XZ=             -0.0006   YZ=              0.0005

  Exact polarizability:     385.552    -175.890     362.547      -0.001       0.006      63.266
 Approx polarizability:     275.434     -35.135     258.344       0.001       0.005      82.329

                      1                      2                      3
                      A                      A                      A
 Frequencies --     44.0351                51.0702                96.3880
 Red. masses --      5.0867                 6.9679                 5.3218
 Frc consts  --      0.0058                 0.0107                 0.0291
 IR Inten    --      0.4382                 1.1098                 0.3489

                      4                      5                      6
                      A                      A                      A
 Frequencies --    109.8598               175.6030               223.1650
 Red. masses --      5.2794                 6.2390                 5.2919
 Frc consts  --      0.0375                 0.1134                 0.1553
 IR Inten    --      0.0496                 1.3156                 0.0083

                      7                      8                      9
                      A                      A                      A
 Frequencies --    273.9740               276.3205               287.1405
 Red. masses --      4.7989                 6.4239                 6.5072
 Frc consts  --      0.2122                 0.2890                 0.3161
 IR Inten    --      0.0213                23.0671                16.3395

                     10                     11                     12
                      A                      A                      A
 Frequencies --    381.1830               416.6354               441.0436
 Red. masses --      4.6437                 9.5288                 3.2133
 Frc consts  --      0.3975                 0.9745                 0.3683
 IR Inten    --      0.0656                10.5683                 3.9917

                     13                     14                     15
                      A                      A                      A
 Frequencies --    481.7864               494.8708               503.6676
 Red. masses --      4.6750                 4.4913                 3.1633
 Frc consts  --      0.6393                 0.6480                 0.4728
 IR Inten    --      0.0171                11.1891                 0.0506

                     16                     17                     18
                      A                      A                      A
 Frequencies --    506.1831               535.4469               557.7639
 Red. masses --      8.6874                 7.7117                 3.9075
 Frc consts  --      1.3115                 1.3027                 0.7162
 IR Inten    --      0.1386                46.8168                 0.1537

                     19                     20                     21
                      A                      A                      A
 Frequencies --    576.3718               640.8469               712.0032
 Red. masses --      7.6729                 6.6740                 1.5975
 Frc consts  --      1.5018                 1.6149                 0.4771
 IR Inten    --      9.6823                30.1903                54.4268

                     22                     23                     24
                      A                      A                      A
 Frequencies --    722.3474               735.6075               740.5222
 Red. masses --      6.6500                10.0801                 1.8080
 Frc consts  --      2.0444                 3.2137                 0.5842
 IR Inten    --      0.7362                35.8183                43.1665

                     25                     26                     27
                      A                      A                      A
 Frequencies --    746.1433               768.5719               806.9428
 Red. masses --      1.8548                 2.1998                 1.8198
 Frc consts  --      0.6084                 0.7656                 0.6982
 IR Inten    --     10.2965                48.6145                 2.0018

                     28                     29                     30
                      A                      A                      A
 Frequencies --    830.9551               861.6990               891.5272
 Red. masses --      6.3963                 1.4173                 6.4690
 Frc consts  --      2.6022                 0.6201                 3.0294
 IR Inten    --      7.5043                 1.0144                69.7242

                     31                     32                     33
                      A                      A                      A
 Frequencies --    910.8709               953.0066               962.0801
 Red. masses --      1.3543                 1.3469                 1.3704
 Frc consts  --      0.6620                 0.7207                 0.7473
 IR Inten    --      4.8033                 2.0429                 0.0355

                     34                     35                     36
                      A                      A                      A
 Frequencies --    978.8025               998.5275              1044.7446
 Red. masses --      7.3150                 1.3028                 2.1918
 Frc consts  --      4.1291                 0.7653                 1.4095
 IR Inten    --      7.4414                 0.0000                 0.5077

                     37                     38                     39
                      A                      A                      A
 Frequencies --   1047.3334              1090.4041              1129.8041
 Red. masses --      2.0477                 3.6751                 1.0543
 Frc consts  --      1.3234                 2.5745                 0.7929
 IR Inten    --      6.7284                71.7056                66.4444

                     40                     41                     42
                      A                      A                      A
 Frequencies --   1135.2446              1149.7174              1176.8468
 Red. masses --      1.5616                 1.3952                 1.2731
 Frc consts  --      1.1858                 1.0866                 1.0388
 IR Inten    --     51.7072                11.5127                25.1794

                     43                     44                     45
                      A                      A                      A
 Frequencies --   1181.6747              1241.5405              1257.6390
 Red. masses --      1.2400                 4.1830                 2.6424
 Frc consts  --      1.0201                 3.7989                 2.4624
 IR Inten    --     10.5621                50.5812               140.6240

                     46                     47                     48
                      A                      A                      A
 Frequencies --   1276.8426              1287.7774              1367.1456
 Red. masses --      1.9004                 1.8605                 4.5961
 Frc consts  --      1.8255                 1.8178                 5.0614
 IR Inten    --     45.5451                12.9126                82.3186

                     49                     50                     51
                      A                      A                      A
 Frequencies --   1375.3781              1410.1366              1455.8855
 Red. masses --      2.6690                 2.7810                 2.0169
 Frc consts  --      2.9747                 3.2581                 2.5188
 IR Inten    --    181.4146               136.8395                 9.2365

                     52                     53                     54
                      A                      A                      A
 Frequencies --   1464.3283              1488.1729              1540.3952
 Red. masses --      3.8996                 2.9333                 4.6943
 Frc consts  --      4.9266                 3.8275                 6.5628
 IR Inten    --     11.9355               123.3713               150.9103

                     55                     56                     57
                      A                      A                      A
 Frequencies --   1550.4139              1574.1309              1588.9068
 Red. masses --      4.0715                 4.7479                 4.6029
 Frc consts  --      5.7663                 6.9316                 6.8466
 IR Inten    --     53.9421                16.3932               219.1828

                     58                     59                     60
                      A                      A                      A
 Frequencies --   1610.9075              1645.6799              1697.4391
 Red. masses --      5.7590                 6.0386                 1.5230
 Frc consts  --      8.8052                 9.6355                 2.5854
 IR Inten    --    695.2193               429.7395               522.3389

                     61                     62                     63
                      A                      A                      A
 Frequencies --   1906.2457              3204.3029              3213.2106
 Red. masses --      1.2013                 1.0862                 1.0861
 Frc consts  --      2.5720                 6.5711                 6.6071
 IR Inten    --    377.4796                 8.7123                 6.6869

                     64                     65                     66
                      A                      A                      A
 Frequencies --   3214.7917              3223.7828              3225.6829
 Red. masses --      1.0899                 1.0884                 1.0951
 Frc consts  --      6.6365                 6.6647                 6.7132
 IR Inten    --      1.9763                17.5484                10.6874

                     67                     68                     69
                      A                      A                      A
 Frequencies --   3232.2998              3233.2666              3240.5170
 Red. masses --      1.0945                 1.0993                 1.0983
 Frc consts  --      6.7375                 6.7710                 6.7949
 IR Inten    --      8.1078                35.3614                22.0587

 - Thermochemistry -
 -------------------
 Temperature   298.150 Kelvin.  Pressure   1.00000 Atm.
 Atom     1 has atomic number  6 and mass  12.00000

 Molecular mass:   227.04049 amu.
 Principal axes and moments of inertia in atomic units:
                           1         2         3
     Eigenvalues --  1283.085846297.505627580.59142
           X           -0.70434   0.70987  -0.00001
           Y            0.70987   0.70434  -0.00002
           Z            0.00001   0.00002   1.00000
 This molecule is an asymmetric top.
 Rotational symmetry number  1.
 Warning -- assumption of classical behavior for rotation
           may cause significant error
 Rotational temperatures (Kelvin)      0.06750     0.01375     0.01143
 Rotational constants (GHZ):           1.40656     0.28658     0.23807
 Zero-point vibrational energy     485537.6 (Joules/Mol)
                                  116.04628 (Kcal/Mol)
 Warning -- explicit consideration of  19 degrees of freedom as
           vibrations may cause significant error
 Vibrational temperatures:     63.36    73.48   138.68   158.06   252.65
          (Kelvin)            321.08   394.19   397.56   413.13   548.44
                              599.45   634.56   693.18   712.01   724.67
                              728.28   770.39   802.50   829.27   922.04
                             1024.41  1039.30  1058.38  1065.45  1073.53
                             1105.80  1161.01  1195.56  1239.79  1282.71
                             1310.54  1371.16  1384.22  1408.28  1436.66
                             1503.15  1506.88  1568.85  1625.54  1633.36
                             1654.19  1693.22  1700.17  1786.30  1809.46
                             1837.09  1852.82  1967.02  1978.86  2028.87
                             2094.69  2106.84  2141.15  2216.29  2230.70
                             2264.82  2286.08  2317.74  2367.77  2442.24
                             2742.66  4610.28  4623.09  4625.37  4638.30
                             4641.04  4650.56  4651.95  4662.38

 Zero-point correction=                           0.184932 (Hartree/Particle)
 Thermal correction to Energy=                    0.197240
 Thermal correction to Enthalpy=                  0.198184
 Thermal correction to Gibbs Free Energy=         0.145346
 Sum of electronic and zero-point Energies=          -1028.503556
 Sum of electronic and thermal Energies=             -1028.491247
 Sum of electronic and thermal Enthalpies=           -1028.490303
 Sum of electronic and thermal Free Energies=        -1028.543142

                     E (Thermal)             CV                S
                      KCal/Mol        Cal/Mol-Kelvin    Cal/Mol-Kelvin
 Total                  123.770             49.056            111.208
 Electronic               0.000              0.000              0.000
 Translational            0.889              2.981             42.162
 Rotational               0.889              2.981             32.482
 Vibrational            121.993             43.094             36.564
 Vibration     1          0.595              1.980              5.069
 Vibration     2          0.595              1.977              4.776
 Vibration     3          0.603              1.952              3.526
 Vibration     4          0.606              1.941              3.271
 Vibration     5          0.628              1.872              2.375
 Vibration     6          0.649              1.806              1.933
 Vibration     7          0.676              1.721              1.571
 Vibration     8          0.678              1.717              1.556
 Vibration     9          0.684              1.698              1.491
 Vibration    10          0.751              1.510              1.034
 Vibration    11          0.780              1.434              0.903
 Vibration    12          0.801              1.381              0.823
 Vibration    13          0.838              1.290              0.705
 Vibration    14          0.850              1.261              0.671
 Vibration    15          0.859              1.242              0.649
 Vibration    16          0.861              1.236              0.643
 Vibration    17          0.890              1.172              0.575
 Vibration    18          0.913              1.123              0.528
 Vibration    19          0.933              1.082              0.492

 Optimization completed.
    -- Stationary point found.
 Normal termination of Gaussian 16 at Tue Jul 14 13:57:21 2020.
