 Gaussian 16, Revision C.01,
 Gaussian 16:  ES64L-G16RevC.01  3-Jul-2019

 ----------------------------------------------------------------------
 #p opt=addgic freq td wb97xd/cc-pvdz nosymm int=ultrafine scrf=(solven
 t=CarbonTetraChloride)
 ----------------------------------------------------------------------

 ------------------------------------------------
 NM 2D-scan of HBT TD-WB97XD pVDZ in CTC Relaxed.
 ------------------------------------------------
 Symbolic Z-matrix:
 Charge =  0 Multiplicity = 1

 SCF Done:  E(RwB97XD) =  -1028.68358583     A.U. after   16 cycles
 Total Energy, E(TD-HF/TD-DFT) =  -1028.57773207
 SCF Done:  E(RwB97XD) =  -1028.77432443     A.U. after   14 cycles
 Total Energy, E(TD-HF/TD-DFT) =  -1028.67214721
 SCF Done:  E(RwB97XD) =  -1028.78671183     A.U. after   14 cycles
 Total Energy, E(TD-HF/TD-DFT) =  -1028.68715260
 SCF Done:  E(RwB97XD) =  -1028.79679593     A.U. after   13 cycles
 Total Energy, E(TD-HF/TD-DFT) =  -1028.69438259
 SCF Done:  E(RwB97XD) =  -1028.79626362     A.U. after   12 cycles
 Total Energy, E(TD-HF/TD-DFT) =  -1028.69483825
 SCF Done:  E(RwB97XD) =  -1028.79625597     A.U. after   10 cycles
 Total Energy, E(TD-HF/TD-DFT) =  -1028.69485561
 SCF Done:  E(RwB97XD) =  -1028.79620396     A.U. after    9 cycles
 Total Energy, E(TD-HF/TD-DFT) =  -1028.69485743
 Optimization completed.
    -- Stationary point found.
 Normal termination of Gaussian 16 at Mon Jul 13 19:32:02 2020.

 ----------------------------------------------------------------------
 #P Geom=AllCheck Guess=TCheck SCRF=Check GenChk RwB97XD TD(FC,Read)/CC
 -pVDZ Freq
 ----------------------------------------------------------------------

 Structure from the checkpoint file:  "config_11_11.chk"
 ------------------------------------------------
 NM 2D-scan of HBT TD-WB97XD pVDZ in CTC Relaxed.
 ------------------------------------------------
 Charge =  0 Multiplicity = 1

                          Input orientation:
 ---------------------------------------------------------------------
 Center     Atomic      Atomic             Coordinates (Angstroms)
 Number     Number       Type             X           Y           Z
 ---------------------------------------------------------------------
      1          6           0        1.646787   -3.294637    0.000128
      2          6           0        1.017435   -2.055955    0.000046
      3          6           0        1.766236   -0.876884   -0.000095
      4          6           0        3.166692   -0.901196   -0.000151
      5          6           0        3.788414   -2.145379   -0.000068
      6          6           0        3.042145   -3.329713    0.000069
      7          1           0        1.065410   -4.216749    0.000235
      8          1           0        3.740774    0.026045   -0.000254
      9          1           0        4.878324   -2.195047   -0.000110
     10          1           0        3.554166   -4.292363    0.000129
     11          7           0        0.953305    0.216165   -0.000165
     12         16           0       -0.712187   -1.679412    0.000084
     13          6           0       -1.384880    1.093880   -0.000033
     14          6           0       -2.743808    0.841068   -0.000138
     15          6           0       -0.903937    2.495060    0.000133
     16          6           0       -3.705575    1.898754   -0.000063
     17          1           0       -3.108212   -0.189633   -0.000287
     18          6           0       -1.917384    3.514957    0.000196
     19          6           0       -3.292234    3.222163    0.000107
     20          1           0       -4.766377    1.643761   -0.000141
     21          1           0       -1.563811    4.547975    0.000353
     22          1           0       -4.027169    4.028695    0.000170
     23          6           0       -0.399101    0.036895   -0.000061
     24          8           0        0.324902    2.728484    0.000243
     25          1           0        1.387851    1.114000   -0.000242
 ---------------------------------------------------------------------

 SCF Done:  E(RwB97XD) =  -1028.79620396     A.U. after    1 cycles

 Excitation energies and oscillator strengths:

 Excited state symmetry could not be determined.
 Excited State   1:      Singlet-?Sym    2.7578 eV  449.58 nm  f=0.4358  <S**2>=0.000
      59 -> 60         0.69721
 This state for optimization and/or second-order correction.
 Total Energy, E(TD-HF/TD-DFT) =  -1028.69485744
 Copying the excited state density for this state as the 1-particle RhoCI density.

 Excited state symmetry could not be determined.
 Excited State   2:      Singlet-?Sym    3.4050 eV  364.12 nm  f=0.0000  <S**2>=0.000
      58 -> 60         0.68381
      58 -> 62         0.11577
      58 -> 64         0.10717

 Excited state symmetry could not be determined.
 Excited State   3:      Singlet-?Sym    4.3078 eV  287.81 nm  f=0.4501  <S**2>=0.000
      57 -> 60         0.68260

 Alpha  occ. eigenvalues --  -89.10607 -19.20330 -14.52803 -10.42541 -10.37391
 Alpha  occ. eigenvalues --  -10.36256 -10.35453 -10.33575 -10.33307 -10.32842
 Alpha  occ. eigenvalues --  -10.32557 -10.31381 -10.30956 -10.30564 -10.29030
 Alpha  occ. eigenvalues --  -10.28128  -8.12607  -6.07488  -6.07101  -6.06627
 Alpha  occ. eigenvalues --   -1.13358  -1.09176  -0.98630  -0.95510  -0.93275
 Alpha  occ. eigenvalues --   -0.89110  -0.86790  -0.84074  -0.80743  -0.75958
 Alpha  occ. eigenvalues --   -0.74265  -0.72016  -0.69263  -0.67496  -0.64967
 Alpha  occ. eigenvalues --   -0.61056  -0.59801  -0.56517  -0.56236  -0.55992
 Alpha  occ. eigenvalues --   -0.55085  -0.53677  -0.53064  -0.50543  -0.48721
 Alpha  occ. eigenvalues --   -0.48708  -0.48320  -0.47053  -0.45578  -0.44850
 Alpha  occ. eigenvalues --   -0.44128  -0.42828  -0.42202  -0.39939  -0.36927
 Alpha  occ. eigenvalues --   -0.33817  -0.31548  -0.30874  -0.25427
 Alpha virt. eigenvalues --   -0.02201   0.03554   0.05730   0.06528   0.09664
 Alpha virt. eigenvalues --    0.10856   0.13002   0.14505   0.16059   0.16848
 Alpha virt. eigenvalues --    0.18171   0.19856   0.20848   0.21266   0.22773

 Mulliken charges:
               1
     1  C    0.015987
     2  C   -0.245303
     3  C    0.228433
     4  C   -0.010214
     5  C    0.013358
     6  C    0.002763
     7  H    0.026174
     8  H    0.032884
     9  H    0.029106
    10  H    0.027791
    11  N   -0.090869
    12  S    0.200337
    13  C   -0.082613
    14  C   -0.033567
    15  C    0.109067
    16  C   -0.038728
    17  H    0.005116
    18  C   -0.048921
    19  C    0.034575
    20  H    0.001013
    21  H   -0.001156
    22  H    0.013606
    23  C    0.078418
    24  O   -0.388908
    25  H    0.121651
 Sum of Mulliken charges =  -0.00000

 Dipole moment (field-independent basis, Debye):
    X=              2.4579    Y=             -6.0668    Z=             -0.0007  Tot=              6.5458
 Quadrupole moment (field-independent basis, Debye-Ang):
   XX=            -81.6138   YY=            -96.5397   ZZ=           -104.1717
   XY=             -6.1477   XZ=             -0.0010   YZ=             -0.0018

  Exact polarizability:     347.457    -119.307     292.502      -0.001       0.001      63.277
 Approx polarizability:     275.606     -39.478     264.900      -0.001       0.002      82.005

 ******    1 imaginary frequencies (negative Signs) ******

                      1                      2                      3
                      A                      A                      A
 Frequencies --    -77.9034                48.4913               102.3734
 Red. masses --      5.5651                 6.5161                 5.2657
 Frc consts  --      0.0199                 0.0090                 0.0325
 IR Inten    --      2.5120                 1.2973                 0.1564

                      4                      5                      6
                      A                      A                      A
 Frequencies --    108.7181               175.3179               226.5283
 Red. masses --      5.7319                 5.1599                 5.6655
 Frc consts  --      0.0399                 0.0934                 0.1713
 IR Inten    --      6.9781                 0.0031                 1.2657

                      7                      8                      9
                      A                      A                      A
 Frequencies --    263.7811               270.2091               297.1054
 Red. masses --      7.7149                 4.2571                 8.3354
 Frc consts  --      0.3163                 0.1831                 0.4335
 IR Inten    --      1.4467                 3.0702                 2.2916

                     10                     11                     12
                      A                      A                      A
 Frequencies --    341.5010               377.5003               421.5884
 Red. masses --      4.3761                 7.2837                 3.5425
 Frc consts  --      0.3007                 0.6116                 0.3710
 IR Inten    --      1.1655                 8.1958                 7.8576

                     13                     14                     15
                      A                      A                      A
 Frequencies --    443.0319               500.3807               514.0588
 Red. masses --      4.1600                 8.1824                 3.1757
 Frc consts  --      0.4811                 1.2071                 0.4944
 IR Inten    --      5.8885                11.3281                 0.0285

                     16                     17                     18
                      A                      A                      A
 Frequencies --    541.1562               545.0686               546.6702
 Red. masses --      8.3387                 1.6510                 6.8262
 Frc consts  --      1.4388                 0.2890                 1.2019
 IR Inten    --      9.5315                38.1840                45.0755

                     19                     20                     21
                      A                      A                      A
 Frequencies --    566.4690               568.6984               641.6481
 Red. masses --      7.3156                 1.8693                 6.2916
 Frc consts  --      1.3831                 0.3562                 1.5262
 IR Inten    --      7.2327                23.0263                22.1797

                     22                     23                     24
                      A                      A                      A
 Frequencies --    689.3965               707.0863               736.5329
 Red. masses --      1.5203                 5.9414                 7.6997
 Frc consts  --      0.4257                 1.7502                 2.4610
 IR Inten    --     28.5773                 2.1419                 5.5300

                     25                     26                     27
                      A                      A                      A
 Frequencies --    744.5159               759.4509               767.7048
 Red. masses --      2.5775                 1.7022                 1.6604
 Frc consts  --      0.8418                 0.5784                 0.5766
 IR Inten    --     17.2605                 9.4405                91.9234

                     28                     29                     30
                      A                      A                      A
 Frequencies --    817.4188               838.9290               865.7816
 Red. masses --      6.3130                 1.9289                 1.3799
 Frc consts  --      2.4853                 0.7998                 0.6094
 IR Inten    --     17.2656                 1.1270                 1.3458

                     31                     32                     33
                      A                      A                      A
 Frequencies --    893.3944               902.0839               953.0792
 Red. masses --      5.4180                 1.4386                 1.3587
 Frc consts  --      2.5478                 0.6897                 0.7272
 IR Inten    --      0.8339                 8.9786                 0.4960

                     34                     35                     36
                      A                      A                      A
 Frequencies --    957.4040               964.2761              1004.1617
 Red. masses --      1.3509                 4.9524                 1.2950
 Frc consts  --      0.7295                 2.7131                 0.7693
 IR Inten    --      1.6766                 0.7405                 0.0045

                     37                     38                     39
                      A                      A                      A
 Frequencies --   1041.9465              1054.6429              1086.5249
 Red. masses --      2.2378                 2.1540                 3.6808
 Frc consts  --      1.4314                 1.4116                 2.5602
 IR Inten    --      0.5532                 9.0842                 1.8145

                     40                     41                     42
                      A                      A                      A
 Frequencies --   1099.1350              1152.3842              1157.4637
 Red. masses --      1.7024                 1.3277                 1.2202
 Frc consts  --      1.2117                 1.0388                 0.9631
 IR Inten    --     36.8901                 6.2071                82.7130

                     43                     44                     45
                      A                      A                      A
 Frequencies --   1175.6852              1184.5115              1240.5557
 Red. masses --      1.3045                 1.2461                 2.5278
 Frc consts  --      1.0624                 1.0301                 2.2921
 IR Inten    --     63.4274                 3.0781                19.5541

                     46                     47                     48
                      A                      A                      A
 Frequencies --   1254.0161              1299.1908              1337.0633
 Red. masses --      2.5056                 1.5900                 4.0887
 Frc consts  --      2.3215                 1.5812                 4.3067
 IR Inten    --     47.8682                 5.7489                16.5016

                     49                     50                     51
                      A                      A                      A
 Frequencies --   1363.7047              1398.6607              1401.8386
 Red. masses --      2.7213                 2.3404                 4.9899
 Frc consts  --      2.9817                 2.6975                 5.7775
 IR Inten    --     60.2844                38.6571                57.8132

                     52                     53                     54
                      A                      A                      A
 Frequencies --   1443.9711              1471.8543              1517.0863
 Red. masses --      2.8734                 3.1373                 3.3401
 Frc consts  --      3.5299                 4.0044                 4.5293
 IR Inten    --    129.2895                 4.0380                89.8615

                     55                     56                     57
                      A                      A                      A
 Frequencies --   1521.2156              1554.4749              1607.7873
 Red. masses --      3.1598                 5.3727                 5.2590
 Frc consts  --      4.3081                 7.6491                 8.0096
 IR Inten    --      7.4825               187.4461               112.1967

                     58                     59                     60
                      A                      A                      A
 Frequencies --   1638.0446              1665.9829              1676.1255
 Red. masses --      8.2951                 7.0006                 7.0823
 Frc consts  --     13.1136                11.4479                11.7230
 IR Inten    --    146.2216                64.4616                85.8183

                     61                     62                     63
                      A                      A                      A
 Frequencies --   3189.6048              3208.3725              3214.6238
 Red. masses --      1.0891                 1.0862                 1.0863
 Frc consts  --      6.5282                 6.5874                 6.6140
 IR Inten    --     25.3129                 2.1841                 4.9753

                     64                     65                     66
                      A                      A                      A
 Frequencies --   3219.7642              3226.0391              3233.0644
 Red. masses --      1.0915                 1.0901                 1.0990
 Frc consts  --      6.6668                 6.6845                 6.7685
 IR Inten    --     14.9938                 3.0914                27.6379

                     67                     68                     69
                      A                      A                      A
 Frequencies --   3234.3845              3242.0124              3804.6665
 Red. masses --      1.0959                 1.0994                 1.0791
 Frc consts  --      6.7546                 6.8082                 9.2031
 IR Inten    --      6.2782                12.4627               327.8655

 - Thermochemistry -
 -------------------
 Temperature   298.150 Kelvin.  Pressure   1.00000 Atm.
 Atom     1 has atomic number  6 and mass  12.00000

 Molecular mass:   227.04049 amu.
 Principal axes and moments of inertia in atomic units:
                           1         2         3
     Eigenvalues --  1277.636206508.614337786.25050
           X           -0.70509   0.70912   0.00000
           Y            0.70912   0.70509  -0.00001
           Z            0.00001   0.00001   1.00000
 This molecule is an asymmetric top.
 Rotational symmetry number  1.
 Warning -- assumption of classical behavior for rotation
           may cause significant error
 Rotational temperatures (Kelvin)      0.06779     0.01331     0.01112
 Rotational constants (GHZ):           1.41256     0.27729     0.23179
    1 imaginary frequencies ignored.
 Zero-point vibrational energy     490576.0 (Joules/Mol)
                                  117.25049 (Kcal/Mol)
 Warning -- explicit consideration of  19 degrees of freedom as
           vibrations may cause significant error
 Vibrational temperatures:     69.77   147.29   156.42   252.24   325.92
          (Kelvin)            379.52   388.77   427.47   491.34   543.14
                              606.57   637.42   719.94   739.62   778.60
                              784.23   786.54   815.02   818.23   923.19
                              991.89  1017.34  1059.71  1071.19  1092.68
                             1104.56  1176.08  1207.03  1245.67  1285.40
                             1297.90  1371.27  1377.49  1387.38  1444.76
                             1499.13  1517.40  1563.27  1581.41  1658.02
                             1665.33  1691.55  1704.25  1784.88  1804.25
                             1869.25  1923.74  1962.07  2012.36  2016.93
                             2077.55  2117.67  2182.75  2188.69  2236.54
                             2313.25  2356.78  2396.98  2411.57  4589.13
                             4616.13  4625.13  4632.52  4641.55  4651.66
                             4653.56  4664.53  5474.07

 Zero-point correction=                           0.186851 (Hartree/Particle)
 Thermal correction to Energy=                    0.198590
 Thermal correction to Enthalpy=                  0.199534
 Thermal correction to Gibbs Free Energy=         0.148637
 Sum of electronic and zero-point Energies=          -1028.508007
 Sum of electronic and thermal Energies=             -1028.496267
 Sum of electronic and thermal Enthalpies=           -1028.495323
 Sum of electronic and thermal Free Energies=        -1028.546220

                     E (Thermal)             CV                S
                      KCal/Mol        Cal/Mol-Kelvin    Cal/Mol-Kelvin
 Total                  124.617             48.297            107.122
 Electronic               0.000              0.000              0.000
 Translational            0.889              2.981             42.162
 Rotational               0.889              2.981             32.537
 Vibrational            122.840             42.335             32.423
 Vibration     1          0.595              1.978              4.878
 Vibration     2          0.604              1.947              3.409
 Vibration     3          0.606              1.942              3.292
 Vibration     4          0.627              1.873              2.378
 Vibration     5          0.650              1.801              1.906
 Vibration     6          0.670              1.739              1.637
 Vibration     7          0.674              1.728              1.595
 Vibration     8          0.691              1.679              1.433
 Vibration     9          0.721              1.593              1.205
 Vibration    10          0.748              1.518              1.049
 Vibration    11          0.784              1.423              0.887
 Vibration    12          0.803              1.376              0.817
 Vibration    13          0.856              1.249              0.657
 Vibration    14          0.869              1.219              0.624
 Vibration    15          0.896              1.159              0.563
 Vibration    16          0.900              1.150              0.554
 Vibration    17          0.902              1.147              0.551
 Vibration    18          0.922              1.104              0.511
 Vibration    19          0.925              1.099              0.507

 Optimization completed.
    -- Stationary point found.
 Normal termination of Gaussian 16 at Mon Jul 13 19:49:53 2020.
