 Gaussian 16, Revision C.01,
 Gaussian 16:  ES64L-G16RevC.01  3-Jul-2019

 ----------------------------------------------------------------------
 #p opt=addgic freq td wb97xd/cc-pvdz nosymm int=ultrafine scrf=(solven
 t=CarbonTetraChloride)
 ----------------------------------------------------------------------

 ------------------------------------------------
 NM 2D-scan of HBT TD-WB97XD pVDZ in CTC Relaxed.
 ------------------------------------------------
 Symbolic Z-matrix:
 Charge =  0 Multiplicity = 1

 SCF Done:  E(RwB97XD) =  -1028.76025986     A.U. after   16 cycles
 Total Energy, E(TD-HF/TD-DFT) =  -1028.65295554
 SCF Done:  E(RwB97XD) =  -1028.79628134     A.U. after   14 cycles
 Total Energy, E(TD-HF/TD-DFT) =  -1028.69400462
 SCF Done:  E(RwB97XD) =  -1028.80318124     A.U. after   13 cycles
 Total Energy, E(TD-HF/TD-DFT) =  -1028.69942882
 SCF Done:  E(RwB97XD) =  -1028.80304920     A.U. after   11 cycles
 Total Energy, E(TD-HF/TD-DFT) =  -1028.69983078
 SCF Done:  E(RwB97XD) =  -1028.80319930     A.U. after   10 cycles
 Total Energy, E(TD-HF/TD-DFT) =  -1028.69986044
 Optimization completed.
    -- Stationary point found.
 Normal termination of Gaussian 16 at Mon Jul 13 16:39:22 2020.

 ----------------------------------------------------------------------
 #P Geom=AllCheck Guess=TCheck SCRF=Check GenChk RwB97XD TD(FC,Read)/CC
 -pVDZ Freq
 ----------------------------------------------------------------------

 Structure from the checkpoint file:  "config_10_12.chk"
 ------------------------------------------------
 NM 2D-scan of HBT TD-WB97XD pVDZ in CTC Relaxed.
 ------------------------------------------------
 Charge =  0 Multiplicity = 1

                          Input orientation:
 ---------------------------------------------------------------------
 Center     Atomic      Atomic             Coordinates (Angstroms)
 Number     Number       Type             X           Y           Z
 ---------------------------------------------------------------------
      1          6           0        1.627894   -3.290660    0.000002
      2          6           0        1.010319   -2.044980   -0.000006
      3          6           0        1.767620   -0.861810   -0.000029
      4          6           0        3.168609   -0.908780   -0.000042
      5          6           0        3.777644   -2.158514   -0.000034
      6          6           0        3.021929   -3.338381   -0.000012
      7          1           0        1.036497   -4.206647    0.000020
      8          1           0        3.753757    0.011261   -0.000059
      9          1           0        4.867069   -2.218350   -0.000044
     10          1           0        3.526168   -4.305250   -0.000007
     11          7           0        0.968433    0.242915   -0.000038
     12         16           0       -0.714265   -1.672624    0.000010
     13          6           0       -1.364697    1.090840    0.000007
     14          6           0       -2.726012    0.823129   -0.000014
     15          6           0       -0.905278    2.499707    0.000049
     16          6           0       -3.691059    1.867705    0.000013
     17          1           0       -3.079420   -0.211199   -0.000053
     18          6           0       -1.922010    3.508483    0.000069
     19          6           0       -3.289627    3.199029    0.000054
     20          1           0       -4.750345    1.606753   -0.000001
     21          1           0       -1.575859    4.543765    0.000107
     22          1           0       -4.033581    3.997058    0.000073
     23          6           0       -0.379615    0.043576   -0.000012
     24          8           0        0.324391    2.767150    0.000069
     25          1           0        1.307045    1.199996   -0.000032
 ---------------------------------------------------------------------

 SCF Done:  E(RwB97XD) =  -1028.80319930     A.U. after    1 cycles

 Excitation energies and oscillator strengths:

 Excited state symmetry could not be determined.
 Excited State   1:      Singlet-?Sym    2.8120 eV  440.91 nm  f=0.4394  <S**2>=0.000
      59 -> 60         0.69705
 This state for optimization and/or second-order correction.
 Total Energy, E(TD-HF/TD-DFT) =  -1028.69986047
 Copying the excited state density for this state as the 1-particle RhoCI density.

 Excited state symmetry could not be determined.
 Excited State   2:      Singlet-?Sym    3.5119 eV  353.04 nm  f=0.0000  <S**2>=0.000
      58 -> 60         0.68351
      58 -> 62         0.11690
      58 -> 64         0.11116

 Excited state symmetry could not be determined.
 Excited State   3:      Singlet-?Sym    4.3078 eV  287.81 nm  f=0.4249  <S**2>=0.000
      57 -> 60         0.68232

 Alpha  occ. eigenvalues --  -89.10531 -19.20651 -14.52720 -10.42274 -10.37519
 Alpha  occ. eigenvalues --  -10.36265 -10.35620 -10.33492 -10.33178 -10.32727
 Alpha  occ. eigenvalues --  -10.32487 -10.31439 -10.30979 -10.30671 -10.29113
 Alpha  occ. eigenvalues --  -10.28240  -8.12534  -6.07411  -6.07032  -6.06554
 Alpha  occ. eigenvalues --   -1.13140  -1.09107  -0.98533  -0.95456  -0.93282
 Alpha  occ. eigenvalues --   -0.89125  -0.86765  -0.83959  -0.80970  -0.75954
 Alpha  occ. eigenvalues --   -0.73727  -0.72104  -0.69060  -0.67588  -0.65097
 Alpha  occ. eigenvalues --   -0.61042  -0.59761  -0.56579  -0.56109  -0.55856
 Alpha  occ. eigenvalues --   -0.55051  -0.53759  -0.53082  -0.50559  -0.48793
 Alpha  occ. eigenvalues --   -0.48718  -0.48417  -0.47020  -0.45545  -0.44853
 Alpha  occ. eigenvalues --   -0.44190  -0.42898  -0.42208  -0.40013  -0.36886
 Alpha  occ. eigenvalues --   -0.33745  -0.31493  -0.31233  -0.25641
 Alpha virt. eigenvalues --   -0.02131   0.03633   0.05714   0.06516   0.09489
 Alpha virt. eigenvalues --    0.10799   0.13290   0.14592   0.16133   0.17090
 Alpha virt. eigenvalues --    0.18330   0.19936   0.20832   0.21276   0.22782

 Mulliken charges:
               1
     1  C    0.017469
     2  C   -0.242682
     3  C    0.244499
     4  C   -0.009861
     5  C    0.012564
     6  C    0.002276
     7  H    0.025971
     8  H    0.032128
     9  H    0.028429
    10  H    0.027383
    11  N   -0.111536
    12  S    0.200791
    13  C   -0.084972
    14  C   -0.033017
    15  C    0.110120
    16  C   -0.036628
    17  H    0.006726
    18  C   -0.038732
    19  C    0.033813
    20  H    0.001376
    21  H    0.000139
    22  H    0.014098
    23  C    0.067832
    24  O   -0.398450
    25  H    0.130265
 Sum of Mulliken charges =  -0.00000

 Dipole moment (field-independent basis, Debye):
    X=              2.1774    Y=             -5.9292    Z=             -0.0002  Tot=              6.3163
 Quadrupole moment (field-independent basis, Debye-Ang):
   XX=            -81.8234   YY=            -96.4168   ZZ=           -104.1810
   XY=             -6.3315   XZ=             -0.0002   YZ=             -0.0003

  Exact polarizability:     347.912    -120.848     295.426      -0.002       0.002      63.251
 Approx polarizability:     274.312     -38.024     264.852      -0.001       0.002      81.999

 ******    1 imaginary frequencies (negative Signs) ******

                      1                      2                      3
                      A                      A                      A
 Frequencies --    -51.4829                45.7247               108.6864
 Red. masses --      5.5826                 6.4502                 5.3896
 Frc consts  --      0.0087                 0.0079                 0.0375
 IR Inten    --      1.7064                 1.4984                 0.5343

                      4                      5                      6
                      A                      A                      A
 Frequencies --    111.9230               177.7175               226.1301
 Red. masses --      5.7353                 5.4162                 5.5084
 Frc consts  --      0.0423                 0.1008                 0.1660
 IR Inten    --      7.6553                 0.0413                 0.3361

                      7                      8                      9
                      A                      A                      A
 Frequencies --    265.7210               272.8735               301.7570
 Red. masses --      7.7829                 4.5475                 7.9385
 Frc consts  --      0.3238                 0.1995                 0.4259
 IR Inten    --      1.4671                 1.0039                 2.7786

                     10                     11                     12
                      A                      A                      A
 Frequencies --    347.4787               384.1887               429.3097
 Red. masses --      4.6190                 7.7973                 3.5511
 Frc consts  --      0.3286                 0.6781                 0.3856
 IR Inten    --      1.0211                 7.3861                 3.3352

                     13                     14                     15
                      A                      A                      A
 Frequencies --    448.9317               502.5910               512.2543
 Red. masses --      4.3587                 8.4294                 3.2135
 Frc consts  --      0.5176                 1.2545                 0.4968
 IR Inten    --      4.1029                10.3627                 0.3566

                     16                     17                     18
                      A                      A                      A
 Frequencies --    541.5787               551.0961               557.8836
 Red. masses --      8.6471                 6.6610                 3.8030
 Frc consts  --      1.4943                 1.1919                 0.6974
 IR Inten    --     11.0176                38.2316                 1.1454

                     19                     20                     21
                      A                      A                      A
 Frequencies --    567.3450               638.4986               688.5064
 Red. masses --      7.2631                 6.2144                 1.4984
 Frc consts  --      1.3774                 1.4927                 0.4185
 IR Inten    --      9.2813                33.9921                55.8738

                     22                     23                     24
                      A                      A                      A
 Frequencies --    711.6886               724.8224               734.0372
 Red. masses --      6.0604                 1.1345                 7.9526
 Frc consts  --      1.8085                 0.3512                 2.5246
 IR Inten    --      2.1597                11.0025                 4.6494

                     25                     26                     27
                      A                      A                      A
 Frequencies --    746.2955               761.2883               768.1487
 Red. masses --      2.4214                 1.7150                 1.6412
 Frc consts  --      0.7946                 0.5856                 0.5706
 IR Inten    --     25.7857                 7.7760               113.7434

                     28                     29                     30
                      A                      A                      A
 Frequencies --    819.3297               837.4231               866.7483
 Red. masses --      6.3200                 1.8882                 1.3822
 Frc consts  --      2.4997                 0.7802                 0.6118
 IR Inten    --     17.8896                 1.1670                 1.4759

                     31                     32                     33
                      A                      A                      A
 Frequencies --    884.6708               902.0623               952.9546
 Red. masses --      4.9548                 1.4353                 1.3610
 Frc consts  --      2.2848                 0.6881                 0.7282
 IR Inten    --      1.4139                 8.6673                 0.6144

                     34                     35                     36
                      A                      A                      A
 Frequencies --    957.4164               961.4319              1004.1207
 Red. masses --      1.3514                 5.1434                 1.2963
 Frc consts  --      0.7298                 2.8012                 0.7700
 IR Inten    --      1.6647                 0.4222                 0.0107

                     37                     38                     39
                      A                      A                      A
 Frequencies --   1047.0788              1054.3541              1087.2770
 Red. masses --      2.1602                 2.1330                 4.0054
 Frc consts  --      1.3954                 1.3970                 2.7898
 IR Inten    --      0.8329                 8.2677                 1.0822

                     40                     41                     42
                      A                      A                      A
 Frequencies --   1106.4000              1153.2702              1160.1757
 Red. masses --      1.6154                 1.3135                 1.2171
 Frc consts  --      1.1651                 1.0293                 0.9652
 IR Inten    --     33.9695                11.6474                60.9314

                     43                     44                     45
                      A                      A                      A
 Frequencies --   1179.7422              1201.4826              1248.6011
 Red. masses --      1.1480                 1.6155                 2.1645
 Frc consts  --      0.9414                 1.3740                 1.9882
 IR Inten    --     34.8079                60.2162                27.4605

                     46                     47                     48
                      A                      A                      A
 Frequencies --   1271.7008              1297.5454              1339.3994
 Red. masses --      2.1702                 1.7397                 5.1202
 Frc consts  --      2.0678                 1.7258                 5.4120
 IR Inten    --     69.3104                 1.2742                10.5316

                     49                     50                     51
                      A                      A                      A
 Frequencies --   1366.3554              1397.9504              1399.5067
 Red. masses --      3.3513                 3.6748                 2.4114
 Frc consts  --      3.6863                 4.2312                 2.7827
 IR Inten    --    110.5816                27.8034                22.3167

                     52                     53                     54
                      A                      A                      A
 Frequencies --   1439.2182              1477.4071              1511.4030
 Red. masses --      2.9467                 3.0359                 2.9816
 Frc consts  --      3.5962                 3.9042                 4.0129
 IR Inten    --    211.0036                 1.6994                37.4801

                     55                     56                     57
                      A                      A                      A
 Frequencies --   1524.8719              1557.9733              1591.1154
 Red. masses --      3.8719                 5.0018                 5.0579
 Frc consts  --      5.3044                 7.1532                 7.5443
 IR Inten    --     45.6149               202.5356               111.4423

                     58                     59                     60
                      A                      A                      A
 Frequencies --   1625.3056              1659.4143              1669.2761
 Red. masses --      7.1310                 6.7518                 6.9006
 Frc consts  --     11.0987                10.9542                11.3291
 IR Inten    --    154.3915                 9.5944               158.9764

                     61                     62                     63
                      A                      A                      A
 Frequencies --   3192.6755              3210.0554              3213.9950
 Red. masses --      1.0888                 1.0864                 1.0862
 Frc consts  --      6.5389                 6.5955                 6.6107
 IR Inten    --     24.5077                 2.3335                 4.2606

                     64                     65                     66
                      A                      A                      A
 Frequencies --   3221.1043              3224.6302              3234.0100
 Red. masses --      1.0919                 1.0903                 1.0957
 Frc consts  --      6.6749                 6.6796                 6.7521
 IR Inten    --     15.2398                 3.3729                 7.3269

                     67                     68                     69
                      A                      A                      A
 Frequencies --   3234.1913              3240.7796              3557.6435
 Red. masses --      1.0989                 1.0996                 1.0816
 Frc consts  --      6.7726                 6.8043                 8.0660
 IR Inten    --     28.0846                12.3601               529.0257

 - Thermochemistry -
 -------------------
 Temperature   298.150 Kelvin.  Pressure   1.00000 Atm.
 Atom     1 has atomic number  6 and mass  12.00000

 Molecular mass:   227.04049 amu.
 Principal axes and moments of inertia in atomic units:
                           1         2         3
     Eigenvalues --  1285.383756474.390717759.77446
           X           -0.70362   0.71057   0.00000
           Y            0.71057   0.70362  -0.00001
           Z            0.00001   0.00000   1.00000
 This molecule is an asymmetric top.
 Rotational symmetry number  1.
 Warning -- assumption of classical behavior for rotation
           may cause significant error
 Rotational temperatures (Kelvin)      0.06738     0.01338     0.01116
 Rotational constants (GHZ):           1.40405     0.27875     0.23258
    1 imaginary frequencies ignored.
 Zero-point vibrational energy     490520.0 (Joules/Mol)
                                  117.23710 (Kcal/Mol)
 Warning -- explicit consideration of  18 degrees of freedom as
           vibrations may cause significant error
 Vibrational temperatures:     65.79   156.38   161.03   255.70   325.35
          (Kelvin)            382.31   392.60   434.16   499.94   552.76
                              617.68   645.91   723.12   737.02   779.21
                              792.90   802.67   816.28   918.66   990.61
                             1023.96  1042.86  1056.12  1073.75  1095.32
                             1105.19  1178.83  1204.87  1247.06  1272.84
                             1297.87  1371.09  1377.51  1383.29  1444.71
                             1506.51  1516.98  1564.35  1591.86  1659.30
                             1669.23  1697.39  1728.67  1796.46  1829.69
                             1866.88  1927.10  1965.88  2011.34  2013.58
                             2070.71  2125.66  2174.57  2193.95  2241.58
                             2289.26  2338.45  2387.53  2401.72  4593.55
                             4618.55  4624.22  4634.45  4639.52  4653.02
                             4653.28  4662.76  5118.66

 Zero-point correction=                           0.186829 (Hartree/Particle)
 Thermal correction to Energy=                    0.198426
 Thermal correction to Enthalpy=                  0.199370
 Thermal correction to Gibbs Free Energy=         0.148715
 Sum of electronic and zero-point Energies=          -1028.513031
 Sum of electronic and thermal Energies=             -1028.501435
 Sum of electronic and thermal Enthalpies=           -1028.500490
 Sum of electronic and thermal Free Energies=        -1028.551146

                     E (Thermal)             CV                S
                      KCal/Mol        Cal/Mol-Kelvin    Cal/Mol-Kelvin
 Total                  124.514             47.832            106.613
 Electronic               0.000              0.000              0.000
 Translational            0.889              2.981             42.162
 Rotational               0.889              2.981             32.535
 Vibrational            122.737             41.870             31.916
 Vibration     1          0.595              1.979              4.994
 Vibration     2          0.606              1.942              3.292
 Vibration     3          0.607              1.940              3.235
 Vibration     4          0.628              1.870              2.352
 Vibration     5          0.650              1.801              1.909
 Vibration     6          0.672              1.736              1.624
 Vibration     7          0.676              1.723              1.578
 Vibration     8          0.694              1.670              1.407
 Vibration     9          0.725              1.580              1.178
 Vibration    10          0.753              1.504              1.023
 Vibration    11          0.791              1.406              0.861
 Vibration    12          0.808              1.363              0.799
 Vibration    13          0.858              1.244              0.652
 Vibration    14          0.867              1.223              0.628
 Vibration    15          0.897              1.158              0.562
 Vibration    16          0.906              1.137              0.542
 Vibration    17          0.913              1.122              0.528
 Vibration    18          0.923              1.102              0.509

 Optimization completed.
    -- Stationary point found.
 Normal termination of Gaussian 16 at Mon Jul 13 16:57:17 2020.
