 Gaussian 16, Revision C.01,
 Gaussian 16:  ES64L-G16RevC.01  3-Jul-2019

 ----------------------------------------------------------------------
 #p opt=addgic freq td wb97xd/cc-pvdz nosymm int=ultrafine scrf=(solven
 t=CarbonTetraChloride)
 ----------------------------------------------------------------------

 ------------------------------------------------
 NM 2D-scan of HBT TD-WB97XD pVDZ in CTC Relaxed.
 ------------------------------------------------
 Symbolic Z-matrix:
 Charge =  0 Multiplicity = 1

 SCF Done:  E(RwB97XD) =  -1028.80478674     A.U. after   15 cycles
 Total Energy, E(TD-HF/TD-DFT) =  -1028.69080142
 SCF Done:  E(RwB97XD) =  -1028.79875833     A.U. after   14 cycles
 Total Energy, E(TD-HF/TD-DFT) =  -1028.68942956
 SCF Done:  E(RwB97XD) =  -1028.80419269     A.U. after   11 cycles
 Total Energy, E(TD-HF/TD-DFT) =  -1028.69138559
 SCF Done:  E(RwB97XD) =  -1028.80426099     A.U. after   10 cycles
 Total Energy, E(TD-HF/TD-DFT) =  -1028.69139107
 SCF Done:  E(RwB97XD) =  -1028.80430108     A.U. after   10 cycles
 Total Energy, E(TD-HF/TD-DFT) =  -1028.69139017
 SCF Done:  E(RwB97XD) =  -1028.80429985     A.U. after    9 cycles
 Total Energy, E(TD-HF/TD-DFT) =  -1028.69139163
 Optimization completed.
    -- Stationary point found.
 Normal termination of Gaussian 16 at Mon Jul 13 15:53:14 2020.

 ----------------------------------------------------------------------
 #P Geom=AllCheck Guess=TCheck SCRF=Check GenChk RwB97XD TD(FC,Read)/CC
 -pVDZ Freq
 ----------------------------------------------------------------------

 Structure from the checkpoint file:  "config_8_1.chk"
 ------------------------------------------------
 NM 2D-scan of HBT TD-WB97XD pVDZ in CTC Relaxed.
 ------------------------------------------------
 Charge =  0 Multiplicity = 1

                          Input orientation:
 ---------------------------------------------------------------------
 Center     Atomic      Atomic             Coordinates (Angstroms)
 Number     Number       Type             X           Y           Z
 ---------------------------------------------------------------------
      1          6           0        1.766510   -3.275324   -0.000041
      2          6           0        1.004226   -2.105391   -0.000025
      3          6           0        1.656404   -0.844840   -0.000008
      4          6           0        3.058050   -0.744554   -0.000001
      5          6           0        3.798647   -1.911097   -0.000018
      6          6           0        3.161468   -3.164379   -0.000037
      7          1           0        1.292903   -4.257856   -0.000056
      8          1           0        3.525025    0.240766    0.000015
      9          1           0        4.888641   -1.859864   -0.000014
     10          1           0        3.764848   -4.073173   -0.000050
     11          7           0        0.820925    0.209912    0.000005
     12         16           0       -0.754382   -1.866716   -0.000026
     13          6           0       -1.426303    1.004855    0.000008
     14          6           0       -2.823984    0.911020   -0.000000
     15          6           0       -0.850786    2.389273    0.000021
     16          6           0       -3.640521    2.060830    0.000029
     17          1           0       -3.298190   -0.072746   -0.000023
     18          6           0       -1.719671    3.508038    0.000050
     19          6           0       -3.099767    3.355900    0.000059
     20          1           0       -4.723928    1.930043    0.000026
     21          1           0       -1.238799    4.486913    0.000060
     22          1           0       -3.754453    4.227629    0.000081
     23          6           0       -0.500958   -0.091316   -0.000004
     24          8           0        0.412077    2.608331   -0.000019
     25          1           0        0.937551    1.355236    0.000046
 ---------------------------------------------------------------------

 SCF Done:  E(RwB97XD) =  -1028.80429985     A.U. after    1 cycles

 Excitation energies and oscillator strengths:

 Excited state symmetry could not be determined.
 Excited State   1:      Singlet-?Sym    3.0724 eV  403.54 nm  f=0.4547  <S**2>=0.000
      59 -> 60         0.69462
 This state for optimization and/or second-order correction.
 Total Energy, E(TD-HF/TD-DFT) =  -1028.69139159
 Copying the excited state density for this state as the 1-particle RhoCI density.

 Excited state symmetry could not be determined.
 Excited State   2:      Singlet-?Sym    4.1987 eV  295.29 nm  f=0.0000  <S**2>=0.000
      56 -> 60         0.68615
      56 -> 63         0.10631
      56 -> 64         0.11443

 Excited state symmetry could not be determined.
 Excited State   3:      Singlet-?Sym    4.3487 eV  285.10 nm  f=0.4273  <S**2>=0.000
      58 -> 60         0.67538

 Alpha  occ. eigenvalues --  -89.10481 -19.23130 -14.50218 -10.41657 -10.36765
 Alpha  occ. eigenvalues --  -10.36561 -10.36088 -10.33227 -10.32342 -10.32184
 Alpha  occ. eigenvalues --  -10.32134 -10.31950 -10.31786 -10.31073 -10.29512
 Alpha  occ. eigenvalues --  -10.28823  -8.12333  -6.07217  -6.06853  -6.06356
 Alpha  occ. eigenvalues --   -1.13046  -1.10069  -0.97698  -0.94939  -0.92667
 Alpha  occ. eigenvalues --   -0.89073  -0.85868  -0.83930  -0.81632  -0.75975
 Alpha  occ. eigenvalues --   -0.71962  -0.71086  -0.68691  -0.67893  -0.64104
 Alpha  occ. eigenvalues --   -0.60831  -0.59409  -0.57221  -0.55267  -0.55182
 Alpha  occ. eigenvalues --   -0.54471  -0.53498  -0.52679  -0.51156  -0.49762
 Alpha  occ. eigenvalues --   -0.49108  -0.47848  -0.46563  -0.45247  -0.45182
 Alpha  occ. eigenvalues --   -0.44098  -0.43037  -0.41822  -0.40682  -0.36679
 Alpha  occ. eigenvalues --   -0.33702  -0.33234  -0.31251  -0.26702
 Alpha virt. eigenvalues --   -0.01968   0.04103   0.06309   0.06408   0.08563
 Alpha virt. eigenvalues --    0.10454   0.12100   0.14787   0.15982   0.17594
 Alpha virt. eigenvalues --    0.18967   0.20516   0.21322   0.21729   0.22770

 Mulliken charges:
               1
     1  C    0.009388
     2  C   -0.240500
     3  C    0.278671
     4  C   -0.013273
     5  C    0.013495
     6  C   -0.003734
     7  H    0.025357
     8  H    0.029809
     9  H    0.025044
    10  H    0.025144
    11  N   -0.219398
    12  S    0.189039
    13  C   -0.130433
    14  C   -0.017046
    15  C    0.124691
    16  C   -0.033877
    17  H    0.003408
    18  C   -0.008189
    19  C    0.031217
    20  H    0.004971
    21  H    0.006688
    22  H    0.016475
    23  C    0.066123
    24  O   -0.384864
    25  H    0.201794
 Sum of Mulliken charges =   0.00000

 Dipole moment (field-independent basis, Debye):
    X=              1.0624    Y=             -4.3657    Z=              0.0001  Tot=              4.4931
 Quadrupole moment (field-independent basis, Debye-Ang):
   XX=            -83.1298   YY=            -92.6936   ZZ=           -104.3693
   XY=             -6.8621   XZ=              0.0001   YZ=              0.0005

  Exact polarizability:     355.315    -132.121     312.247      -0.002       0.003      63.419
 Approx polarizability:     275.436     -36.021     267.027      -0.001       0.002      82.339

 ******    2 imaginary frequencies (negative Signs) ******

                      1                      2                      3
                      A                      A                      A
 Frequencies --   -103.9038               -38.3575                35.7579
 Red. masses --      2.7397                 7.4660                 6.4814
 Frc consts  --      0.0174                 0.0065                 0.0049
 IR Inten    --    622.3444                 0.2247                 1.9730

                      4                      5                      6
                      A                      A                      A
 Frequencies --    106.9764               155.0307               175.7498
 Red. masses --      4.5167                 4.5666                 5.5550
 Frc consts  --      0.0305                 0.0647                 0.1011
 IR Inten    --      0.0002                96.3139                 0.2552

                      7                      8                      9
                      A                      A                      A
 Frequencies --    219.6721               267.2281               279.2214
 Red. masses --      5.2985                 4.7219                 6.4557
 Frc consts  --      0.1506                 0.1987                 0.2965
 IR Inten    --      0.1639                 0.3190                42.6623

                     10                     11                     12
                      A                      A                      A
 Frequencies --    365.7692               396.1254               436.3135
 Red. masses --      5.1733                10.4117                 3.2281
 Frc consts  --      0.4078                 0.9626                 0.3621
 IR Inten    --      0.8769                 3.2680                 5.4408

                     13                     14                     15
                      A                      A                      A
 Frequencies --    441.8486               467.4142               497.5076
 Red. masses --      3.7178                 4.7769                 3.1383
 Frc consts  --      0.4276                 0.6149                 0.4577
 IR Inten    --    297.6519                 0.5689                 0.5705

                     16                     17                     18
                      A                      A                      A
 Frequencies --    505.0490               544.9124               555.3830
 Red. masses --      8.6791                 7.9088                 3.8432
 Frc consts  --      1.3043                 1.3836                 0.6984
 IR Inten    --      1.2598                14.3288                 0.5230

                     19                     20                     21
                      A                      A                      A
 Frequencies --    583.5658               594.6150               659.2072
 Red. masses --      7.7175                 6.4581                 6.8566
 Frc consts  --      1.5485                 1.3453                 1.7555
 IR Inten    --     84.3554                 8.2449                38.1210

                     22                     23                     24
                      A                      A                      A
 Frequencies --    693.4779               703.9537               739.5780
 Red. masses --      1.6462                 6.2628                 2.3333
 Frc consts  --      0.4665                 1.8285                 0.7519
 IR Inten    --     35.6705                 9.6621                16.3453

                     25                     26                     27
                      A                      A                      A
 Frequencies --    764.6904               767.7616               791.5824
 Red. masses --      1.7345                 1.8962                 5.3160
 Frc consts  --      0.5976                 0.6586                 1.9626
 IR Inten    --     10.9989                78.6464                36.5999

                     28                     29                     30
                      A                      A                      A
 Frequencies --    820.4084               836.5226               861.5574
 Red. masses --      4.7398                 1.6031                 1.4027
 Frc consts  --      1.8796                 0.6609                 0.6135
 IR Inten    --     93.1748                 0.0084                 0.9595

                     31                     32                     33
                      A                      A                      A
 Frequencies --    911.3820               929.6838               953.6967
 Red. masses --      1.3932                 6.0822                 1.3483
 Frc consts  --      0.6818                 3.0973                 0.7226
 IR Inten    --      6.1561                27.6699                 1.5334

                     34                     35                     36
                      A                      A                      A
 Frequencies --    955.3766              1001.0053              1040.6231
 Red. masses --      1.3731                 1.2953                 2.8511
 Frc consts  --      0.7384                 0.7647                 1.8191
 IR Inten    --      0.8574                 0.0049                45.5378

                     37                     38                     39
                      A                      A                      A
 Frequencies --   1045.4773              1051.4780              1103.1816
 Red. masses --      2.5568                 2.4655                 2.8817
 Frc consts  --      1.6466                 1.6060                 2.0663
 IR Inten    --     55.8249                54.1317               313.9938

                     40                     41                     42
                      A                      A                      A
 Frequencies --   1126.6227              1153.0091              1165.4699
 Red. masses --      1.5502                 1.3331                 1.1872
 Frc consts  --      1.1593                 1.0442                 0.9501
 IR Inten    --      3.7828                 3.1816               173.3209

                     43                     44                     45
                      A                      A                      A
 Frequencies --   1177.9136              1183.8790              1256.8434
 Red. masses --      1.1489                 1.0586                 2.0004
 Frc consts  --      0.9392                 0.8742                 1.8618
 IR Inten    --      5.0245                63.8522                95.4056

                     46                     47                     48
                      A                      A                      A
 Frequencies --   1261.3234              1300.7300              1333.5043
 Red. masses --      2.5425                 2.0206                 4.0781
 Frc consts  --      2.3832                 2.0142                 4.2727
 IR Inten    --     41.4461                41.0084                68.9393

                     49                     50                     51
                      A                      A                      A
 Frequencies --   1362.7451              1395.2696              1404.7079
 Red. masses --      6.1900                 2.6318                 2.1253
 Frc consts  --      6.7728                 3.0187                 2.4708
 IR Inten    --    183.4856                14.3889                 7.4631

                     52                     53                     54
                      A                      A                      A
 Frequencies --   1439.6386              1476.0520              1493.5801
 Red. masses --      3.4798                 3.4049                 3.0846
 Frc consts  --      4.2492                 4.3707                 4.0542
 IR Inten    --    764.5467                13.8960                41.2506

                     55                     56                     57
                      A                      A                      A
 Frequencies --   1536.0047              1552.2876              1572.6287
 Red. masses --      4.7877                 4.9376                 5.0003
 Frc consts  --      6.6552                 7.0099                 7.2861
 IR Inten    --     57.1229               143.2412                77.8505

                     58                     59                     60
                      A                      A                      A
 Frequencies --   1626.5405              1642.6602              1662.3510
 Red. masses --      5.9799                 5.1533                 6.7138
 Frc consts  --      9.3213                 8.1928                10.9311
 IR Inten    --     23.4816               696.6794               161.2229

                     61                     62                     63
                      A                      A                      A
 Frequencies --   2024.3255              3199.4099              3210.1973
 Red. masses --      1.1336                 1.0880                 1.0858
 Frc consts  --      2.7370                 6.5616                 6.5926
 IR Inten    --    695.9081                18.3431                 4.1459

                     64                     65                     66
                      A                      A                      A
 Frequencies --   3214.7814              3218.8183              3225.3422
 Red. masses --      1.0883                 1.0901                 1.0922
 Frc consts  --      6.6270                 6.6543                 6.6943
 IR Inten    --      2.7666                 3.2582                20.9289

                     67                     68                     69
                      A                      A                      A
 Frequencies --   3228.7079              3236.5792              3238.2155
 Red. masses --      1.0957                 1.0997                 1.0987
 Frc consts  --      6.7296                 6.7873                 6.7879
 IR Inten    --      9.8721                20.9428                11.1735

 - Thermochemistry -
 -------------------
 Temperature   298.150 Kelvin.  Pressure   1.00000 Atm.
 Atom     1 has atomic number  6 and mass  12.00000

 Molecular mass:   227.04049 amu.
 Principal axes and moments of inertia in atomic units:
                           1         2         3
     Eigenvalues --  1343.958956338.602797682.56174
           X           -0.70039   0.71376   0.00000
           Y            0.71376   0.70039  -0.00001
           Z            0.00001   0.00001   1.00000
 This molecule is an asymmetric top.
 Rotational symmetry number  1.
 Warning -- assumption of classical behavior for rotation
           may cause significant error
 Rotational temperatures (Kelvin)      0.06445     0.01366     0.01127
 Rotational constants (GHZ):           1.34285     0.28472     0.23491
    2 imaginary frequencies ignored.
 Zero-point vibrational energy     479576.5 (Joules/Mol)
                                  114.62152 (Kcal/Mol)
 Warning -- explicit consideration of  18 degrees of freedom as
           vibrations may cause significant error
 Vibrational temperatures:     51.45   153.92   223.05   252.86   316.06
          (Kelvin)            384.48   401.74   526.26   569.94   627.76
                              635.72   672.50   715.80   726.65   784.01
                              799.07   839.62   855.52   948.45   997.76
                             1012.83  1064.09  1100.22  1104.64  1138.91
                             1180.38  1203.57  1239.59  1311.28  1337.61
                             1372.16  1374.57  1440.22  1497.22  1504.21
                             1512.84  1587.23  1620.96  1658.92  1676.85
                             1694.75  1703.34  1808.32  1814.76  1871.46
                             1918.62  1960.69  2007.48  2021.06  2071.32
                             2123.71  2148.93  2209.97  2233.40  2262.66
                             2340.23  2363.42  2391.75  2912.55  4603.24
                             4618.76  4625.35  4631.16  4640.55  4645.39
                             4656.72  4659.07

 Zero-point correction=                           0.182661 (Hartree/Particle)
 Thermal correction to Energy=                    0.193829
 Thermal correction to Enthalpy=                  0.194773
 Thermal correction to Gibbs Free Energy=         0.144762
 Sum of electronic and zero-point Energies=          -1028.508731
 Sum of electronic and thermal Energies=             -1028.497562
 Sum of electronic and thermal Enthalpies=           -1028.496618
 Sum of electronic and thermal Free Energies=        -1028.546629

                     E (Thermal)             CV                S
                      KCal/Mol        Cal/Mol-Kelvin    Cal/Mol-Kelvin
 Total                  121.630             46.224            105.258
 Electronic               0.000              0.000              0.000
 Translational            0.889              2.981             42.162
 Rotational               0.889              2.981             32.548
 Vibrational            119.852             40.262             30.547
 Vibration     1          0.594              1.982              5.481
 Vibration     2          0.606              1.944              3.323
 Vibration     3          0.620              1.897              2.610
 Vibration     4          0.628              1.872              2.373
 Vibration     5          0.647              1.811              1.962
 Vibration     6          0.672              1.733              1.614
 Vibration     7          0.680              1.712              1.538
 Vibration     8          0.739              1.543              1.097
 Vibration     9          0.763              1.478              0.977
 Vibration    10          0.797              1.391              0.838
 Vibration    11          0.802              1.379              0.821
 Vibration    12          0.825              1.322              0.745
 Vibration    13          0.853              1.256              0.664
 Vibration    14          0.860              1.239              0.646
 Vibration    15          0.900              1.151              0.555
 Vibration    16          0.911              1.128              0.533
 Vibration    17          0.940              1.067              0.479
 Vibration    18          0.952              1.043              0.459

 Optimization completed.
    -- Stationary point found.
 Normal termination of Gaussian 16 at Mon Jul 13 16:11:12 2020.
