 Gaussian 16, Revision C.01,
 Gaussian 16:  ES64L-G16RevC.01  3-Jul-2019

 ----------------------------------------------------------------------
 #p opt=addgic freq td wb97xd/cc-pvdz nosymm int=ultrafine scrf=(solven
 t=CarbonTetraChloride)
 ----------------------------------------------------------------------

 ------------------------------------------------
 NM 2D-scan of HBT TD-WB97XD pVDZ in CTC Relaxed.
 ------------------------------------------------
 Symbolic Z-matrix:
 Charge =  0 Multiplicity = 1

 SCF Done:  E(RwB97XD) =  -1028.81054506     A.U. after   15 cycles
 Total Energy, E(TD-HF/TD-DFT) =  -1028.68122296
 SCF Done:  E(RwB97XD) =  -1028.81596517     A.U. after   12 cycles
 Total Energy, E(TD-HF/TD-DFT) =  -1028.68713816
 SCF Done:  E(RwB97XD) =  -1028.81616024     A.U. after   12 cycles
 Total Energy, E(TD-HF/TD-DFT) =  -1028.68756789
 SCF Done:  E(RwB97XD) =  -1028.81588069     A.U. after   11 cycles
 Total Energy, E(TD-HF/TD-DFT) =  -1028.68793244
 SCF Done:  E(RwB97XD) =  -1028.81604620     A.U. after    9 cycles
 Total Energy, E(TD-HF/TD-DFT) =  -1028.68794188
 SCF Done:  E(RwB97XD) =  -1028.81606356     A.U. after    9 cycles
 Total Energy, E(TD-HF/TD-DFT) =  -1028.68794270
 SCF Done:  E(RwB97XD) =  -1028.81607768     A.U. after    8 cycles
 Total Energy, E(TD-HF/TD-DFT) =  -1028.68794253
 SCF Done:  E(RwB97XD) =  -1028.81607724     A.U. after    7 cycles
 Total Energy, E(TD-HF/TD-DFT) =  -1028.68794280
 Optimization completed.
    -- Stationary point found.
 Normal termination of Gaussian 16 at Tue Jul 14 16:44:15 2020.

 ----------------------------------------------------------------------
 #P Geom=AllCheck Guess=TCheck SCRF=Check GenChk RwB97XD TD(FC,Read)/CC
 -pVDZ Freq
 ----------------------------------------------------------------------

 Structure from the checkpoint file:  "config_3_19.chk"
 ------------------------------------------------
 NM 2D-scan of HBT TD-WB97XD pVDZ in CTC Relaxed.
 ------------------------------------------------
 Charge =  0 Multiplicity = 1

                          Input orientation:
 ---------------------------------------------------------------------
 Center     Atomic      Atomic             Coordinates (Angstroms)
 Number     Number       Type             X           Y           Z
 ---------------------------------------------------------------------
      1          6           0        1.507617   -3.258123   -0.000059
      2          6           0        0.990387   -1.967867   -0.000047
      3          6           0        1.800365   -0.783575   -0.000010
      4          6           0        3.209241   -0.979220    0.000009
      5          6           0        3.716843   -2.271149   -0.000003
      6          6           0        2.886554   -3.411779   -0.000035
      7          1           0        0.838825   -4.119683   -0.000084
      8          1           0        3.876150   -0.116276    0.000035
      9          1           0        4.799762   -2.409809    0.000014
     10          1           0        3.327335   -4.409381   -0.000041
     11          7           0        1.094436    0.376466    0.000007
     12         16           0       -0.691701   -1.566203   -0.000065
     13          6           0       -1.280167    1.086263    0.000031
     14          6           0       -2.648749    0.713972    0.000070
     15          6           0       -0.938426    2.505248    0.000022
     16          6           0       -3.638475    1.682682    0.000062
     17          1           0       -2.923530   -0.340927    0.000105
     18          6           0       -1.968080    3.463493    0.000012
     19          6           0       -3.304987    3.055300    0.000025
     20          1           0       -4.686990    1.380876    0.000084
     21          1           0       -1.696194    4.519467   -0.000007
     22          1           0       -4.098578    3.803437    0.000013
     23          6           0       -0.249950    0.133359   -0.000007
     24          8           0        0.332739    2.823290    0.000009
     25          1           0        0.896080    1.946976   -0.000019
 ---------------------------------------------------------------------

 SCF Done:  E(RwB97XD) =  -1028.81607724     A.U. after    1 cycles

 Excitation energies and oscillator strengths:

 Excited state symmetry could not be determined.
 Excited State   1:      Singlet-?Sym    3.4867 eV  355.59 nm  f=0.6621  <S**2>=0.000
      59 -> 60         0.68891
 This state for optimization and/or second-order correction.
 Total Energy, E(TD-HF/TD-DFT) =  -1028.68794280
 Copying the excited state density for this state as the 1-particle RhoCI density.

 Excited state symmetry could not be determined.
 Excited State   2:      Singlet-?Sym    4.3757 eV  283.35 nm  f=0.1426  <S**2>=0.000
      57 -> 60         0.29472
      58 -> 60         0.59447
      59 -> 62         0.11035

 Excited state symmetry could not be determined.
 Excited State   3:      Singlet-?Sym    4.6134 eV  268.75 nm  f=0.1150  <S**2>=0.000
      57 -> 60         0.55844
      57 -> 62        -0.13602
      58 -> 60        -0.29229
      58 -> 61        -0.11213
      59 -> 61         0.19413

 Alpha  occ. eigenvalues --  -89.08624 -19.28241 -14.47620 -10.39602 -10.38084
 Alpha  occ. eigenvalues --  -10.35444 -10.34483 -10.32301 -10.32144 -10.32129
 Alpha  occ. eigenvalues --  -10.31989 -10.31693 -10.31389 -10.31345 -10.30643
 Alpha  occ. eigenvalues --  -10.30551  -8.10738  -6.05567  -6.05227  -6.04803
 Alpha  occ. eigenvalues --   -1.16863  -1.08235  -0.96875  -0.95925  -0.92283
 Alpha  occ. eigenvalues --   -0.88808  -0.85139  -0.84578  -0.82286  -0.75954
 Alpha  occ. eigenvalues --   -0.71397  -0.70384  -0.69160  -0.67986  -0.63723
 Alpha  occ. eigenvalues --   -0.60527  -0.58997  -0.58788  -0.56035  -0.54495
 Alpha  occ. eigenvalues --   -0.53962  -0.53538  -0.52983  -0.50543  -0.50447
 Alpha  occ. eigenvalues --   -0.49312  -0.47268  -0.46000  -0.45714  -0.44842
 Alpha  occ. eigenvalues --   -0.44173  -0.42979  -0.42178  -0.40094  -0.37373
 Alpha  occ. eigenvalues --   -0.36461  -0.31962  -0.31596  -0.28195
 Alpha virt. eigenvalues --   -0.01806   0.05108   0.06800   0.07169   0.07996
 Alpha virt. eigenvalues --    0.11047   0.14525   0.15247   0.17211   0.18000
 Alpha virt. eigenvalues --    0.18684   0.21228   0.21469   0.22375   0.22632

 Mulliken charges:
               1
     1  C    0.023005
     2  C   -0.217104
     3  C    0.215891
     4  C   -0.022803
     5  C    0.003340
     6  C   -0.002953
     7  H    0.016767
     8  H    0.018752
     9  H    0.019178
    10  H    0.020155
    11  N   -0.372120
    12  S    0.159774
    13  C   -0.074515
    14  C   -0.029851
    15  C    0.094929
    16  C   -0.010128
    17  H    0.025877
    18  C   -0.001279
    19  C    0.023333
    20  H    0.011126
    21  H    0.019725
    22  H    0.023606
    23  C    0.087916
    24  O   -0.222579
    25  H    0.189956
 Sum of Mulliken charges =  -0.00000

 Dipole moment (field-independent basis, Debye):
    X=             -0.7286    Y=             -2.3274    Z=             -0.0000  Tot=              2.4388
 Quadrupole moment (field-independent basis, Debye-Ang):
   XX=            -83.1546   YY=            -89.8101   ZZ=           -104.2597
   XY=             -7.1604   XZ=             -0.0001   YZ=             -0.0000

  Exact polarizability:     391.807    -185.148     375.699      -0.002       0.003      63.278
 Approx polarizability:     276.245     -35.616     258.724       0.000       0.001      82.344

                      1                      2                      3
                      A                      A                      A
 Frequencies --     45.6547                49.6007               109.7414
 Red. masses --      4.8678                 6.9929                 5.2545
 Frc consts  --      0.0060                 0.0101                 0.0373
 IR Inten    --      0.2782                 1.2268                 0.0927

                      4                      5                      6
                      A                      A                      A
 Frequencies --    120.0188               176.5824               224.1154
 Red. masses --      5.6575                 6.3894                 5.2650
 Frc consts  --      0.0480                 0.1174                 0.1558
 IR Inten    --      1.5630                 1.5089                 0.0001

                      7                      8                      9
                      A                      A                      A
 Frequencies --    274.3398               279.3149               303.5350
 Red. masses --      4.8325                 7.7719                 6.4810
 Frc consts  --      0.2143                 0.3572                 0.3518
 IR Inten    --      0.0066                31.2255                 8.1118

                     10                     11                     12
                      A                      A                      A
 Frequencies --    385.0085               418.1814               441.9461
 Red. masses --      4.5530                 9.7629                 3.2213
 Frc consts  --      0.3976                 1.0059                 0.3707
 IR Inten    --      0.0447                12.1341                 3.8534

                     13                     14                     15
                      A                      A                      A
 Frequencies --    484.6682               504.6992               506.6799
 Red. masses --      4.5632                 8.3840                 3.1553
 Frc consts  --      0.6316                 1.2582                 0.4773
 IR Inten    --      0.1014                 0.9016                 0.0004

                     16                     17                     18
                      A                      A                      A
 Frequencies --    516.9638               532.6498               556.4618
 Red. masses --      5.3007                 7.0444                 3.9204
 Frc consts  --      0.8346                 1.1775                 0.7152
 IR Inten    --      8.1796                62.2537                 0.1532

                     19                     20                     21
                      A                      A                      A
 Frequencies --    575.8717               644.0427               716.6447
 Red. masses --      7.7032                 6.6547                 1.5080
 Frc consts  --      1.5051                 1.6263                 0.4563
 IR Inten    --     21.7556                22.0512                65.8512

                     22                     23                     24
                      A                      A                      A
 Frequencies --    721.2731               727.2100               738.0386
 Red. masses --      8.6128                 7.5614                 1.9257
 Frc consts  --      2.6399                 2.3560                 0.6180
 IR Inten    --     26.4061                30.1590                39.3010

                     25                     26                     27
                      A                      A                      A
 Frequencies --    741.7200               769.6479               806.6589
 Red. masses --      1.8350                 2.2993                 1.8228
 Frc consts  --      0.5948                 0.8025                 0.6988
 IR Inten    --      5.1902                46.1627                 4.0740

                     28                     29                     30
                      A                      A                      A
 Frequencies --    829.4442               860.8439               887.0426
 Red. masses --      6.3988                 1.4264                 6.5048
 Frc consts  --      2.5937                 0.6228                 3.0156
 IR Inten    --     13.6548                 1.0260                69.2470

                     31                     32                     33
                      A                      A                      A
 Frequencies --    913.4298               953.0112               963.9858
 Red. masses --      1.3517                 1.3463                 1.3614
 Frc consts  --      0.6645                 0.7204                 0.7454
 IR Inten    --      5.3133                 2.0395                 0.0005

                     34                     35                     36
                      A                      A                      A
 Frequencies --    976.1411               998.6354              1043.8290
 Red. masses --      7.5187                 1.3056                 2.1402
 Frc consts  --      4.2210                 0.7672                 1.3739
 IR Inten    --     14.4673                 0.0039                 0.2512

                     37                     38                     39
                      A                      A                      A
 Frequencies --   1046.5651              1053.6557              1094.4222
 Red. masses --      2.0651                 1.0579                 3.7904
 Frc consts  --      1.3327                 0.6919                 2.6749
 IR Inten    --      7.8805                67.0257                65.5288

                     40                     41                     42
                      A                      A                      A
 Frequencies --   1140.9610              1153.6089              1179.1318
 Red. masses --      1.4863                 1.3895                 1.2366
 Frc consts  --      1.1400                 1.0895                 1.0130
 IR Inten    --     58.4694                17.3643                25.8714

                     43                     44                     45
                      A                      A                      A
 Frequencies --   1183.4679              1235.3689              1263.3637
 Red. masses --      1.3388                 4.3214                 1.8952
 Frc consts  --      1.1048                 3.8857                 1.7823
 IR Inten    --     10.5049                43.9620               198.3873

                     46                     47                     48
                      A                      A                      A
 Frequencies --   1282.5823              1307.3965              1367.8167
 Red. masses --      1.7416                 3.3484                 2.6377
 Frc consts  --      1.6879                 3.3721                 2.9076
 IR Inten    --      7.1072                93.8816                 7.9084

                     49                     50                     51
                      A                      A                      A
 Frequencies --   1369.5683              1407.6342              1455.8574
 Red. masses --      4.7351                 2.7647                 2.1106
 Frc consts  --      5.2330                 3.2276                 2.6357
 IR Inten    --    239.9872               128.3883                39.1479

                     52                     53                     54
                      A                      A                      A
 Frequencies --   1467.2250              1493.0144              1541.1758
 Red. masses --      3.5861                 3.1709                 3.8821
 Frc consts  --      4.5484                 4.1645                 5.4328
 IR Inten    --     40.3056                49.8097               184.1373

                     55                     56                     57
                      A                      A                      A
 Frequencies --   1551.4834              1585.2512              1600.2882
 Red. masses --      4.1268                 7.1368                 5.5380
 Frc consts  --      5.8527                10.5669                 8.3560
 IR Inten    --     48.3517                26.2841                66.3008

                     58                     59                     60
                      A                      A                      A
 Frequencies --   1615.0946              1642.0422              1683.9583
 Red. masses --      5.3261                 5.6476                 1.3028
 Frc consts  --      8.1858                 8.9719                 2.1766
 IR Inten    --   1096.3987               314.2618               121.3020

                     61                     62                     63
                      A                      A                      A
 Frequencies --   2374.3840              3204.5964              3213.6552
 Red. masses --      1.1088                 1.0862                 1.0860
 Frc consts  --      3.6829                 6.5723                 6.6083
 IR Inten    --    171.4817                 8.8856                 4.6834

                     64                     65                     66
                      A                      A                      A
 Frequencies --   3214.9167              3223.5572              3225.8581
 Red. masses --      1.0898                 1.0885                 1.0951
 Frc consts  --      6.6365                 6.6643                 6.7144
 IR Inten    --      1.9127                16.2205                11.0490

                     67                     68                     69
                      A                      A                      A
 Frequencies --   3232.8187              3233.3859              3240.1430
 Red. masses --      1.0945                 1.0993                 1.0984
 Frc consts  --      6.7398                 6.7716                 6.7943
 IR Inten    --      8.1195                38.5715                24.3758

 - Thermochemistry -
 -------------------
 Temperature   298.150 Kelvin.  Pressure   1.00000 Atm.
 Atom     1 has atomic number  6 and mass  12.00000

 Molecular mass:   227.04049 amu.
 Principal axes and moments of inertia in atomic units:
                           1         2         3
     Eigenvalues --  1285.137106306.601817591.73891
           X           -0.70277   0.71142   0.00000
           Y            0.71142   0.70277  -0.00001
           Z            0.00001   0.00001   1.00000
 This molecule is an asymmetric top.
 Rotational symmetry number  1.
 Warning -- assumption of classical behavior for rotation
           may cause significant error
 Rotational temperatures (Kelvin)      0.06740     0.01373     0.01141
 Rotational constants (GHZ):           1.40432     0.28617     0.23772
 Zero-point vibrational energy     488566.1 (Joules/Mol)
                                  116.77011 (Kcal/Mol)
 Warning -- explicit consideration of  19 degrees of freedom as
           vibrations may cause significant error
 Vibrational temperatures:     65.69    71.36   157.89   172.68   254.06
          (Kelvin)            322.45   394.71   401.87   436.72   553.94
                              601.67   635.86   697.33   726.15   729.00
                              743.80   766.36   800.62   828.55   926.63
                             1031.09  1037.75  1046.29  1061.87  1067.17
                             1107.35  1160.60  1193.39  1238.56  1276.26
                             1314.22  1371.17  1386.96  1404.45  1436.81
                             1501.84  1505.77  1515.98  1574.63  1641.59
                             1659.79  1696.51  1702.75  1777.42  1817.70
                             1845.35  1881.05  1967.98  1970.50  2025.27
                             2094.65  2111.01  2148.11  2217.41  2232.24
                             2280.82  2302.46  2323.76  2362.53  2422.84
                             3416.21  4610.70  4623.73  4625.55  4637.98
                             4641.29  4651.31  4652.12  4661.84

 Zero-point correction=                           0.186085 (Hartree/Particle)
 Thermal correction to Energy=                    0.198306
 Thermal correction to Enthalpy=                  0.199250
 Thermal correction to Gibbs Free Energy=         0.146708
 Sum of electronic and zero-point Energies=          -1028.501858
 Sum of electronic and thermal Energies=             -1028.489637
 Sum of electronic and thermal Enthalpies=           -1028.488693
 Sum of electronic and thermal Free Energies=        -1028.541235

                     E (Thermal)             CV                S
                      KCal/Mol        Cal/Mol-Kelvin    Cal/Mol-Kelvin
 Total                  124.439             48.982            110.585
 Electronic               0.000              0.000              0.000
 Translational            0.889              2.981             42.162
 Rotational               0.889              2.981             32.487
 Vibrational            122.661             43.020             35.936
 Vibration     1          0.595              1.979              4.997
 Vibration     2          0.595              1.978              4.833
 Vibration     3          0.606              1.941              3.273
 Vibration     4          0.609              1.933              3.100
 Vibration     5          0.628              1.871              2.364
 Vibration     6          0.649              1.804              1.926
 Vibration     7          0.677              1.721              1.569
 Vibration     8          0.680              1.712              1.538
 Vibration     9          0.695              1.667              1.397
 Vibration    10          0.754              1.502              1.019
 Vibration    11          0.781              1.431              0.898
 Vibration    12          0.802              1.379              0.821
 Vibration    13          0.841              1.284              0.698
 Vibration    14          0.860              1.240              0.646
 Vibration    15          0.862              1.235              0.642
 Vibration    16          0.872              1.212              0.617
 Vibration    17          0.888              1.178              0.581
 Vibration    18          0.912              1.126              0.531
 Vibration    19          0.932              1.083              0.493

 Optimization completed.
    -- Stationary point found.
 Normal termination of Gaussian 16 at Tue Jul 14 17:01:48 2020.
