 Gaussian 16, Revision C.01,
 Gaussian 16:  ES64L-G16RevC.01  3-Jul-2019

 ----------------------------------------------------------------------
 #p opt=addgic freq td wb97xd/cc-pvdz nosymm int=ultrafine scrf=(solven
 t=CarbonTetraChloride)
 ----------------------------------------------------------------------

 ------------------------------------------------
 NM 2D-scan of HBT TD-WB97XD pVDZ in CTC Relaxed.
 ------------------------------------------------
 Symbolic Z-matrix:
 Charge =  0 Multiplicity = 1

 SCF Done:  E(RwB97XD) =  -1028.77361009     A.U. after   15 cycles
 Total Energy, E(TD-HF/TD-DFT) =  -1028.64225619
 SCF Done:  E(RwB97XD) =  -1028.81596612     A.U. after   13 cycles
 Total Energy, E(TD-HF/TD-DFT) =  -1028.68699434
 SCF Done:  E(RwB97XD) =  -1028.81721170     A.U. after   13 cycles
 Total Energy, E(TD-HF/TD-DFT) =  -1028.69000507
 SCF Done:  E(RwB97XD) =  -1028.81739705     A.U. after   11 cycles
 Total Energy, E(TD-HF/TD-DFT) =  -1028.69008337
 SCF Done:  E(RwB97XD) =  -1028.81740423     A.U. after   10 cycles
 Total Energy, E(TD-HF/TD-DFT) =  -1028.69010360
 SCF Done:  E(RwB97XD) =  -1028.81744292     A.U. after    8 cycles
 Total Energy, E(TD-HF/TD-DFT) =  -1028.69010520
 SCF Done:  E(RwB97XD) =  -1028.81746637     A.U. after    8 cycles
 Total Energy, E(TD-HF/TD-DFT) =  -1028.69010530
 SCF Done:  E(RwB97XD) =  -1028.81747339     A.U. after    7 cycles
 Total Energy, E(TD-HF/TD-DFT) =  -1028.69010538
 Optimization completed.
    -- Stationary point found.
 Normal termination of Gaussian 16 at Mon Jul 13 17:33:26 2020.

 ----------------------------------------------------------------------
 #P Geom=AllCheck Guess=TCheck SCRF=Check GenChk RwB97XD TD(FC,Read)/CC
 -pVDZ Freq
 ----------------------------------------------------------------------

 Structure from the checkpoint file:  "config_3_6.chk"
 ------------------------------------------------
 NM 2D-scan of HBT TD-WB97XD pVDZ in CTC Relaxed.
 ------------------------------------------------
 Charge =  0 Multiplicity = 1

                          Input orientation:
 ---------------------------------------------------------------------
 Center     Atomic      Atomic             Coordinates (Angstroms)
 Number     Number       Type             X           Y           Z
 ---------------------------------------------------------------------
      1          6           0        1.693217   -3.295882    0.000006
      2          6           0        0.976292   -2.099097    0.000027
      3          6           0        1.670124   -0.842880   -0.000025
      4          6           0        3.088808   -0.815287   -0.000096
      5          6           0        3.778418   -2.006087   -0.000117
      6          6           0        3.090108   -3.239719   -0.000067
      7          1           0        1.181606   -4.259261    0.000042
      8          1           0        3.594272    0.150953   -0.000133
      9          1           0        4.869863   -2.002064   -0.000172
     10          1           0        3.659035   -4.170752   -0.000085
     11          7           0        0.912564    0.252269    0.000002
     12         16           0       -0.759067   -1.805749    0.000101
     13          6           0       -1.367446    1.025301    0.000063
     14          6           0       -2.783124    0.857424    0.000007
     15          6           0       -0.894488    2.432984    0.000075
     16          6           0       -3.641836    1.946287   -0.000043
     17          1           0       -3.193924   -0.153789   -0.000013
     18          6           0       -1.794999    3.504760    0.000023
     19          6           0       -3.160943    3.277973   -0.000041
     20          1           0       -4.718854    1.770634   -0.000093
     21          1           0       -1.369121    4.508455    0.000044
     22          1           0       -3.859627    4.114868   -0.000080
     23          6           0       -0.418523   -0.023339    0.000078
     24          8           0        0.382953    2.757311    0.000203
     25          1           0        0.909438    1.902373    0.000394
 ---------------------------------------------------------------------

 SCF Done:  E(RwB97XD) =  -1028.81747339     A.U. after    1 cycles

 Excitation energies and oscillator strengths:

 Excited state symmetry could not be determined.
 Excited State   1:      Singlet-?Sym    3.4659 eV  357.73 nm  f=0.6968  <S**2>=0.000
      59 -> 60         0.68970
 This state for optimization and/or second-order correction.
 Total Energy, E(TD-HF/TD-DFT) =  -1028.69010537
 Copying the excited state density for this state as the 1-particle RhoCI density.

 Excited state symmetry could not be determined.
 Excited State   2:      Singlet-?Sym    4.3861 eV  282.68 nm  f=0.2243  <S**2>=0.000
      57 -> 60        -0.24732
      58 -> 60        -0.61345
      59 -> 62         0.16529

 Excited state symmetry could not be determined.
 Excited State   3:      Singlet-?Sym    4.5747 eV  271.02 nm  f=0.0526  <S**2>=0.000
      57 -> 60         0.56707
      57 -> 62         0.10710
      58 -> 60        -0.23623
      58 -> 61        -0.12487
      59 -> 61         0.24133

 Alpha  occ. eigenvalues --  -89.09173 -19.28471 -14.46933 -10.39957 -10.38220
 Alpha  occ. eigenvalues --  -10.34925 -10.34833 -10.32942 -10.32335 -10.32275
 Alpha  occ. eigenvalues --  -10.31911 -10.31443 -10.31329 -10.31254 -10.30464
 Alpha  occ. eigenvalues --  -10.30234  -8.11032  -6.05893  -6.05554  -6.05084
 Alpha  occ. eigenvalues --   -1.17219  -1.08279  -0.96645  -0.95573  -0.91500
 Alpha  occ. eigenvalues --   -0.88798  -0.84910  -0.84386  -0.82309  -0.75984
 Alpha  occ. eigenvalues --   -0.71034  -0.70150  -0.69102  -0.68286  -0.63344
 Alpha  occ. eigenvalues --   -0.60274  -0.58862  -0.58529  -0.55855  -0.54402
 Alpha  occ. eigenvalues --   -0.53647  -0.53063  -0.52768  -0.50941  -0.50404
 Alpha  occ. eigenvalues --   -0.49281  -0.47917  -0.45851  -0.45528  -0.44712
 Alpha  occ. eigenvalues --   -0.43762  -0.42876  -0.42279  -0.39953  -0.37332
 Alpha  occ. eigenvalues --   -0.36438  -0.32164  -0.31446  -0.27932
 Alpha virt. eigenvalues --   -0.01843   0.05142   0.07014   0.07112   0.07166
 Alpha virt. eigenvalues --    0.11159   0.13150   0.15118   0.15951   0.17920
 Alpha virt. eigenvalues --    0.18584   0.20831   0.21685   0.22315   0.22723

 Mulliken charges:
               1
     1  C    0.008686
     2  C   -0.221563
     3  C    0.233658
     4  C   -0.015696
     5  C    0.009343
     6  C   -0.008604
     7  H    0.018970
     8  H    0.016232
     9  H    0.018456
    10  H    0.020529
    11  N   -0.352298
    12  S    0.151924
    13  C   -0.093206
    14  C   -0.016416
    15  C    0.086019
    16  C   -0.013925
    17  H    0.012134
    18  C    0.013399
    19  C    0.021839
    20  H    0.011649
    21  H    0.018842
    22  H    0.022437
    23  C    0.080927
    24  O   -0.195008
    25  H    0.171670
 Sum of Mulliken charges =  -0.00000

 Dipole moment (field-independent basis, Debye):
    X=             -0.3290    Y=             -1.8497    Z=              0.0002  Tot=              1.8787
 Quadrupole moment (field-independent basis, Debye-Ang):
   XX=            -83.2195   YY=            -89.0927   ZZ=           -104.4811
   XY=             -6.8905   XZ=              0.0003   YZ=              0.0001

  Exact polarizability:     404.358    -193.234     387.744      -0.003       0.002      63.513
 Approx polarizability:     280.309     -36.757     263.041      -0.002      -0.000      82.472

                      1                      2                      3
                      A                      A                      A
 Frequencies --     37.8893                61.7769               108.4753
 Red. masses --      5.9733                 6.0708                 4.6762
 Frc consts  --      0.0051                 0.0137                 0.0324
 IR Inten    --      1.3828                 0.0180                 0.2864

                      4                      5                      6
                      A                      A                      A
 Frequencies --    112.0593               181.2465               223.7026
 Red. masses --      5.6442                 6.5633                 5.3998
 Frc consts  --      0.0418                 0.1270                 0.1592
 IR Inten    --      2.0578                 0.9610                 0.0002

                      7                      8                      9
                      A                      A                      A
 Frequencies --    263.9414               268.2394               300.3024
 Red. masses --      7.8044                 4.8163                 6.7805
 Frc consts  --      0.3203                 0.2042                 0.3603
 IR Inten    --     22.9512                 0.1550                 5.8747

                     10                     11                     12
                      A                      A                      A
 Frequencies --    392.7524               394.2714               438.5448
 Red. masses --      4.6675                 8.9635                 3.2741
 Frc consts  --      0.4242                 0.8209                 0.3710
 IR Inten    --      0.1771                13.1907                 4.4429

                     13                     14                     15
                      A                      A                      A
 Frequencies --    492.4268               496.5253               503.8117
 Red. masses --      4.5036                 6.9965                 3.1396
 Frc consts  --      0.6434                 1.0163                 0.4695
 IR Inten    --      0.2313                13.8760                 0.0669

                     16                     17                     18
                      A                      A                      A
 Frequencies --    508.5355               526.5341               549.8988
 Red. masses --      5.6289                 7.8353                 3.9815
 Frc consts  --      0.8577                 1.2799                 0.7094
 IR Inten    --     24.2114                17.0796                 0.1409

                     19                     20                     21
                      A                      A                      A
 Frequencies --    579.1609               640.5564               673.4144
 Red. masses --      7.6868                 6.7517                 8.9126
 Frc consts  --      1.5191                 1.6322                 2.3813
 IR Inten    --     47.8895                48.7298                23.3751

                     22                     23                     24
                      A                      A                      A
 Frequencies --    708.7756               715.6076               735.0063
 Red. masses --      7.0949                 1.8091                 1.9061
 Frc consts  --      2.1000                 0.5458                 0.6067
 IR Inten    --     12.4798                44.1283                29.8254

                     25                     26                     27
                      A                      A                      A
 Frequencies --    749.9597               771.6101               804.8027
 Red. masses --      1.8487                 2.0301                 6.4980
 Frc consts  --      0.6126                 0.7121                 2.4798
 IR Inten    --     28.9354                53.0524                17.1916

                     28                     29                     30
                      A                      A                      A
 Frequencies --    823.6134               859.3350               890.4164
 Red. masses --      1.6253                 1.4242                 6.3970
 Frc consts  --      0.6496                 0.6197                 2.9882
 IR Inten    --      1.4096                 0.5232                50.8955

                     31                     32                     33
                      A                      A                      A
 Frequencies --    919.0121               936.2493               953.6545
 Red. masses --      1.2888                 1.1127                 7.1562
 Frc consts  --      0.6413                 0.5747                 3.8346
 IR Inten    --     29.0973                44.1482                 6.3545

                     34                     35                     36
                      A                      A                      A
 Frequencies --    953.8307               966.6576               999.9960
 Red. masses --      1.3424                 1.3525                 1.2990
 Frc consts  --      0.7196                 0.7446                 0.7654
 IR Inten    --      2.3148                 0.0006                 0.0004

                     37                     38                     39
                      A                      A                      A
 Frequencies --   1037.6393              1039.9413              1071.7543
 Red. masses --      2.2127                 2.1496                 4.8535
 Frc consts  --      1.4036                 1.3697                 3.2847
 IR Inten    --      3.2389                 0.6555                39.3442

                     40                     41                     42
                      A                      A                      A
 Frequencies --   1135.0142              1147.5265              1175.2986
 Red. masses --      1.4705                 1.3091                 1.1321
 Frc consts  --      1.1161                 1.0156                 0.9213
 IR Inten    --     57.8725                14.6271                 2.9032

                     43                     44                     45
                      A                      A                      A
 Frequencies --   1178.0726              1226.6689              1236.4904
 Red. masses --      1.1788                 6.3122                 1.6833
 Frc consts  --      0.9639                 5.5961                 1.5163
 IR Inten    --     36.2829                68.8684               173.2960

                     46                     47                     48
                      A                      A                      A
 Frequencies --   1278.7900              1300.6479              1363.6004
 Red. masses --      1.6434                 2.9520                 2.9574
 Frc consts  --      1.5834                 2.9423                 3.2399
 IR Inten    --      9.4227               284.8651                69.0478

                     49                     50                     51
                      A                      A                      A
 Frequencies --   1373.6571              1402.2989              1438.9028
 Red. masses --      5.4134                 2.0005                 2.5623
 Frc consts  --      6.0183                 2.3178                 3.1257
 IR Inten    --     27.1836                11.1710               181.4475

                     52                     53                     54
                      A                      A                      A
 Frequencies --   1475.7278              1500.5390              1517.4062
 Red. masses --      3.2075                 2.4042                 5.1573
 Frc consts  --      4.1156                 3.1894                 6.9964
 IR Inten    --     75.1555               212.6957                71.4179

                     55                     56                     57
                      A                      A                      A
 Frequencies --   1534.8812              1552.5819              1588.8417
 Red. masses --      4.8710                 6.0881                 2.9810
 Frc consts  --      6.7611                 8.6466                 4.4338
 IR Inten    --     84.5688               533.6047               314.2570

                     58                     59                     60
                      A                      A                      A
 Frequencies --   1607.7414              1628.8055              1652.6127
 Red. masses --      2.9988                 5.4855                 5.6589
 Frc consts  --      4.5670                 8.5744                 9.1059
 IR Inten    --     37.3924               462.1653               165.8876

                     61                     62                     63
                      A                      A                      A
 Frequencies --   2997.2101              3203.9681              3207.4750
 Red. masses --      1.0736                 1.0872                 1.0862
 Frc consts  --      5.6823                 6.5758                 6.5839
 IR Inten    --     67.4751                 3.9350                 8.9998

                     64                     65                     66
                      A                      A                      A
 Frequencies --   3217.8057              3218.0025              3226.4698
 Red. masses --      1.0889                 1.0898                 1.0936
 Frc consts  --      6.6426                 6.6492                 6.7077
 IR Inten    --      1.1019                 3.3322                18.9390

                     67                     68                     69
                      A                      A                      A
 Frequencies --   3229.6727              3235.9947              3238.7275
 Red. masses --      1.0953                 1.0992                 1.0990
 Frc consts  --      6.7314                 6.7819                 6.7917
 IR Inten    --     11.4681                42.5884                24.2300

 - Thermochemistry -
 -------------------
 Temperature   298.150 Kelvin.  Pressure   1.00000 Atm.
 Atom     1 has atomic number  6 and mass  12.00000

 Molecular mass:   227.04049 amu.
 Principal axes and moments of inertia in atomic units:
                           1         2         3
     Eigenvalues --  1352.141396355.884337708.02571
           X           -0.69693   0.71714   0.00001
           Y            0.71714   0.69693  -0.00000
           Z            0.00001  -0.00000   1.00000
 This molecule is an asymmetric top.
 Rotational symmetry number  1.
 Warning -- assumption of classical behavior for rotation
           may cause significant error
 Rotational temperatures (Kelvin)      0.06406     0.01363     0.01124
 Rotational constants (GHZ):           1.33473     0.28395     0.23414
 Zero-point vibrational energy     489173.1 (Joules/Mol)
                                  116.91518 (Kcal/Mol)
 Warning -- explicit consideration of  19 degrees of freedom as
           vibrations may cause significant error
 Vibrational temperatures:     54.51    88.88   156.07   161.23   260.77
          (Kelvin)            321.86   379.75   385.94   432.07   565.08
                              567.27   630.97   708.49   714.39   724.87
                              731.67   757.57   791.18   833.28   921.62
                              968.89  1019.77  1029.60  1057.51  1079.02
                             1110.17  1157.93  1185.00  1236.39  1281.11
                             1322.25  1347.05  1372.10  1372.35  1390.80
                             1438.77  1492.93  1496.24  1542.02  1633.03
                             1651.03  1690.99  1694.98  1764.90  1779.03
                             1839.89  1871.34  1961.92  1976.39  2017.60
                             2070.26  2123.24  2158.94  2183.21  2208.35
                             2233.82  2285.99  2313.18  2343.49  2377.74
                             4312.32  4609.80  4614.84  4629.70  4629.99
                             4642.17  4646.78  4655.87  4659.81

 Zero-point correction=                           0.186316 (Hartree/Particle)
 Thermal correction to Energy=                    0.198661
 Thermal correction to Enthalpy=                  0.199605
 Thermal correction to Gibbs Free Energy=         0.146803
 Sum of electronic and zero-point Energies=          -1028.503789
 Sum of electronic and thermal Energies=             -1028.491444
 Sum of electronic and thermal Enthalpies=           -1028.490500
 Sum of electronic and thermal Free Energies=        -1028.543302

                     E (Thermal)             CV                S
                      KCal/Mol        Cal/Mol-Kelvin    Cal/Mol-Kelvin
 Total                  124.662             49.493            111.132
 Electronic               0.000              0.000              0.000
 Translational            0.889              2.981             42.162
 Rotational               0.889              2.981             32.560
 Vibrational            122.884             43.531             36.409
 Vibration     1          0.594              1.982              5.366
 Vibration     2          0.597              1.973              4.400
 Vibration     3          0.606              1.942              3.296
 Vibration     4          0.607              1.939              3.233
 Vibration     5          0.630              1.865              2.316
 Vibration     6          0.649              1.805              1.929
 Vibration     7          0.670              1.739              1.636
 Vibration     8          0.673              1.732              1.608
 Vibration     9          0.693              1.673              1.415
 Vibration    10          0.760              1.486              0.990
 Vibration    11          0.761              1.482              0.984
 Vibration    12          0.799              1.386              0.831
 Vibration    13          0.848              1.267              0.677
 Vibration    14          0.852              1.258              0.667
 Vibration    15          0.859              1.242              0.649
 Vibration    16          0.864              1.231              0.637
 Vibration    17          0.881              1.191              0.595
 Vibration    18          0.905              1.140              0.544
 Vibration    19          0.936              1.076              0.487

 Optimization completed.
    -- Stationary point found.
 Normal termination of Gaussian 16 at Mon Jul 13 17:51:17 2020.
