 Gaussian 16, Revision C.01,
 Gaussian 16:  ES64L-G16RevC.01  3-Jul-2019

 ----------------------------------------------------------------------
 #p opt=addgic freq td wb97xd/cc-pvdz nosymm int=ultrafine scrf=(solven
 t=CarbonTetraChloride)
 ----------------------------------------------------------------------

 ------------------------------------------------
 NM 2D-scan of HBT TD-WB97XD pVDZ in CTC Relaxed.
 ------------------------------------------------
 Symbolic Z-matrix:
 Charge =  0 Multiplicity = 1

 SCF Done:  E(RwB97XD) =  -1028.62526628     A.U. after   15 cycles
 Total Energy, E(TD-HF/TD-DFT) =  -1028.49384222
 SCF Done:  E(RwB97XD) =  -1028.78168169     A.U. after   13 cycles
 Total Energy, E(TD-HF/TD-DFT) =  -1028.65222307
 SCF Done:  E(RwB97XD) =  -1028.79248800     A.U. after   15 cycles
 Total Energy, E(TD-HF/TD-DFT) =  -1028.66773706
 SCF Done:  E(RwB97XD) =  -1028.81003810     A.U. after   13 cycles
 Total Energy, E(TD-HF/TD-DFT) =  -1028.68373253
 SCF Done:  E(RwB97XD) =  -1028.81124501     A.U. after   12 cycles
 Total Energy, E(TD-HF/TD-DFT) =  -1028.68417629
 SCF Done:  E(RwB97XD) =  -1028.81126625     A.U. after   10 cycles
 Total Energy, E(TD-HF/TD-DFT) =  -1028.68424546
 SCF Done:  E(RwB97XD) =  -1028.81135693     A.U. after    9 cycles
 Total Energy, E(TD-HF/TD-DFT) =  -1028.68425366
 Optimization completed.
    -- Stationary point found.
 Normal termination of Gaussian 16 at Mon Jul 13 17:54:39 2020.

 ----------------------------------------------------------------------
 #P Geom=AllCheck Guess=TCheck SCRF=Check GenChk RwB97XD TD(FC,Read)/CC
 -pVDZ Freq
 ----------------------------------------------------------------------

 Structure from the checkpoint file:  "config_2_4.chk"
 ------------------------------------------------
 NM 2D-scan of HBT TD-WB97XD pVDZ in CTC Relaxed.
 ------------------------------------------------
 Charge =  0 Multiplicity = 1

                          Input orientation:
 ---------------------------------------------------------------------
 Center     Atomic      Atomic             Coordinates (Angstroms)
 Number     Number       Type             X           Y           Z
 ---------------------------------------------------------------------
      1          6           0        1.724273   -3.311275   -0.000029
      2          6           0        0.967604   -2.136597   -0.000015
      3          6           0        1.641823   -0.865631   -0.000004
      4          6           0        3.060628   -0.796928   -0.000002
      5          6           0        3.783796   -1.963135   -0.000016
      6          6           0        3.121597   -3.213218   -0.000030
      7          1           0        1.247094   -4.292289   -0.000038
      8          1           0        3.530986    0.186865    0.000009
      9          1           0        4.874727   -1.932348   -0.000016
     10          1           0        3.713879   -4.129793   -0.000041
     11          7           0        0.888304    0.224080    0.000004
     12         16           0       -0.775493   -1.859091   -0.000009
     13          6           0       -1.372867    1.020874   -0.000005
     14          6           0       -2.799250    0.885203   -0.000016
     15          6           0       -0.893045    2.432553    0.000016
     16          6           0       -3.639819    1.984664    0.000024
     17          1           0       -3.228319   -0.118504   -0.000048
     18          6           0       -1.777416    3.513658    0.000066
     19          6           0       -3.143129    3.311944    0.000074
     20          1           0       -4.719143    1.823610    0.000020
     21          1           0       -1.331366    4.508475    0.000089
     22          1           0       -3.828630    4.159593    0.000112
     23          6           0       -0.442034   -0.046831   -0.000004
     24          8           0        0.380781    2.804767   -0.000013
     25          1           0        0.937819    1.995857   -0.000026
 ---------------------------------------------------------------------

 SCF Done:  E(RwB97XD) =  -1028.81135693     A.U. after    1 cycles

 Excitation energies and oscillator strengths:

 Excited state symmetry could not be determined.
 Excited State   1:      Singlet-?Sym    3.4587 eV  358.48 nm  f=0.7292  <S**2>=0.000
      59 -> 60         0.69016
 This state for optimization and/or second-order correction.
 Total Energy, E(TD-HF/TD-DFT) =  -1028.68425364
 Copying the excited state density for this state as the 1-particle RhoCI density.

 Excited state symmetry could not be determined.
 Excited State   2:      Singlet-?Sym    4.3782 eV  283.19 nm  f=0.1959  <S**2>=0.000
      57 -> 60        -0.27719
      58 -> 60        -0.59775
      59 -> 63         0.16585

 Excited state symmetry could not be determined.
 Excited State   3:      Singlet-?Sym    4.5345 eV  273.42 nm  f=0.0539  <S**2>=0.000
      57 -> 60         0.55622
      57 -> 64        -0.13517
      58 -> 60        -0.26339
      58 -> 61        -0.11371
      59 -> 61         0.24476

 Alpha  occ. eigenvalues --  -89.09160 -19.28984 -14.46727 -10.39968 -10.38403
 Alpha  occ. eigenvalues --  -10.34969 -10.34615 -10.33335 -10.32375 -10.32288
 Alpha  occ. eigenvalues --  -10.31882 -10.31428 -10.31199 -10.31138 -10.30516
 Alpha  occ. eigenvalues --  -10.30224  -8.10953  -6.05820  -6.05485  -6.05000
 Alpha  occ. eigenvalues --   -1.17476  -1.08101  -0.96585  -0.95483  -0.91188
 Alpha  occ. eigenvalues --   -0.88756  -0.85000  -0.84251  -0.82219  -0.76014
 Alpha  occ. eigenvalues --   -0.71052  -0.70125  -0.69094  -0.68173  -0.63255
 Alpha  occ. eigenvalues --   -0.60049  -0.58885  -0.58383  -0.55868  -0.54389
 Alpha  occ. eigenvalues --   -0.53415  -0.53051  -0.52585  -0.50917  -0.50444
 Alpha  occ. eigenvalues --   -0.49056  -0.48079  -0.45780  -0.45457  -0.44670
 Alpha  occ. eigenvalues --   -0.43643  -0.42886  -0.42144  -0.39829  -0.37464
 Alpha  occ. eigenvalues --   -0.36394  -0.32103  -0.31513  -0.27856
 Alpha virt. eigenvalues --   -0.01903   0.05220   0.06912   0.06927   0.07101
 Alpha virt. eigenvalues --    0.11280   0.12561   0.15096   0.15777   0.17735
 Alpha virt. eigenvalues --    0.18568   0.20539   0.21685   0.22264   0.22768

 Mulliken charges:
               1
     1  C    0.004183
     2  C   -0.216142
     3  C    0.227049
     4  C   -0.014984
     5  C    0.010115
     6  C   -0.010550
     7  H    0.019542
     8  H    0.014487
     9  H    0.017746
    10  H    0.020353
    11  N   -0.338627
    12  S    0.143450
    13  C   -0.091658
    14  C   -0.014063
    15  C    0.081657
    16  C   -0.012415
    17  H    0.011698
    18  C    0.019559
    19  C    0.020127
    20  H    0.012339
    21  H    0.019677
    22  H    0.022362
    23  C    0.073475
    24  O   -0.180644
    25  H    0.161264
 Sum of Mulliken charges =  -0.00000

 Dipole moment (field-independent basis, Debye):
    X=             -0.3019    Y=             -1.5235    Z=             -0.0000  Tot=              1.5532
 Quadrupole moment (field-independent basis, Debye-Ang):
   XX=            -83.1253   YY=            -88.8611   ZZ=           -104.5844
   XY=             -6.7074   XZ=             -0.0001   YZ=              0.0004

  Exact polarizability:     409.892    -199.586     399.446      -0.002       0.004      63.624
 Approx polarizability:     282.509     -37.389     265.335      -0.001       0.003      82.546

                      1                      2                      3
                      A                      A                      A
 Frequencies --     26.9973                65.6631               106.9764
 Red. masses --      5.8966                 5.8873                 5.6309
 Frc consts  --      0.0025                 0.0150                 0.0380
 IR Inten    --      1.1402                 0.0183                 2.0960

                      4                      5                      6
                      A                      A                      A
 Frequencies --    107.4808               182.9018               224.3899
 Red. masses --      4.6059                 6.7568                 5.4394
 Frc consts  --      0.0313                 0.1332                 0.1614
 IR Inten    --      0.4420                 0.7718                 0.0003

                      7                      8                      9
                      A                      A                      A
 Frequencies --    257.5370               265.9114               281.3705
 Red. masses --      8.3654                 4.7928                 6.4432
 Frc consts  --      0.3269                 0.1997                 0.3005
 IR Inten    --     15.9109                 0.2340                12.0167

                     10                     11                     12
                      A                      A                      A
 Frequencies --    386.8026               396.7223               437.3613
 Red. masses --      8.5491                 4.6766                 3.2805
 Frc consts  --      0.7536                 0.4337                 0.3697
 IR Inten    --     13.4079                 0.1752                 4.6086

                     13                     14                     15
                      A                      A                      A
 Frequencies --    482.6599               494.0671               497.5117
 Red. masses --      4.7223                 4.4295                 8.9471
 Frc consts  --      0.6482                 0.6371                 1.3048
 IR Inten    --     24.0164                 0.0923                 0.0264

                     16                     17                     18
                      A                      A                      A
 Frequencies --    505.8569               524.2383               545.6695
 Red. masses --      3.1261                 8.1283                 3.9114
 Frc consts  --      0.4713                 1.3162                 0.6862
 IR Inten    --      0.3949                23.6024                 0.4154

                     19                     20                     21
                      A                      A                      A
 Frequencies --    578.5340               634.6112               653.3479
 Red. masses --      7.7688                 7.3289                 7.7441
 Frc consts  --      1.5320                 1.7390                 1.9476
 IR Inten    --     77.1675                54.7578                 7.5428

                     22                     23                     24
                      A                      A                      A
 Frequencies --    701.1757               713.6107               731.5385
 Red. masses --      6.8350                 1.7561                 1.8835
 Frc consts  --      1.9799                 0.5269                 0.5939
 IR Inten    --      9.2239                61.0038                31.5407

                     25                     26                     27
                      A                      A                      A
 Frequencies --    747.7089               771.1540               792.0932
 Red. masses --      1.7746                 2.0141                 1.2495
 Frc consts  --      0.5846                 0.7057                 0.4619
 IR Inten    --     32.4131                43.5887                60.6889

                     28                     29                     30
                      A                      A                      A
 Frequencies --    794.9878               831.2417               857.3878
 Red. masses --      6.7677                 1.4586                 1.4376
 Frc consts  --      2.5201                 0.5938                 0.6226
 IR Inten    --     19.6131                 1.5535                 2.3380

                     31                     32                     33
                      A                      A                      A
 Frequencies --    885.8731               928.5078               941.2526
 Red. masses --      6.3301                 1.3423                 7.0859
 Frc consts  --      2.9269                 0.6818                 3.6988
 IR Inten    --     49.5053                 2.5798                 8.8352

                     34                     35                     36
                      A                      A                      A
 Frequencies --    952.1704               969.1500               998.9730
 Red. masses --      1.3444                 1.3429                 1.3012
 Frc consts  --      0.7181                 0.7431                 0.7651
 IR Inten    --      1.9327                 0.0144                 0.0128

                     37                     38                     39
                      A                      A                      A
 Frequencies --   1034.9664              1039.6701              1064.9422
 Red. masses --      2.1533                 2.2786                 5.1417
 Frc consts  --      1.3590                 1.4511                 3.4356
 IR Inten    --      1.6870                 4.0302                26.6952

                     40                     41                     42
                      A                      A                      A
 Frequencies --   1133.4679              1146.3381              1174.5289
 Red. masses --      1.5379                 1.2959                 1.1686
 Frc consts  --      1.1641                 1.0033                 0.9498
 IR Inten    --     34.4326                15.8469                27.9559

                     43                     44                     45
                      A                      A                      A
 Frequencies --   1178.1488              1215.9196              1229.2375
 Red. masses --      1.1675                 4.3771                 1.6547
 Frc consts  --      0.9548                 3.8128                 1.4731
 IR Inten    --      4.1702               158.8563               105.7899

                     46                     47                     48
                      A                      A                      A
 Frequencies --   1269.2148              1274.2259              1357.2307
 Red. masses --      2.4802                 1.6378                 2.8497
 Frc consts  --      2.3540                 1.5668                 3.0928
 IR Inten    --    238.5537                 4.0675                96.3588

                     49                     50                     51
                      A                      A                      A
 Frequencies --   1367.2495              1400.8925              1424.2828
 Red. masses --      5.3189                 1.9971                 2.3122
 Frc consts  --      5.8583                 2.3091                 2.7635
 IR Inten    --     20.1335                95.5968               252.2086

                     52                     53                     54
                      A                      A                      A
 Frequencies --   1462.5404              1471.7028              1521.4912
 Red. masses --      2.0174                 3.1166                 5.8655
 Frc consts  --      2.5424                 3.9772                 8.0000
 IR Inten    --    101.3067                30.9119               122.2976

                     55                     56                     57
                      A                      A                      A
 Frequencies --   1535.0068              1544.5014              1569.0147
 Red. masses --      6.1329                 4.9944                 3.5290
 Frc consts  --      8.5141                 7.0196                 5.1186
 IR Inten    --    438.4980               208.2225                83.9451

                     58                     59                     60
                      A                      A                      A
 Frequencies --   1596.6019              1637.9960              1654.4607
 Red. masses --      5.4127                 5.5197                 6.0084
 Frc consts  --      8.1294                 8.7255                 9.6900
 IR Inten    --     83.7422               375.5337               200.8552

                     61                     62                     63
                      A                      A                      A
 Frequencies --   3203.2293              3207.5178              3216.0208
 Red. masses --      1.0868                 1.0858                 1.0898
 Frc consts  --      6.5704                 6.5816                 6.6408
 IR Inten    --      2.7503                 6.9735                 3.6489

                     64                     65                     66
                      A                      A                      A
 Frequencies --   3217.5487              3226.1664              3227.2675
 Red. masses --      1.0894                 1.0933                 1.0952
 Frc consts  --      6.6450                 6.7046                 6.7207
 IR Inten    --      2.3152                20.4881                13.0008

                     67                     68                     69
                      A                      A                      A
 Frequencies --   3234.8363              3238.9822              3409.2058
 Red. masses --      1.0997                 1.0992                 1.0679
 Frc consts  --      6.7798                 6.7944                 7.3129
 IR Inten    --     41.0579                25.3632                11.9977

 - Thermochemistry -
 -------------------
 Temperature   298.150 Kelvin.  Pressure   1.00000 Atm.
 Atom     1 has atomic number  6 and mass  12.00000

 Molecular mass:   227.04049 amu.
 Principal axes and moments of inertia in atomic units:
                           1         2         3
     Eigenvalues --  1379.652556385.088907764.74145
           X           -0.69293   0.72100   0.00000
           Y            0.72100   0.69293  -0.00001
           Z            0.00001   0.00000   1.00000
 This molecule is an asymmetric top.
 Rotational symmetry number  1.
 Warning -- assumption of classical behavior for rotation
           may cause significant error
 Rotational temperatures (Kelvin)      0.06278     0.01357     0.01115
 Rotational constants (GHZ):           1.30811     0.28265     0.23243
 Zero-point vibrational energy     489020.5 (Joules/Mol)
                                  116.87870 (Kcal/Mol)
 Warning -- explicit consideration of  19 degrees of freedom as
           vibrations may cause significant error
 Vibrational temperatures:     38.84    94.47   153.92   154.64   263.15
          (Kelvin)            322.85   370.54   382.59   404.83   556.52
                              570.79   629.27   694.44   710.85   715.81
                              727.82   754.26   785.10   832.38   913.06
                              940.02  1008.84  1026.73  1052.52  1075.79
                             1109.52  1139.65  1143.81  1195.97  1233.59
                             1274.57  1335.92  1354.25  1369.96  1394.39
                             1437.30  1489.09  1495.85  1532.21  1630.81
                             1649.32  1689.89  1695.09  1749.44  1768.60
                             1826.12  1833.33  1952.75  1967.17  2015.57
                             2049.23  2104.27  2117.45  2189.09  2208.53
                             2222.19  2257.46  2297.15  2356.71  2380.40
                             4608.73  4614.90  4627.14  4629.33  4641.73
                             4643.32  4654.21  4660.17  4905.09

 Zero-point correction=                           0.186258 (Hartree/Particle)
 Thermal correction to Energy=                    0.198748
 Thermal correction to Enthalpy=                  0.199692
 Thermal correction to Gibbs Free Energy=         0.146370
 Sum of electronic and zero-point Energies=          -1028.497996
 Sum of electronic and thermal Energies=             -1028.485506
 Sum of electronic and thermal Enthalpies=           -1028.484561
 Sum of electronic and thermal Free Energies=        -1028.537883

                     E (Thermal)             CV                S
                      KCal/Mol        Cal/Mol-Kelvin    Cal/Mol-Kelvin
 Total                  124.716             49.996            112.226
 Electronic               0.000              0.000              0.000
 Translational            0.889              2.981             42.162
 Rotational               0.889              2.981             32.592
 Vibrational            122.939             44.035             37.471
 Vibration     1          0.593              1.984              6.039
 Vibration     2          0.597              1.971              4.279
 Vibration     3          0.606              1.944              3.323
 Vibration     4          0.606              1.943              3.314
 Vibration     5          0.630              1.863              2.299
 Vibration     6          0.649              1.804              1.923
 Vibration     7          0.667              1.750              1.678
 Vibration     8          0.672              1.736              1.623
 Vibration     9          0.681              1.708              1.525
 Vibration    10          0.755              1.498              1.012
 Vibration    11          0.763              1.477              0.975
 Vibration    12          0.798              1.389              0.835
 Vibration    13          0.839              1.289              0.703
 Vibration    14          0.850              1.263              0.673
 Vibration    15          0.853              1.256              0.664
 Vibration    16          0.861              1.237              0.644
 Vibration    17          0.879              1.196              0.600
 Vibration    18          0.901              1.149              0.553
 Vibration    19          0.935              1.078              0.488

 Optimization completed.
    -- Stationary point found.
 Normal termination of Gaussian 16 at Mon Jul 13 18:11:57 2020.
