 Gaussian 16, Revision C.01,
 Gaussian 16:  ES64L-G16RevC.01  3-Jul-2019

 ----------------------------------------------------------------------
 #p opt=addgic freq td wb97xd/cc-pvdz nosymm int=ultrafine scrf=(solven
 t=CarbonTetraChloride)
 ----------------------------------------------------------------------

 ------------------------------------------------
 NM 2D-scan of HBT TD-WB97XD pVDZ in CTC Relaxed.
 ------------------------------------------------
 Symbolic Z-matrix:
 Charge =  0 Multiplicity = 1

 SCF Done:  E(RwB97XD) =  -1028.80775923     A.U. after   15 cycles
 Total Energy, E(TD-HF/TD-DFT) =  -1028.68784293
 SCF Done:  E(RwB97XD) =  -1028.80819693     A.U. after   11 cycles
 Total Energy, E(TD-HF/TD-DFT) =  -1028.68805953
 SCF Done:  E(RwB97XD) =  -1028.80804091     A.U. after   10 cycles
 Total Energy, E(TD-HF/TD-DFT) =  -1028.68808489
 SCF Done:  E(RwB97XD) =  -1028.80758174     A.U. after   11 cycles
 Total Energy, E(TD-HF/TD-DFT) =  -1028.68811906
 SCF Done:  E(RwB97XD) =  -1028.80747789     A.U. after   10 cycles
 Total Energy, E(TD-HF/TD-DFT) =  -1028.68812140
 Optimization completed.
    -- Stationary point found.
 Normal termination of Gaussian 16 at Mon Jul 13 14:56:09 2020.

 ----------------------------------------------------------------------
 #P Geom=AllCheck Guess=TCheck SCRF=Check GenChk RwB97XD TD(FC,Read)/CC
 -pVDZ Freq
 ----------------------------------------------------------------------

 Structure from the checkpoint file:  "config_6_15.chk"
 ------------------------------------------------
 NM 2D-scan of HBT TD-WB97XD pVDZ in CTC Relaxed.
 ------------------------------------------------
 Charge =  0 Multiplicity = 1

                          Input orientation:
 ---------------------------------------------------------------------
 Center     Atomic      Atomic             Coordinates (Angstroms)
 Number     Number       Type             X           Y           Z
 ---------------------------------------------------------------------
      1          6           0        1.562056   -3.254555   -0.000036
      2          6           0        0.998344   -1.983465   -0.000032
      3          6           0        1.774908   -0.785635   -0.000020
      4          6           0        3.180296   -0.921132   -0.000016
      5          6           0        3.737590   -2.195196   -0.000020
      6          6           0        2.948284   -3.358275   -0.000028
      7          1           0        0.927047   -4.141382   -0.000043
      8          1           0        3.813030   -0.032986   -0.000008
      9          1           0        4.824769   -2.292897   -0.000015
     10          1           0        3.422130   -4.340536   -0.000029
     11          7           0        1.020670    0.357906   -0.000013
     12         16           0       -0.705524   -1.624171   -0.000040
     13          6           0       -1.324108    1.063077    0.000022
     14          6           0       -2.691424    0.748523    0.000044
     15          6           0       -0.908762    2.472468    0.000033
     16          6           0       -3.647418    1.767275    0.000041
     17          1           0       -3.012861   -0.294248    0.000055
     18          6           0       -1.909465    3.472982    0.000026
     19          6           0       -3.261773    3.121389    0.000026
     20          1           0       -4.706620    1.505516    0.000048
     21          1           0       -1.589215    4.515516    0.000027
     22          1           0       -4.024893    3.900174    0.000020
     23          6           0       -0.312801    0.080265   -0.000013
     24          8           0        0.356461    2.735033    0.000051
     25          1           0        0.979660    1.630007    0.000024
 ---------------------------------------------------------------------

 SCF Done:  E(RwB97XD) =  -1028.80747789     A.U. after    1 cycles

 Excitation energies and oscillator strengths:

 Excited state symmetry could not be determined.
 Excited State   1:      Singlet-?Sym    3.2479 eV  381.74 nm  f=0.4928  <S**2>=0.000
      59 -> 60         0.69354
 This state for optimization and/or second-order correction.
 Total Energy, E(TD-HF/TD-DFT) =  -1028.68812140
 Copying the excited state density for this state as the 1-particle RhoCI density.

 Excited state symmetry could not be determined.
 Excited State   2:      Singlet-?Sym    4.3518 eV  284.90 nm  f=0.3006  <S**2>=0.000
      57 -> 60         0.11047
      58 -> 60         0.66887

 Excited state symmetry could not be determined.
 Excited State   3:      Singlet-?Sym    4.6241 eV  268.12 nm  f=0.0000  <S**2>=0.000
      56 -> 60         0.68851
      56 -> 64        -0.10245

 Alpha  occ. eigenvalues --  -89.09488 -19.24662 -14.49707 -10.40564 -10.37078
 Alpha  occ. eigenvalues --  -10.36574 -10.35344 -10.32617 -10.32273 -10.31954
 Alpha  occ. eigenvalues --  -10.31908 -10.31826 -10.31611 -10.31356 -10.29908
 Alpha  occ. eigenvalues --  -10.29617  -8.11566  -6.06411  -6.06063  -6.05612
 Alpha  occ. eigenvalues --   -1.13388  -1.09444  -0.97348  -0.95731  -0.92790
 Alpha  occ. eigenvalues --   -0.88923  -0.85866  -0.83767  -0.82229  -0.75817
 Alpha  occ. eigenvalues --   -0.71558  -0.71105  -0.68643  -0.67658  -0.63618
 Alpha  occ. eigenvalues --   -0.60901  -0.59312  -0.57800  -0.55440  -0.54703
 Alpha  occ. eigenvalues --   -0.54355  -0.53571  -0.52895  -0.50756  -0.49817
 Alpha  occ. eigenvalues --   -0.49521  -0.47065  -0.46418  -0.45591  -0.45018
 Alpha  occ. eigenvalues --   -0.44264  -0.43019  -0.42155  -0.40681  -0.36575
 Alpha  occ. eigenvalues --   -0.35123  -0.32707  -0.31271  -0.27471
 Alpha virt. eigenvalues --   -0.01793   0.04492   0.06363   0.07201   0.08090
 Alpha virt. eigenvalues --    0.10693   0.14498   0.14967   0.16753   0.17825
 Alpha virt. eigenvalues --    0.18692   0.20816   0.21321   0.21993   0.22627

 Mulliken charges:
               1
     1  C    0.021509
     2  C   -0.224280
     3  C    0.256922
     4  C   -0.018624
     5  C    0.006633
     6  C    0.000182
     7  H    0.021024
     8  H    0.024972
     9  H    0.022994
    10  H    0.023205
    11  N   -0.315620
    12  S    0.182098
    13  C   -0.097160
    14  C   -0.029866
    15  C    0.129694
    16  C   -0.023080
    17  H    0.016956
    18  C   -0.014447
    19  C    0.028240
    20  H    0.006402
    21  H    0.011587
    22  H    0.019842
    23  C    0.076836
    24  O   -0.365913
    25  H    0.239894
 Sum of Mulliken charges =  -0.00000

 Dipole moment (field-independent basis, Debye):
    X=              0.3556    Y=             -3.8850    Z=             -0.0001  Tot=              3.9012
 Quadrupole moment (field-independent basis, Debye-Ang):
   XX=            -82.9189   YY=            -92.2835   ZZ=           -104.2241
   XY=             -6.9667   XZ=             -0.0001   YZ=             -0.0001

  Exact polarizability:     358.146    -141.374     320.734      -0.002       0.002      63.210
 Approx polarizability:     273.409     -34.642     260.865      -0.000       0.001      82.236

 ******    1 imaginary frequencies (negative Signs) ******

                      1                      2                      3
                      A                      A                      A
 Frequencies --  -1366.2656                44.1910                62.9678
 Red. masses --      1.0616                 6.2400                 5.0779
 Frc consts  --      1.1676                 0.0072                 0.0119
 IR Inten    --   1861.2190                 1.4325                 0.0986

                      4                      5                      6
                      A                      A                      A
 Frequencies --    118.8292               142.4941               180.3398
 Red. masses --      5.8183                 5.6554                 6.4267
 Frc consts  --      0.0484                 0.0677                 0.1231
 IR Inten    --      0.0753                 2.5365                 0.6536

                      7                      8                      9
                      A                      A                      A
 Frequencies --    219.9579               272.0303               278.6855
 Red. masses --      5.4118                 4.6658                 7.3557
 Frc consts  --      0.1543                 0.2034                 0.3366
 IR Inten    --      0.0479                 0.0464                11.9416

                     10                     11                     12
                      A                      A                      A
 Frequencies --    368.8651               372.4153               416.1800
 Red. masses --      4.8987                 6.4846                11.2569
 Frc consts  --      0.3927                 0.5299                 1.1488
 IR Inten    --      0.3033                 4.5658                 4.5257

                     13                     14                     15
                      A                      A                      A
 Frequencies --    439.2063               470.4653               500.9816
 Red. masses --      3.2199                 4.7732                 3.1700
 Frc consts  --      0.3660                 0.6225                 0.4688
 IR Inten    --      4.1450                 0.4171                 0.4086

                     16                     17                     18
                      A                      A                      A
 Frequencies --    507.8245               545.4035               559.7715
 Red. masses --      8.8152                 8.5485                 3.8745
 Frc consts  --      1.3394                 1.4982                 0.7153
 IR Inten    --      2.8374                 4.5045                 0.2408

                     19                     20                     21
                      A                      A                      A
 Frequencies --    575.3752               598.9821               660.0849
 Red. masses --      7.6460                 6.9118                 6.7660
 Frc consts  --      1.4914                 1.4611                 1.7369
 IR Inten    --     12.2993                 9.5847                78.0025

                     22                     23                     24
                      A                      A                      A
 Frequencies --    699.5342               727.1792               742.7852
 Red. masses --      1.5792                 6.3887                 2.2009
 Frc consts  --      0.4553                 1.9904                 0.7155
 IR Inten    --     45.3187                 6.5036                22.8394

                     25                     26                     27
                      A                      A                      A
 Frequencies --    750.8471               758.1519               766.6130
 Red. masses --      8.9271                 1.8143                 1.8256
 Frc consts  --      2.9653                 0.6144                 0.6321
 IR Inten    --     30.0816                16.2285                68.0654

                     28                     29                     30
                      A                      A                      A
 Frequencies --    812.8842               832.9987               865.7519
 Red. masses --      1.8009                 6.1949                 1.3946
 Frc consts  --      0.7011                 2.5326                 0.6159
 IR Inten    --      0.1708                 7.6134                 0.9765

                     31                     32                     33
                      A                      A                      A
 Frequencies --    904.7039               911.8870               954.6575
 Red. masses --      1.3750                 6.8066                 1.3501
 Frc consts  --      0.6631                 3.3347                 0.7250
 IR Inten    --      4.7500                31.5820                 2.0616

                     34                     35                     36
                      A                      A                      A
 Frequencies --    956.8471               994.9500              1000.7748
 Red. masses --      1.3811                 7.7065                 1.2981
 Frc consts  --      0.7450                 4.4948                 0.7660
 IR Inten    --      0.2567                14.9678                 0.0015

                     37                     38                     39
                      A                      A                      A
 Frequencies --   1040.3708              1049.6847              1095.2717
 Red. masses --      2.0594                 2.0619                 3.7237
 Frc consts  --      1.3133                 1.3386                 2.6319
 IR Inten    --      3.8064                 2.2896                64.9614

                     40                     41                     42
                      A                      A                      A
 Frequencies --   1132.7143              1154.1548              1170.3773
 Red. masses --      1.4575                 1.3830                 1.1665
 Frc consts  --      1.1018                 1.0854                 0.9414
 IR Inten    --     20.3121                26.2587                66.9093

                     43                     44                     45
                      A                      A                      A
 Frequencies --   1177.3888              1230.2896              1249.7680
 Red. masses --      1.1898                 1.0495                 1.8346
 Frc consts  --      0.9718                 0.9359                 1.6883
 IR Inten    --     21.1611                68.1298                87.4577

                     46                     47                     48
                      A                      A                      A
 Frequencies --   1267.1069              1301.2629              1338.2985
 Red. masses --      2.4688                 2.4845                 3.7386
 Frc consts  --      2.3354                 2.4787                 3.9451
 IR Inten    --     27.0063                14.2831                28.4658

                     49                     50                     51
                      A                      A                      A
 Frequencies --   1361.8138              1384.9431              1403.8968
 Red. masses --      6.0782                 2.5526                 2.9372
 Frc consts  --      6.6414                 2.8847                 3.4107
 IR Inten    --    268.5019                65.9990                46.3914

                     52                     53                     54
                      A                      A                      A
 Frequencies --   1442.0713              1475.4110              1503.9703
 Red. masses --      3.0508                 3.1887                 3.3915
 Frc consts  --      3.7380                 4.0897                 4.5198
 IR Inten    --    386.9947                29.9349                29.9618

                     55                     56                     57
                      A                      A                      A
 Frequencies --   1517.9313              1549.9751              1569.9249
 Red. masses --      4.8694                 4.9714                 5.1503
 Frc consts  --      6.6104                 7.0369                 7.4789
 IR Inten    --    395.7386                62.8190               127.2178

                     58                     59                     60
                      A                      A                      A
 Frequencies --   1619.7820              1634.3404              1655.0393
 Red. masses --      6.0153                 6.1216                 6.3892
 Frc consts  --      9.2987                 9.6339                10.3113
 IR Inten    --     61.4247               987.0528               115.4240

                     61                     62                     63
                      A                      A                      A
 Frequencies --   1858.7295              3206.6787              3210.4867
 Red. masses --      1.0988                 1.0861                 1.0864
 Frc consts  --      2.2366                 6.5802                 6.5976
 IR Inten    --    198.0432                 6.4316                14.7464

                     64                     65                     66
                      A                      A                      A
 Frequencies --   3216.5994              3220.6807              3227.5181
 Red. masses --      1.0902                 1.0888                 1.0951
 Frc consts  --      6.6460                 6.6540                 6.7214
 IR Inten    --      2.4810                 9.9146                 9.5349

                     67                     68                     69
                      A                      A                      A
 Frequencies --   3229.0481              3234.8629              3240.5721
 Red. masses --      1.0939                 1.0994                 1.0982
 Frc consts  --      6.7201                 6.7783                 6.7947
 IR Inten    --     14.6650                23.6897                18.0361

 - Thermochemistry -
 -------------------
 Temperature   298.150 Kelvin.  Pressure   1.00000 Atm.
 Atom     1 has atomic number  6 and mass  12.00000

 Molecular mass:   227.04049 amu.
 Principal axes and moments of inertia in atomic units:
                           1         2         3
     Eigenvalues --  1284.932306297.543177582.47547
           X           -0.70481   0.70940   0.00000
           Y            0.70940   0.70481  -0.00001
           Z            0.00001   0.00001   1.00000
 This molecule is an asymmetric top.
 Rotational symmetry number  1.
 Warning -- assumption of classical behavior for rotation
           may cause significant error
 Rotational temperatures (Kelvin)      0.06741     0.01375     0.01142
 Rotational constants (GHZ):           1.40454     0.28658     0.23801
    1 imaginary frequencies ignored.
 Zero-point vibrational energy     478426.0 (Joules/Mol)
                                  114.34656 (Kcal/Mol)
 Warning -- explicit consideration of  19 degrees of freedom as
           vibrations may cause significant error
 Vibrational temperatures:     63.58    90.60   170.97   205.02   259.47
          (Kelvin)            316.47   391.39   400.97   530.71   535.82
                              598.79   631.92   676.89   720.80   730.65
                              784.71   805.39   827.84   861.80   949.71
                             1006.47  1046.25  1068.70  1080.30  1090.81
                             1102.99  1169.56  1198.50  1245.62  1301.67
                             1312.00  1373.54  1376.69  1431.51  1439.89
                             1496.86  1510.26  1575.85  1629.72  1660.57
                             1683.91  1694.00  1770.11  1798.14  1823.08
                             1872.23  1925.51  1959.35  1992.62  2019.89
                             2074.82  2122.79  2163.88  2183.96  2230.07
                             2258.77  2330.51  2351.45  2381.23  2674.30
                             4613.70  4619.17  4627.97  4633.84  4643.68
                             4645.88  4654.25  4662.46

 Zero-point correction=                           0.182223 (Hartree/Particle)
 Thermal correction to Energy=                    0.194215
 Thermal correction to Enthalpy=                  0.195159
 Thermal correction to Gibbs Free Energy=         0.143284
 Sum of electronic and zero-point Energies=          -1028.505899
 Sum of electronic and thermal Energies=             -1028.493907
 Sum of electronic and thermal Enthalpies=           -1028.492963
 Sum of electronic and thermal Free Energies=        -1028.544838

                     E (Thermal)             CV                S
                      KCal/Mol        Cal/Mol-Kelvin    Cal/Mol-Kelvin
 Total                  121.871             48.357            109.180
 Electronic               0.000              0.000              0.000
 Translational            0.889              2.981             42.162
 Rotational               0.889              2.981             32.484
 Vibrational            120.094             42.396             34.534
 Vibration     1          0.595              1.980              5.062
 Vibration     2          0.597              1.972              4.362
 Vibration     3          0.609              1.934              3.119
 Vibration     4          0.616              1.911              2.770
 Vibration     5          0.629              1.866              2.325
 Vibration     6          0.647              1.811              1.959
 Vibration     7          0.675              1.725              1.583
 Vibration     8          0.679              1.713              1.542
 Vibration     9          0.741              1.536              1.085
 Vibration    10          0.744              1.529              1.070
 Vibration    11          0.779              1.435              0.905
 Vibration    12          0.799              1.385              0.829
 Vibration    13          0.827              1.316              0.736
 Vibration    14          0.856              1.248              0.656
 Vibration    15          0.863              1.233              0.639
 Vibration    16          0.901              1.150              0.554
 Vibration    17          0.915              1.118              0.524
 Vibration    18          0.932              1.085              0.494
 Vibration    19          0.957              1.034              0.451

 Optimization completed.
    -- Stationary point found.
 Normal termination of Gaussian 16 at Mon Jul 13 15:14:17 2020.
