 Gaussian 16, Revision C.01,
 Gaussian 16:  ES64L-G16RevC.01  3-Jul-2019

 ----------------------------------------------------------------------
 #p opt=addgic freq td wb97xd/cc-pvdz nosymm int=ultrafine scrf=(solven
 t=CarbonTetraChloride)
 ----------------------------------------------------------------------

 ------------------------------------------------
 NM 2D-scan of HBT TD-WB97XD pVDZ in CTC Relaxed.
 ------------------------------------------------
 Symbolic Z-matrix:
 Charge =  0 Multiplicity = 1

 SCF Done:  E(RwB97XD) =  -1028.80124691     A.U. after   16 cycles
 Total Energy, E(TD-HF/TD-DFT) =  -1028.69095631
 SCF Done:  E(RwB97XD) =  -1028.79297938     A.U. after   14 cycles
 Total Energy, E(TD-HF/TD-DFT) =  -1028.68913961
 SCF Done:  E(RwB97XD) =  -1028.80230276     A.U. after   12 cycles
 Total Energy, E(TD-HF/TD-DFT) =  -1028.69392546
 SCF Done:  E(RwB97XD) =  -1028.80280734     A.U. after   11 cycles
 Total Energy, E(TD-HF/TD-DFT) =  -1028.69398648
 SCF Done:  E(RwB97XD) =  -1028.80274291     A.U. after    9 cycles
 Total Energy, E(TD-HF/TD-DFT) =  -1028.69398867
 SCF Done:  E(RwB97XD) =  -1028.80274210     A.U. after    9 cycles
 Total Energy, E(TD-HF/TD-DFT) =  -1028.69398876
 SCF Done:  E(RwB97XD) =  -1028.80274298     A.U. after    8 cycles
 Total Energy, E(TD-HF/TD-DFT) =  -1028.69398897
 Optimization completed.
    -- Stationary point found.
 Normal termination of Gaussian 16 at Mon Jul 13 16:31:49 2020.

 ----------------------------------------------------------------------
 #P Geom=AllCheck Guess=TCheck SCRF=Check GenChk RwB97XD TD(FC,Read)/CC
 -pVDZ Freq
 ----------------------------------------------------------------------

 Structure from the checkpoint file:  "config_9_1.chk"
 ------------------------------------------------
 NM 2D-scan of HBT TD-WB97XD pVDZ in CTC Relaxed.
 ------------------------------------------------
 Charge =  0 Multiplicity = 1

                          Input orientation:
 ---------------------------------------------------------------------
 Center     Atomic      Atomic             Coordinates (Angstroms)
 Number     Number       Type             X           Y           Z
 ---------------------------------------------------------------------
      1          6           0        1.771804   -3.280027    0.000046
      2          6           0        1.010450   -2.110283    0.000023
      3          6           0        1.664235   -0.857286   -0.000037
      4          6           0        3.063111   -0.749687   -0.000081
      5          6           0        3.804066   -1.917579   -0.000056
      6          6           0        3.167117   -3.169312    0.000007
      7          1           0        1.297809   -4.262252    0.000089
      8          1           0        3.530000    0.235648   -0.000132
      9          1           0        4.893964   -1.865984   -0.000088
     10          1           0        3.769879   -4.078414    0.000022
     11          7           0        0.814904    0.187417   -0.000063
     12         16           0       -0.751735   -1.865293    0.000034
     13          6           0       -1.429582    1.016091   -0.000025
     14          6           0       -2.821934    0.920953   -0.000074
     15          6           0       -0.846243    2.399883    0.000052
     16          6           0       -3.650977    2.069824   -0.000032
     17          1           0       -3.294440   -0.064075   -0.000144
     18          6           0       -1.731335    3.513138    0.000131
     19          6           0       -3.114134    3.360710    0.000079
     20          1           0       -4.733275    1.930864   -0.000070
     21          1           0       -1.255385    4.494749    0.000232
     22          1           0       -3.768528    4.232950    0.000133
     23          6           0       -0.511038   -0.094635   -0.000018
     24          8           0        0.406458    2.621228    0.000182
     25          1           0        0.999097    1.251101   -0.000135
 ---------------------------------------------------------------------

 SCF Done:  E(RwB97XD) =  -1028.80274298     A.U. after    1 cycles

 Excitation energies and oscillator strengths:

 Excited state symmetry could not be determined.
 Excited State   1:      Singlet-?Sym    2.9593 eV  418.96 nm  f=0.4390  <S**2>=0.000
      59 -> 60         0.69535
 This state for optimization and/or second-order correction.
 Total Energy, E(TD-HF/TD-DFT) =  -1028.69398898
 Copying the excited state density for this state as the 1-particle RhoCI density.

 Excited state symmetry could not be determined.
 Excited State   2:      Singlet-?Sym    3.9145 eV  316.73 nm  f=0.0000  <S**2>=0.000
      57 -> 60         0.68438
      57 -> 63         0.11503
      57 -> 64         0.11762

 Excited state symmetry could not be determined.
 Excited State   3:      Singlet-?Sym    4.3408 eV  285.62 nm  f=0.4512  <S**2>=0.000
      58 -> 60         0.67846

 Alpha  occ. eigenvalues --  -89.10749 -19.22080 -14.51093 -10.42076 -10.36921
 Alpha  occ. eigenvalues --  -10.36428 -10.36322 -10.33455 -10.32645 -10.32425
 Alpha  occ. eigenvalues --  -10.32329 -10.31801 -10.31638 -10.30832 -10.29310
 Alpha  occ. eigenvalues --  -10.28500  -8.12604  -6.07493  -6.07121  -6.06620
 Alpha  occ. eigenvalues --   -1.13016  -1.09967  -0.98072  -0.94845  -0.92950
 Alpha  occ. eigenvalues --   -0.89172  -0.86169  -0.84019  -0.81289  -0.76059
 Alpha  occ. eigenvalues --   -0.72595  -0.71446  -0.68898  -0.67689  -0.64600
 Alpha  occ. eigenvalues --   -0.60866  -0.59606  -0.56897  -0.55633  -0.55356
 Alpha  occ. eigenvalues --   -0.54747  -0.53562  -0.52913  -0.51070  -0.49420
 Alpha  occ. eigenvalues --   -0.48892  -0.48109  -0.46759  -0.45363  -0.44994
 Alpha  occ. eigenvalues --   -0.44306  -0.42957  -0.41897  -0.40500  -0.36772
 Alpha  occ. eigenvalues --   -0.33510  -0.32697  -0.31361  -0.26237
 Alpha virt. eigenvalues --   -0.02064   0.03851   0.06183   0.06195   0.08929
 Alpha virt. eigenvalues --    0.10464   0.11743   0.14671   0.16010   0.17436
 Alpha virt. eigenvalues --    0.19014   0.20303   0.21164   0.21505   0.22850

 Mulliken charges:
               1
     1  C    0.009796
     2  C   -0.245787
     3  C    0.274141
     4  C   -0.012097
     5  C    0.014638
     6  C   -0.002578
     7  H    0.026749
     8  H    0.032568
     9  H    0.026755
    10  H    0.026321
    11  N   -0.156136
    12  S    0.194951
    13  C   -0.130513
    14  C   -0.017406
    15  C    0.123336
    16  C   -0.036985
    17  H    0.001799
    18  C   -0.014643
    19  C    0.032754
    20  H    0.003621
    21  H    0.003661
    22  H    0.014931
    23  C    0.063090
    24  O   -0.401688
    25  H    0.168722
 Sum of Mulliken charges =  -0.00000

 Dipole moment (field-independent basis, Debye):
    X=              1.4723    Y=             -4.9853    Z=             -0.0005  Tot=              5.1982
 Quadrupole moment (field-independent basis, Debye-Ang):
   XX=            -82.8929   YY=            -93.8095   ZZ=           -104.3403
   XY=             -6.8105   XZ=             -0.0006   YZ=             -0.0010

  Exact polarizability:     351.529    -126.441     305.409      -0.001       0.002      63.410
 Approx polarizability:     275.294     -36.886     267.858       0.000       0.002      82.271

 ******    1 imaginary frequencies (negative Signs) ******

                      1                      2                      3
                      A                      A                      A
 Frequencies --    -67.3317                36.5535               105.6415
 Red. masses --      7.7815                 6.3918                 4.5304
 Frc consts  --      0.0208                 0.0050                 0.0298
 IR Inten    --      0.8919                 1.9367                 0.0196

                      4                      5                      6
                      A                      A                      A
 Frequencies --    119.4094               174.3115               221.3321
 Red. masses --      5.7414                 5.3350                 5.2972
 Frc consts  --      0.0482                 0.0955                 0.1529
 IR Inten    --      9.1726                 0.1735                 0.2080

                      7                      8                      9
                      A                      A                      A
 Frequencies --    266.2620               267.8931               329.1189
 Red. masses --      7.7175                 4.6927                 6.7094
 Frc consts  --      0.3224                 0.1984                 0.4282
 IR Inten    --      0.5771                 0.4851                17.0893

                     10                     11                     12
                      A                      A                      A
 Frequencies --    359.7859               390.7702               434.6932
 Red. masses --      5.1403                10.0236                 3.2607
 Frc consts  --      0.3920                 0.9018                 0.3630
 IR Inten    --      1.0325                 2.9767                 5.1910

                     13                     14                     15
                      A                      A                      A
 Frequencies --    460.3443               501.6575               503.3976
 Red. masses --      4.7345                 3.1503                 8.8601
 Frc consts  --      0.5911                 0.4671                 1.3229
 IR Inten    --      1.2694                 0.6190                 5.6383

                     16                     17                     18
                      A                      A                      A
 Frequencies --    538.6376               555.2316               567.6890
 Red. masses --      8.7528                 3.8284                 6.6812
 Frc consts  --      1.4962                 0.6954                 1.2686
 IR Inten    --      2.7282                 0.7134                 6.7577

                     19                     20                     21
                      A                      A                      A
 Frequencies --    579.7977               635.5497               688.2333
 Red. masses --      7.7256                 5.8867                 7.5619
 Frc consts  --      1.5301                 1.4009                 2.1103
 IR Inten    --     45.3482               133.5086                 3.0068

                     22                     23                     24
                      A                      A                      A
 Frequencies --    691.2965               709.0740               740.2782
 Red. masses --      1.6206                 6.6883                 2.4115
 Frc consts  --      0.4563                 1.9813                 0.7786
 IR Inten    --     34.7682                11.2104                15.4263

                     25                     26                     27
                      A                      A                      A
 Frequencies --    764.0453               767.3762               804.3087
 Red. masses --      1.6937                 1.8580                 6.5286
 Frc consts  --      0.5825                 0.6446                 2.4884
 IR Inten    --      9.7316                78.7626                11.2398

                     28                     29                     30
                      A                      A                      A
 Frequencies --    841.6122               861.5483               877.0324
 Red. masses --      1.6397                 1.3969                 4.4322
 Frc consts  --      0.6843                 0.6109                 2.0086
 IR Inten    --      0.0123                 0.6704                26.4504

                     31                     32                     33
                      A                      A                      A
 Frequencies --    911.0521               946.0969               954.3056
 Red. masses --      1.4092                 5.6756                 1.3490
 Frc consts  --      0.6892                 2.9932                 0.7238
 IR Inten    --      6.6433                 6.9600                 1.2980

                     34                     35                     36
                      A                      A                      A
 Frequencies --    954.6158              1001.7904              1043.9361
 Red. masses --      1.3666                 1.2953                 2.2557
 Frc consts  --      0.7337                 0.7659                 1.4484
 IR Inten    --      0.6679                 0.0655                 0.7608

                     37                     38                     39
                      A                      A                      A
 Frequencies --   1047.9563              1059.6035              1072.2197
 Red. masses --      2.1981                 1.0685                 4.1411
 Frc consts  --      1.4223                 0.7068                 2.8050
 IR Inten    --      8.5913                66.7669                 2.7735

                     40                     41                     42
                      A                      A                      A
 Frequencies --   1116.8322              1148.9627              1161.1658
 Red. masses --      1.5191                 1.3143                 1.2006
 Frc consts  --      1.1164                 1.0223                 0.9538
 IR Inten    --     47.2679                10.4134                76.7937

                     43                     44                     45
                      A                      A                      A
 Frequencies --   1177.4186              1226.2877              1256.6897
 Red. masses --      1.1393                 2.4664                 2.2182
 Frc consts  --      0.9306                 2.1852                 2.0640
 IR Inten    --     27.7784               104.2822                29.3018

                     46                     47                     48
                      A                      A                      A
 Frequencies --   1279.9100              1324.5043              1334.6700
 Red. masses --      1.5969                 2.3611                 2.8369
 Frc consts  --      1.5413                 2.4405                 2.9774
 IR Inten    --    104.0878               238.0537                43.0788

                     49                     50                     51
                      A                      A                      A
 Frequencies --   1366.0498              1395.0787              1401.0754
 Red. masses --      5.6864                 2.6616                 2.2791
 Frc consts  --      6.2521                 3.0520                 2.6360
 IR Inten    --    131.3984                35.1529                 8.0140

                     52                     53                     54
                      A                      A                      A
 Frequencies --   1435.0223              1483.8396              1501.5923
 Red. masses --      3.6718                 2.6063                 3.0416
 Frc consts  --      4.4550                 3.3810                 4.0407
 IR Inten    --    529.7346                 6.1051                11.8242

                     55                     56                     57
                      A                      A                      A
 Frequencies --   1535.3140              1562.0598              1593.9632
 Red. masses --      4.5038                 4.6841                 4.5935
 Frc consts  --      6.2550                 6.7340                 6.8762
 IR Inten    --     64.0091               139.4104                26.6279

                     58                     59                     60
                      A                      A                      A
 Frequencies --   1625.0954              1647.8856              1670.8026
 Red. masses --      5.4398                 5.1836                 6.3546
 Frc consts  --      8.4643                 8.2935                10.4518
 IR Inten    --    251.8226               110.6229               310.9159

                     61                     62                     63
                      A                      A                      A
 Frequencies --   2612.9255              3195.4948              3211.3625
 Red. masses --      1.1112                 1.0885                 1.0859
 Frc consts  --      4.4698                 6.5489                 6.5979
 IR Inten    --   1510.6287                21.0241                 4.0233

                     64                     65                     66
                      A                      A                      A
 Frequencies --   3212.7299              3219.9253              3223.8486
 Red. masses --      1.0871                 1.0901                 1.0922
 Frc consts  --      6.6113                 6.6593                 6.6880
 IR Inten    --      1.2825                 3.1876                20.0709

                     67                     68                     69
                      A                      A                      A
 Frequencies --   3229.3557              3235.8699              3237.4386
 Red. masses --      1.0959                 1.0989                 1.0997
 Frc consts  --      6.7334                 6.7794                 6.7912
 IR Inten    --      8.4095                18.2555                13.9208

 - Thermochemistry -
 -------------------
 Temperature   298.150 Kelvin.  Pressure   1.00000 Atm.
 Atom     1 has atomic number  6 and mass  12.00000

 Molecular mass:   227.04049 amu.
 Principal axes and moments of inertia in atomic units:
                           1         2         3
     Eigenvalues --  1341.368376374.494237715.86259
           X           -0.70040   0.71375  -0.00000
           Y            0.71375   0.70040  -0.00001
           Z            0.00001   0.00001   1.00000
 This molecule is an asymmetric top.
 Rotational symmetry number  1.
 Warning -- assumption of classical behavior for rotation
           may cause significant error
 Rotational temperatures (Kelvin)      0.06457     0.01359     0.01123
 Rotational constants (GHZ):           1.34545     0.28312     0.23390
    1 imaginary frequencies ignored.
 Zero-point vibrational energy     486925.7 (Joules/Mol)
                                  116.37805 (Kcal/Mol)
 Warning -- explicit consideration of  18 degrees of freedom as
           vibrations may cause significant error
 Vibrational temperatures:     52.59   151.99   171.80   250.80   318.45
          (Kelvin)            383.09   385.44   473.53   517.65   562.23
                              625.43   662.33   721.77   724.28   774.98
                              798.85   816.78   834.20   914.41   990.21
                              994.62  1020.20  1065.10  1099.29  1104.08
                             1157.22  1210.89  1239.58  1261.85  1310.80
                             1361.22  1373.03  1373.48  1441.35  1501.99
                             1507.78  1524.53  1542.68  1606.87  1653.10
                             1670.66  1694.04  1764.35  1808.10  1841.50
                             1905.67  1920.29  1965.44  2007.21  2015.84
                             2064.68  2134.91  2160.46  2208.97  2247.46
                             2293.36  2338.15  2370.94  2403.91  3759.42
                             4597.60  4620.43  4622.40  4632.75  4638.40
                             4646.32  4655.70  4657.95

 Zero-point correction=                           0.185460 (Hartree/Particle)
 Thermal correction to Energy=                    0.196965
 Thermal correction to Enthalpy=                  0.197910
 Thermal correction to Gibbs Free Energy=         0.147218
 Sum of electronic and zero-point Energies=          -1028.508529
 Sum of electronic and thermal Energies=             -1028.497024
 Sum of electronic and thermal Enthalpies=           -1028.496079
 Sum of electronic and thermal Free Energies=        -1028.546771

                     E (Thermal)             CV                S
                      KCal/Mol        Cal/Mol-Kelvin    Cal/Mol-Kelvin
 Total                  123.598             47.357            106.689
 Electronic               0.000              0.000              0.000
 Translational            0.889              2.981             42.162
 Rotational               0.889              2.981             32.556
 Vibrational            121.820             41.395             31.971
 Vibration     1          0.594              1.982              5.438
 Vibration     2          0.605              1.945              3.347
 Vibration     3          0.609              1.933              3.110
 Vibration     4          0.627              1.874              2.388
 Vibration     5          0.648              1.809              1.948
 Vibration     6          0.672              1.735              1.620
 Vibration     7          0.673              1.732              1.610
 Vibration     8          0.712              1.617              1.264
 Vibration     9          0.734              1.555              1.123
 Vibration    10          0.758              1.490              0.997
 Vibration    11          0.795              1.395              0.843
 Vibration    12          0.818              1.338              0.765
 Vibration    13          0.857              1.246              0.654
 Vibration    14          0.859              1.242              0.650
 Vibration    15          0.894              1.165              0.568
 Vibration    16          0.911              1.128              0.533
 Vibration    17          0.924              1.101              0.509
 Vibration    18          0.936              1.075              0.486

 Optimization completed.
    -- Stationary point found.
 Normal termination of Gaussian 16 at Mon Jul 13 16:50:10 2020.
