 Gaussian 16, Revision C.01,
 Gaussian 16:  ES64L-G16RevC.01  3-Jul-2019

 ----------------------------------------------------------------------
 #p opt=addgic freq td wb97xd/cc-pvdz nosymm int=ultrafine scrf=(solven
 t=CarbonTetraChloride)
 ----------------------------------------------------------------------

 ------------------------------------------------
 NM 2D-scan of HBT TD-WB97XD pVDZ in CTC Relaxed.
 ------------------------------------------------
 Symbolic Z-matrix:
 Charge =  0 Multiplicity = 1

 SCF Done:  E(RwB97XD) =  -1028.74398776     A.U. after   16 cycles
 Total Energy, E(TD-HF/TD-DFT) =  -1028.63810991
 SCF Done:  E(RwB97XD) =  -1028.78736134     A.U. after   14 cycles
 Total Energy, E(TD-HF/TD-DFT) =  -1028.68543187
 SCF Done:  E(RwB97XD) =  -1028.79448576     A.U. after   13 cycles
 Total Energy, E(TD-HF/TD-DFT) =  -1028.68931372
 SCF Done:  E(RwB97XD) =  -1028.79234009     A.U. after   13 cycles
 Total Energy, E(TD-HF/TD-DFT) =  -1028.68986424
 SCF Done:  E(RwB97XD) =  -1028.79350396     A.U. after   12 cycles
 Total Energy, E(TD-HF/TD-DFT) =  -1028.69026174
 SCF Done:  E(RwB97XD) =  -1028.79348259     A.U. after    9 cycles
 Total Energy, E(TD-HF/TD-DFT) =  -1028.69026462
 Optimization completed.
    -- Stationary point found.
 Normal termination of Gaussian 16 at Mon Jul 13 19:25:28 2020.

 ----------------------------------------------------------------------
 #P Geom=AllCheck Guess=TCheck SCRF=Check GenChk RwB97XD TD(FC,Read)/CC
 -pVDZ Freq
 ----------------------------------------------------------------------

 Structure from the checkpoint file:  "config_11_2.chk"
 ------------------------------------------------
 NM 2D-scan of HBT TD-WB97XD pVDZ in CTC Relaxed.
 ------------------------------------------------
 Charge =  0 Multiplicity = 1

                          Input orientation:
 ---------------------------------------------------------------------
 Center     Atomic      Atomic             Coordinates (Angstroms)
 Number     Number       Type             X           Y           Z
 ---------------------------------------------------------------------
      1          6           0        1.770920   -3.287580    0.000028
      2          6           0        1.028607   -2.109920   -0.000001
      3          6           0        1.692961   -0.881716   -0.000049
      4          6           0        3.089462   -0.775754   -0.000063
      5          6           0        3.817012   -1.956665   -0.000033
      6          6           0        3.167303   -3.197643    0.000011
      7          1           0        1.281156   -4.261531    0.000062
      8          1           0        3.570337    0.202867   -0.000096
      9          1           0        4.907275   -1.916638   -0.000043
     10          1           0        3.757211   -4.114794    0.000033
     11          7           0        0.820090    0.147905   -0.000075
     12         16           0       -0.736920   -1.831632    0.000002
     13          6           0       -1.443483    1.043006   -0.000025
     14          6           0       -2.822714    0.931642   -0.000064
     15          6           0       -0.851686    2.419183    0.000038
     16          6           0       -3.685795    2.073910   -0.000003
     17          1           0       -3.282894   -0.059817   -0.000135
     18          6           0       -1.772413    3.521203    0.000117
     19          6           0       -3.163328    3.359329    0.000098
     20          1           0       -4.764709    1.911700   -0.000025
     21          1           0       -1.316423    4.512987    0.000197
     22          1           0       -3.823472    4.227778    0.000158
     23          6           0       -0.519019   -0.079913   -0.000041
     24          8           0        0.387116    2.604989    0.000082
     25          1           0        1.181799    1.084779   -0.000103
 ---------------------------------------------------------------------

 SCF Done:  E(RwB97XD) =  -1028.79348259     A.U. after    1 cycles

 Excitation energies and oscillator strengths:

 Excited state symmetry could not be determined.
 Excited State   1:      Singlet-?Sym    2.8087 eV  441.43 nm  f=0.4273  <S**2>=0.000
      59 -> 60         0.69611
 This state for optimization and/or second-order correction.
 Total Energy, E(TD-HF/TD-DFT) =  -1028.69026468
 Copying the excited state density for this state as the 1-particle RhoCI density.

 Excited state symmetry could not be determined.
 Excited State   2:      Singlet-?Sym    3.5463 eV  349.61 nm  f=0.0000  <S**2>=0.000
      58 -> 60         0.68363
      58 -> 62         0.11768
      58 -> 64         0.11125

 Excited state symmetry could not be determined.
 Excited State   3:      Singlet-?Sym    4.3396 eV  285.71 nm  f=0.4939  <S**2>=0.000
      57 -> 60         0.68078

 Alpha  occ. eigenvalues --  -89.10908 -19.20883 -14.51920 -10.42633 -10.37100
 Alpha  occ. eigenvalues --  -10.36396 -10.35894 -10.33674 -10.33120 -10.32780
 Alpha  occ. eigenvalues --  -10.32557 -10.31516 -10.31421 -10.30526 -10.29050
 Alpha  occ. eigenvalues --  -10.28131  -8.12804  -6.07698  -6.07308  -6.06818
 Alpha  occ. eigenvalues --   -1.13504  -1.09709  -0.98538  -0.94971  -0.93186
 Alpha  occ. eigenvalues --   -0.89223  -0.86530  -0.84223  -0.80742  -0.76121
 Alpha  occ. eigenvalues --   -0.73894  -0.71675  -0.69261  -0.67444  -0.64864
 Alpha  occ. eigenvalues --   -0.60949  -0.59835  -0.56607  -0.56156  -0.55818
 Alpha  occ. eigenvalues --   -0.55008  -0.53547  -0.53030  -0.50873  -0.48969
 Alpha  occ. eigenvalues --   -0.48748  -0.48157  -0.46962  -0.45556  -0.44749
 Alpha  occ. eigenvalues --   -0.44404  -0.42801  -0.42019  -0.40178  -0.36911
 Alpha  occ. eigenvalues --   -0.33802  -0.31542  -0.31373  -0.25593
 Alpha virt. eigenvalues --   -0.02201   0.03575   0.05998   0.06308   0.09483
 Alpha virt. eigenvalues --    0.10650   0.11429   0.14516   0.16043   0.17118
 Alpha virt. eigenvalues --    0.18807   0.19932   0.21006   0.21340   0.22905

 Mulliken charges:
               1
     1  C    0.010524
     2  C   -0.253993
     3  C    0.247645
     4  C   -0.010636
     5  C    0.015773
     6  C    0.000278
     7  H    0.027522
     8  H    0.035383
     9  H    0.029034
    10  H    0.027756
    11  N   -0.081024
    12  S    0.197120
    13  C   -0.118746
    14  C   -0.021325
    15  C    0.119987
    16  C   -0.041081
    17  H   -0.000193
    18  C   -0.036797
    19  C    0.035098
    20  H    0.001989
    21  H   -0.000639
    22  H    0.013301
    23  C    0.074473
    24  O   -0.394574
    25  H    0.123126
 Sum of Mulliken charges =  -0.00000

 Dipole moment (field-independent basis, Debye):
    X=              2.2033    Y=             -5.7009    Z=             -0.0002  Tot=              6.1118
 Quadrupole moment (field-independent basis, Debye-Ang):
   XX=            -82.2903   YY=            -95.1607   ZZ=           -104.2711
   XY=             -6.4915   XZ=             -0.0004   YZ=             -0.0004

  Exact polarizability:     349.125    -121.306     296.474      -0.001       0.003      63.388
 Approx polarizability:     276.477     -39.635     267.082      -0.001       0.002      82.163

 ******    1 imaginary frequencies (negative Signs) ******

                      1                      2                      3
                      A                      A                      A
 Frequencies --   -109.2842                44.2390                97.7150
 Red. masses --      7.4706                 6.4570                 4.6330
 Frc consts  --      0.0526                 0.0074                 0.0261
 IR Inten    --      1.9830                 1.6091                 0.0167

                      4                      5                      6
                      A                      A                      A
 Frequencies --    108.6093               169.1002               227.3366
 Red. masses --      5.7553                 4.9528                 5.4754
 Frc consts  --      0.0400                 0.0834                 0.1667
 IR Inten    --      8.1797                 0.0188                 0.5814

                      7                      8                      9
                      A                      A                      A
 Frequencies --    262.1810               268.6119               322.4465
 Red. masses --      7.5818                 4.5239                 7.3969
 Frc consts  --      0.3071                 0.1923                 0.4531
 IR Inten    --      1.1517                 1.7060                 3.4054

                     10                     11                     12
                      A                      A                      A
 Frequencies --    346.9912               374.5056               427.2277
 Red. masses --      4.6927                 8.4998                 3.4209
 Frc consts  --      0.3329                 0.7024                 0.3679
 IR Inten    --      0.9687                 7.1020                 5.3428

                     13                     14                     15
                      A                      A                      A
 Frequencies --    445.3388               498.2012               509.4399
 Red. masses --      4.5130                 8.1707                 3.1844
 Frc consts  --      0.5273                 1.1949                 0.4869
 IR Inten    --      3.6098                10.4319                 0.4565

                     16                     17                     18
                      A                      A                      A
 Frequencies --    538.0525               553.0710               560.8784
 Red. masses --      8.8192                 3.6633                 6.9223
 Frc consts  --      1.5043                 0.6602                 1.2830
 IR Inten    --     12.3543                 2.6231                32.8169

                     19                     20                     21
                      A                      A                      A
 Frequencies --    568.3694               641.8712               676.6589
 Red. masses --      7.4799                 6.1530                 1.3730
 Frc consts  --      1.4237                 1.4936                 0.3704
 IR Inten    --     17.6569                45.7724                62.0398

                     22                     23                     24
                      A                      A                      A
 Frequencies --    693.5942               703.3239               729.3825
 Red. masses --      6.3518                 1.2278                 8.1553
 Frc consts  --      1.8004                 0.3578                 2.5562
 IR Inten    --      0.7165                 0.1724                 3.7667

                     25                     26                     27
                      A                      A                      A
 Frequencies --    741.1263               761.6661               769.7489
 Red. masses --      2.4504                 1.7190                 1.7230
 Frc consts  --      0.7930                 0.5876                 0.6015
 IR Inten    --     16.2666                 0.1523               121.4231

                     28                     29                     30
                      A                      A                      A
 Frequencies --    805.0621               844.9268               860.4886
 Red. masses --      6.5083                 1.7882                 1.3955
 Frc consts  --      2.4853                 0.7521                 0.6088
 IR Inten    --     18.6281                 1.1080                 2.6070

                     31                     32                     33
                      A                      A                      A
 Frequencies --    898.4936               908.7823               954.1256
 Red. masses --      5.4139                 1.4296                 1.3590
 Frc consts  --      2.5751                 0.6957                 0.7289
 IR Inten    --      1.2784                 9.2166                 0.6004

                     34                     35                     36
                      A                      A                      A
 Frequencies --    955.1237               955.7853              1002.4996
 Red. masses --      1.3503                 5.0915                 1.2947
 Frc consts  --      0.7258                 2.7404                 0.7666
 IR Inten    --      1.9656                 1.4915                 0.0020

                     37                     38                     39
                      A                      A                      A
 Frequencies --   1038.5559              1052.5177              1076.2628
 Red. masses --      2.3230                 2.3056                 3.6987
 Frc consts  --      1.4762                 1.5048                 2.5243
 IR Inten    --      1.5711                12.7236                 1.1921

                     40                     41                     42
                      A                      A                      A
 Frequencies --   1101.6622              1150.2976              1158.3390
 Red. masses --      1.6509                 1.3119                 1.1908
 Frc consts  --      1.1805                 1.0228                 0.9414
 IR Inten    --     44.3147                 4.5675                84.5720

                     43                     44                     45
                      A                      A                      A
 Frequencies --   1178.3312              1192.0386              1240.4677
 Red. masses --      1.1519                 1.7966                 2.3920
 Frc consts  --      0.9423                 1.5041                 2.1686
 IR Inten    --     42.0976                84.2080                13.9299

                     46                     47                     48
                      A                      A                      A
 Frequencies --   1271.1417              1294.2781              1332.8273
 Red. masses --      2.1616                 1.5725                 3.3908
 Frc consts  --      2.0578                 1.5521                 3.5489
 IR Inten    --    105.1350                13.1201                36.2697

                     49                     50                     51
                      A                      A                      A
 Frequencies --   1368.0591              1387.9804              1401.9185
 Red. masses --      2.6269                 2.3299                 4.4768
 Frc consts  --      2.8967                 2.6446                 5.1840
 IR Inten    --     67.5463                33.7760                61.2568

                     52                     53                     54
                      A                      A                      A
 Frequencies --   1446.2454              1472.6138              1519.0590
 Red. masses --      3.1105                 2.7967                 2.8732
 Frc consts  --      3.8332                 3.5733                 3.9063
 IR Inten    --    186.5533                 7.7024                27.7277

                     55                     56                     57
                      A                      A                      A
 Frequencies --   1526.1262              1576.2960              1602.9235
 Red. masses --      3.6947                 6.1808                 5.1646
 Frc consts  --      5.0700                 9.0484                 7.8183
 IR Inten    --     67.4822               168.7136               120.9394

                     58                     59                     60
                      A                      A                      A
 Frequencies --   1637.6637              1663.9161              1678.7516
 Red. masses --      7.7172                 7.0319                 6.9213
 Frc consts  --     12.1944                11.4706                11.4924
 IR Inten    --    143.4007                38.1385               148.2417

                     61                     62                     63
                      A                      A                      A
 Frequencies --   3188.8256              3208.5338              3213.8899
 Red. masses --      1.0893                 1.0862                 1.0861
 Frc consts  --      6.5262                 6.5881                 6.6100
 IR Inten    --     20.3600                 1.2740                 5.4658

                     64                     65                     66
                      A                      A                      A
 Frequencies --   3220.9232              3223.7367              3232.1494
 Red. masses --      1.0915                 1.0901                 1.0961
 Frc consts  --      6.6718                 6.6747                 6.7465
 IR Inten    --     13.7526                 2.5068                 6.6887

                     67                     68                     69
                      A                      A                      A
 Frequencies --   3232.9660              3240.5190              3639.8960
 Red. masses --      1.0992                 1.0995                 1.0820
 Frc consts  --      6.7690                 6.8024                 8.4465
 IR Inten    --     24.6865                14.3311               704.2643

 - Thermochemistry -
 -------------------
 Temperature   298.150 Kelvin.  Pressure   1.00000 Atm.
 Atom     1 has atomic number  6 and mass  12.00000

 Molecular mass:   227.04049 amu.
 Principal axes and moments of inertia in atomic units:
                           1         2         3
     Eigenvalues --  1315.929846462.462287778.39212
           X           -0.70344   0.71075  -0.00000
           Y            0.71075   0.70344  -0.00001
           Z            0.00001   0.00001   1.00000
 This molecule is an asymmetric top.
 Rotational symmetry number  1.
 Warning -- assumption of classical behavior for rotation
           may cause significant error
 Rotational temperatures (Kelvin)      0.06582     0.01340     0.01114
 Rotational constants (GHZ):           1.37146     0.27927     0.23202
    1 imaginary frequencies ignored.
 Zero-point vibrational energy     490437.1 (Joules/Mol)
                                  117.21729 (Kcal/Mol)
 Warning -- explicit consideration of  18 degrees of freedom as
           vibrations may cause significant error
 Vibrational temperatures:     63.65   140.59   156.26   243.30   327.09
          (Kelvin)            377.22   386.47   463.93   499.24   538.83
                              614.69   640.74   716.80   732.97   774.14
                              795.75   806.98   817.76   923.51   973.56
                              997.93  1011.93  1049.42  1066.32  1095.87
                             1107.50  1158.30  1215.66  1238.05  1292.73
                             1307.54  1372.77  1374.21  1375.16  1442.37
                             1494.25  1514.34  1548.50  1585.05  1655.02
                             1666.59  1695.36  1715.08  1784.76  1828.89
                             1862.18  1917.64  1968.33  1996.99  2017.05
                             2080.82  2118.76  2185.59  2195.76  2267.94
                             2306.25  2356.23  2394.00  2415.35  4588.01
                             4616.36  4624.07  4634.19  4638.24  4650.34
                             4651.52  4662.38  5237.00

 Zero-point correction=                           0.186798 (Hartree/Particle)
 Thermal correction to Energy=                    0.198468
 Thermal correction to Enthalpy=                  0.199412
 Thermal correction to Gibbs Free Energy=         0.148506
 Sum of electronic and zero-point Energies=          -1028.503467
 Sum of electronic and thermal Energies=             -1028.491796
 Sum of electronic and thermal Enthalpies=           -1028.490852
 Sum of electronic and thermal Free Energies=        -1028.541758

                     E (Thermal)             CV                S
                      KCal/Mol        Cal/Mol-Kelvin    Cal/Mol-Kelvin
 Total                  124.541             48.012            107.141
 Electronic               0.000              0.000              0.000
 Translational            0.889              2.981             42.162
 Rotational               0.889              2.981             32.559
 Vibrational            122.763             42.050             32.420
 Vibration     1          0.595              1.980              5.060
 Vibration     2          0.603              1.951              3.499
 Vibration     3          0.606              1.942              3.294
 Vibration     4          0.625              1.881              2.445
 Vibration     5          0.651              1.799              1.900
 Vibration     6          0.669              1.742              1.647
 Vibration     7          0.673              1.731              1.605
 Vibration     8          0.707              1.630              1.298
 Vibration     9          0.725              1.581              1.180
 Vibration    10          0.746              1.524              1.061
 Vibration    11          0.789              1.411              0.868
 Vibration    12          0.805              1.371              0.810
 Vibration    13          0.854              1.254              0.663
 Vibration    14          0.865              1.229              0.635
 Vibration    15          0.893              1.166              0.569
 Vibration    16          0.908              1.133              0.538
 Vibration    17          0.917              1.116              0.522
 Vibration    18          0.924              1.100              0.507

 Optimization completed.
    -- Stationary point found.
 Normal termination of Gaussian 16 at Mon Jul 13 19:43:06 2020.
