 Gaussian 16, Revision C.01,
 Gaussian 16:  ES64L-G16RevC.01  3-Jul-2019

 ----------------------------------------------------------------------
 #p opt=addgic freq td wb97xd/cc-pvdz nosymm int=ultrafine scrf=(solven
 t=CarbonTetraChloride)
 ----------------------------------------------------------------------

 ------------------------------------------------
 NM 2D-scan of HBT TD-WB97XD pVDZ in CTC Relaxed.
 ------------------------------------------------
 Symbolic Z-matrix:
 Charge =  0 Multiplicity = 1

 SCF Done:  E(RwB97XD) =  -1028.81026644     A.U. after   15 cycles
 Total Energy, E(TD-HF/TD-DFT) =  -1028.69216020
 SCF Done:  E(RwB97XD) =  -1028.81011392     A.U. after   10 cycles
 Total Energy, E(TD-HF/TD-DFT) =  -1028.69220686
 SCF Done:  E(RwB97XD) =  -1028.80993224     A.U. after   10 cycles
 Total Energy, E(TD-HF/TD-DFT) =  -1028.69222158
 SCF Done:  E(RwB97XD) =  -1028.80963851     A.U. after   11 cycles
 Total Energy, E(TD-HF/TD-DFT) =  -1028.69223313
 Optimization completed.
    -- Stationary point found.
 Normal termination of Gaussian 16 at Mon Jul 13 15:16:15 2020.

 ----------------------------------------------------------------------
 #P Geom=AllCheck Guess=TCheck SCRF=Check GenChk RwB97XD TD(FC,Read)/CC
 -pVDZ Freq
 ----------------------------------------------------------------------

 Structure from the checkpoint file:  "config_7_5.chk"
 ------------------------------------------------
 NM 2D-scan of HBT TD-WB97XD pVDZ in CTC Relaxed.
 ------------------------------------------------
 Charge =  0 Multiplicity = 1

                          Input orientation:
 ---------------------------------------------------------------------
 Center     Atomic      Atomic             Coordinates (Angstroms)
 Number     Number       Type             X           Y           Z
 ---------------------------------------------------------------------
      1          6           0        1.706345   -3.270030   -0.000027
      2          6           0        1.000950   -2.067866   -0.000016
      3          6           0        1.688648   -0.822062   -0.000011
      4          6           0        3.096322   -0.792325   -0.000016
      5          6           0        3.784529   -1.992833   -0.000027
      6          6           0        3.101990   -3.222085   -0.000033
      7          1           0        1.183845   -4.227400   -0.000031
      8          1           0        3.613423    0.167602   -0.000012
      9          1           0        4.875842   -1.985653   -0.000032
     10          1           0        3.668765   -4.154022   -0.000042
     11          7           0        0.879572    0.258710   -0.000004
     12         16           0       -0.741809   -1.795440   -0.000007
     13          6           0       -1.397529    1.016974    0.000009
     14          6           0       -2.791411    0.860520   -0.000002
     15          6           0       -0.869327    2.408614    0.000032
     16          6           0       -3.645026    1.975802    0.000019
     17          1           0       -3.222701   -0.142446   -0.000024
     18          6           0       -1.770306    3.498322    0.000054
     19          6           0       -3.145211    3.290459    0.000049
     20          1           0       -4.723705    1.810962    0.000013
     21          1           0       -1.332486    4.497120    0.000074
     22          1           0       -3.831051    4.137782    0.000067
     23          6           0       -0.444901   -0.041388   -0.000001
     24          8           0        0.398683    2.633949    0.000037
     25          1           0        0.929713    1.485888    0.000017
 ---------------------------------------------------------------------

 SCF Done:  E(RwB97XD) =  -1028.80963851     A.U. after    1 cycles

 Excitation energies and oscillator strengths:

 Excited state symmetry could not be determined.
 Excited State   1:      Singlet-?Sym    3.1948 eV  388.09 nm  f=0.4832  <S**2>=0.000
      59 -> 60         0.69388
 This state for optimization and/or second-order correction.
 Total Energy, E(TD-HF/TD-DFT) =  -1028.69223314
 Copying the excited state density for this state as the 1-particle RhoCI density.

 Excited state symmetry could not be determined.
 Excited State   2:      Singlet-?Sym    4.3638 eV  284.12 nm  f=0.3898  <S**2>=0.000
      57 -> 60        -0.11053
      58 -> 60         0.67034

 Excited state symmetry could not be determined.
 Excited State   3:      Singlet-?Sym    4.4791 eV  276.80 nm  f=0.0000  <S**2>=0.000
      56 -> 60         0.68795
      56 -> 64        -0.10670

 Alpha  occ. eigenvalues --  -89.10046 -19.24224 -14.49471 -10.41082 -10.37037
 Alpha  occ. eigenvalues --  -10.36297 -10.35709 -10.32913 -10.32165 -10.31981
 Alpha  occ. eigenvalues --  -10.31933 -10.31928 -10.31842 -10.31352 -10.29741
 Alpha  occ. eigenvalues --  -10.29228  -8.11964  -6.06832  -6.06477  -6.06000
 Alpha  occ. eigenvalues --   -1.13544  -1.09787  -0.97409  -0.95245  -0.92548
 Alpha  occ. eigenvalues --   -0.88985  -0.85707  -0.83870  -0.82014  -0.75917
 Alpha  occ. eigenvalues --   -0.71529  -0.70942  -0.68552  -0.68077  -0.63730
 Alpha  occ. eigenvalues --   -0.60845  -0.59292  -0.57603  -0.55366  -0.54817
 Alpha  occ. eigenvalues --   -0.54350  -0.53440  -0.52648  -0.51103  -0.49955
 Alpha  occ. eigenvalues --   -0.49404  -0.47489  -0.46426  -0.45449  -0.45048
 Alpha  occ. eigenvalues --   -0.44040  -0.43087  -0.41992  -0.40699  -0.36618
 Alpha  occ. eigenvalues --   -0.34661  -0.32935  -0.31211  -0.27177
 Alpha virt. eigenvalues --   -0.01858   0.04365   0.06539   0.06685   0.08227
 Alpha virt. eigenvalues --    0.10578   0.13160   0.14893   0.16085   0.17719
 Alpha virt. eigenvalues --    0.18847   0.20681   0.21458   0.21971   0.22708

 Mulliken charges:
               1
     1  C    0.013377
     2  C   -0.235602
     3  C    0.273066
     4  C   -0.013837
     5  C    0.011147
     6  C   -0.003036
     7  H    0.022966
     8  H    0.026125
     9  H    0.023488
    10  H    0.023896
    11  N   -0.277686
    12  S    0.183887
    13  C   -0.117312
    14  C   -0.019965
    15  C    0.123221
    16  C   -0.029093
    17  H    0.006539
    18  C   -0.007984
    19  C    0.029540
    20  H    0.006151
    21  H    0.009560
    22  H    0.018317
    23  C    0.071025
    24  O   -0.358441
    25  H    0.220649
 Sum of Mulliken charges =  -0.00000

 Dipole moment (field-independent basis, Debye):
    X=              0.6767    Y=             -3.8766    Z=             -0.0000  Tot=              3.9352
 Quadrupole moment (field-independent basis, Debye-Ang):
   XX=            -83.1684   YY=            -91.9225   ZZ=           -104.3221
   XY=             -6.9036   XZ=             -0.0001   YZ=              0.0001

  Exact polarizability:     360.414    -140.000     319.777      -0.002       0.003      63.345
 Approx polarizability:     275.076     -35.505     263.977      -0.001       0.002      82.317

 ******    1 imaginary frequencies (negative Signs) ******

                      1                      2                      3
                      A                      A                      A
 Frequencies --  -1033.7983                37.2767                48.4092
 Red. masses --      1.0928                 5.8018                 7.3631
 Frc consts  --      0.6881                 0.0047                 0.0102
 IR Inten    --   1960.6044                 0.6259                 1.1336

                      4                      5                      6
                      A                      A                      A
 Frequencies --    109.8431               134.2679               177.7824
 Red. masses --      4.8216                 5.7161                 5.8486
 Frc consts  --      0.0343                 0.0607                 0.1089
 IR Inten    --      0.0002                 2.3110                 0.4273

                      7                      8                      9
                      A                      A                      A
 Frequencies --    220.2582               269.2788               273.0700
 Red. masses --      5.3666                 4.7183                 7.3553
 Frc consts  --      0.1534                 0.2016                 0.3231
 IR Inten    --      0.1030                 0.1970                 9.6360

                     10                     11                     12
                      A                      A                      A
 Frequencies --    370.0536               377.1905               404.1878
 Red. masses --      5.0174                 6.3580                11.1287
 Frc consts  --      0.4048                 0.5330                 1.0712
 IR Inten    --      0.6057                 9.4091                 3.4323

                     13                     14                     15
                      A                      A                      A
 Frequencies --    437.6888               472.6417               497.0188
 Red. masses --      3.2346                 4.7836                 3.1557
 Frc consts  --      0.3651                 0.6296                 0.4593
 IR Inten    --      5.0072                 0.2643                 0.4740

                     16                     17                     18
                      A                      A                      A
 Frequencies --    505.7118               542.7113               556.7106
 Red. masses --      8.8833                 8.4903                 3.8789
 Frc consts  --      1.3385                 1.4734                 0.7083
 IR Inten    --      1.5591                 0.6127                 0.3373

                     19                     20                     21
                      A                      A                      A
 Frequencies --    579.4375               600.3718               661.9219
 Red. masses --      7.5332                 7.2528                 6.7893
 Frc consts  --      1.4902                 1.5403                 1.7526
 IR Inten    --     14.2371                10.5433                92.5127

                     22                     23                     24
                      A                      A                      A
 Frequencies --    695.1424               709.9969               740.9668
 Red. masses --      1.6259                 6.4189                 2.3251
 Frc consts  --      0.4629                 1.9064                 0.7521
 IR Inten    --     39.4190                11.5461                16.7891

                     25                     26                     27
                      A                      A                      A
 Frequencies --    754.2235               764.3271               767.9332
 Red. masses --      8.3180                 1.8930                 1.7560
 Frc consts  --      2.7878                 0.6516                 0.6101
 IR Inten    --     22.3925                 7.1508                82.9458

                     28                     29                     30
                      A                      A                      A
 Frequencies --    818.8471               826.8655               864.1571
 Red. masses --      6.2368                 1.6336                 1.3976
 Frc consts  --      2.4639                 0.6581                 0.6149
 IR Inten    --     13.4656                 0.0344                 1.0062

                     31                     32                     33
                      A                      A                      A
 Frequencies --    908.3255               920.1322               955.3670
 Red. masses --      1.3834                 6.7100                 1.3468
 Frc consts  --      0.6725                 3.3471                 0.7242
 IR Inten    --      5.5493                24.4134                 2.0200

                     34                     35                     36
                      A                      A                      A
 Frequencies --    956.0360               994.5560              1001.6947
 Red. masses --      1.3795                 7.3464                 1.2939
 Frc consts  --      0.7429                 4.2814                 0.7649
 IR Inten    --      0.4402                55.9393                 0.0020

                     37                     38                     39
                      A                      A                      A
 Frequencies --   1040.7931              1049.2632              1085.8901
 Red. masses --      2.1515                 2.1057                 4.3553
 Frc consts  --      1.3731                 1.3659                 3.0258
 IR Inten    --      0.2290                 2.3523                63.1993

                     40                     41                     42
                      A                      A                      A
 Frequencies --   1128.0311              1150.7283              1167.6973
 Red. masses --      1.4551                 1.3251                 1.1723
 Frc consts  --      1.0909                 1.0338                 0.9418
 IR Inten    --     28.2268                10.7630               114.6882

                     43                     44                     45
                      A                      A                      A
 Frequencies --   1178.7992              1232.1656              1254.8968
 Red. masses --      1.1530                 1.0534                 1.7851
 Frc consts  --      0.9440                 0.9422                 1.6562
 IR Inten    --     18.9338                64.3471                83.2057

                     46                     47                     48
                      A                      A                      A
 Frequencies --   1265.6453              1299.7393              1346.6582
 Red. masses --      2.8003                 2.1598                 4.1517
 Frc consts  --      2.6429                 2.1497                 4.4360
 IR Inten    --     29.5340                15.8092               146.8184

                     49                     50                     51
                      A                      A                      A
 Frequencies --   1365.6576              1392.6742              1405.2496
 Red. masses --      6.2579                 2.6112                 2.2359
 Frc consts  --      6.8764                 2.9839                 2.6014
 IR Inten    --    197.7271                 7.7348                 8.3247

                     52                     53                     54
                      A                      A                      A
 Frequencies --   1446.4436              1478.1126              1499.8313
 Red. masses --      2.9472                 3.9435                 3.9323
 Frc consts  --      3.6329                 5.0763                 5.2117
 IR Inten    --    522.0783               160.9196               207.5509

                     55                     56                     57
                      A                      A                      A
 Frequencies --   1528.3677              1542.3614              1564.6288
 Red. masses --      5.1769                 4.8557                 4.2982
 Frc consts  --      7.1248                 6.8057                 6.1995
 IR Inten    --     78.9804                91.9572               185.4485

                     58                     59                     60
                      A                      A                      A
 Frequencies --   1624.1885              1641.3244              1659.0456
 Red. masses --      6.0349                 5.9969                 6.4579
 Frc consts  --      9.3797                 9.5185                10.4726
 IR Inten    --     36.1497               842.3707                90.2674

                     61                     62                     63
                      A                      A                      A
 Frequencies --   1884.9360              3201.9150              3209.4187
 Red. masses --      1.1069                 1.0881                 1.0863
 Frc consts  --      2.3171                 6.5727                 6.5928
 IR Inten    --    184.4421                16.7205                 7.2454

                     64                     65                     66
                      A                      A                      A
 Frequencies --   3216.3820              3220.5885              3226.1319
 Red. masses --      1.0879                 1.0901                 1.0928
 Frc consts  --      6.6311                 6.6619                 6.7012
 IR Inten    --      2.2891                 3.2412                18.3791

                     67                     68                     69
                      A                      A                      A
 Frequencies --   3231.8030              3238.0018              3238.3584
 Red. masses --      1.0953                 1.0990                 1.0990
 Frc consts  --      6.7404                 6.7889                 6.7903
 IR Inten    --     10.2812                36.7692                 0.5041

 - Thermochemistry -
 -------------------
 Temperature   298.150 Kelvin.  Pressure   1.00000 Atm.
 Atom     1 has atomic number  6 and mass  12.00000

 Molecular mass:   227.04049 amu.
 Principal axes and moments of inertia in atomic units:
                           1         2         3
     Eigenvalues --  1323.185736321.798717644.98444
           X           -0.70243   0.71175   0.00000
           Y            0.71175   0.70243  -0.00001
           Z            0.00001   0.00001   1.00000
 This molecule is an asymmetric top.
 Rotational symmetry number  1.
 Warning -- assumption of classical behavior for rotation
           may cause significant error
 Rotational temperatures (Kelvin)      0.06546     0.01370     0.01133
 Rotational constants (GHZ):           1.36394     0.28548     0.23607
    1 imaginary frequencies ignored.
 Zero-point vibrational energy     478327.6 (Joules/Mol)
                                  114.32304 (Kcal/Mol)
 Warning -- explicit consideration of  19 degrees of freedom as
           vibrations may cause significant error
 Vibrational temperatures:     53.63    69.65   158.04   193.18   255.79
          (Kelvin)            316.90   387.43   392.89   532.42   542.69
                              581.54   629.74   680.03   715.10   727.61
                              780.84   800.98   833.68   863.80   952.36
                             1000.15  1021.53  1066.09  1085.16  1099.70
                             1104.88  1178.14  1189.68  1243.33  1306.88
                             1323.87  1374.56  1375.52  1430.94  1441.22
                             1497.47  1509.66  1562.35  1622.99  1655.64
                             1680.06  1696.03  1772.81  1805.52  1820.98
                             1870.03  1937.54  1964.88  2003.75  2021.84
                             2081.11  2126.67  2157.92  2198.98  2219.11
                             2251.15  2336.84  2361.50  2387.00  2712.00
                             4606.84  4617.64  4627.66  4633.71  4641.68
                             4649.84  4658.76  4659.28

 Zero-point correction=                           0.182185 (Hartree/Particle)
 Thermal correction to Energy=                    0.194281
 Thermal correction to Enthalpy=                  0.195225
 Thermal correction to Gibbs Free Energy=         0.142740
 Sum of electronic and zero-point Energies=          -1028.510048
 Sum of electronic and thermal Energies=             -1028.497952
 Sum of electronic and thermal Enthalpies=           -1028.497008
 Sum of electronic and thermal Free Energies=        -1028.549493

                     E (Thermal)             CV                S
                      KCal/Mol        Cal/Mol-Kelvin    Cal/Mol-Kelvin
 Total                  121.913             48.432            110.463
 Electronic               0.000              0.000              0.000
 Translational            0.889              2.981             42.162
 Rotational               0.889              2.981             32.525
 Vibrational            120.136             42.470             35.776
 Vibration     1          0.594              1.982              5.399
 Vibration     2          0.595              1.978              4.881
 Vibration     3          0.606              1.941              3.272
 Vibration     4          0.613              1.919              2.884
 Vibration     5          0.628              1.870              2.352
 Vibration     6          0.647              1.810              1.957
 Vibration     7          0.674              1.730              1.601
 Vibration     8          0.676              1.723              1.577
 Vibration     9          0.742              1.534              1.080
 Vibration    10          0.748              1.519              1.050
 Vibration    11          0.769              1.461              0.947
 Vibration    12          0.798              1.388              0.834
 Vibration    13          0.830              1.311              0.730
 Vibration    14          0.853              1.257              0.666
 Vibration    15          0.861              1.237              0.644
 Vibration    16          0.898              1.156              0.559
 Vibration    17          0.912              1.125              0.530
 Vibration    18          0.936              1.076              0.486
 Vibration    19          0.959              1.031              0.449

 Optimization completed.
    -- Stationary point found.
 Normal termination of Gaussian 16 at Mon Jul 13 15:34:56 2020.
