 Gaussian 16, Revision C.01,
 Gaussian 16:  ES64L-G16RevC.01  3-Jul-2019

 ----------------------------------------------------------------------
 #p opt=addgic freq td wb97xd/cc-pvdz nosymm int=ultrafine scrf=(solven
 t=CarbonTetraChloride)
 ----------------------------------------------------------------------

 ------------------------------------------------
 NM 2D-scan of HBT TD-WB97XD pVDZ in CTC Relaxed.
 ------------------------------------------------
 Symbolic Z-matrix:
 Charge =  0 Multiplicity = 1

 SCF Done:  E(RwB97XD) =  -1028.80730163     A.U. after   15 cycles
 Total Energy, E(TD-HF/TD-DFT) =  -1028.68864808
 SCF Done:  E(RwB97XD) =  -1028.80784836     A.U. after   11 cycles
 Total Energy, E(TD-HF/TD-DFT) =  -1028.68882578
 SCF Done:  E(RwB97XD) =  -1028.80781478     A.U. after    9 cycles
 Total Energy, E(TD-HF/TD-DFT) =  -1028.68883053
 SCF Done:  E(RwB97XD) =  -1028.80780452     A.U. after    8 cycles
 Total Energy, E(TD-HF/TD-DFT) =  -1028.68883151
 Optimization completed.
    -- Stationary point found.
 Normal termination of Gaussian 16 at Mon Jul 13 15:00:48 2020.

 ----------------------------------------------------------------------
 #P Geom=AllCheck Guess=TCheck SCRF=Check GenChk RwB97XD TD(FC,Read)/CC
 -pVDZ Freq
 ----------------------------------------------------------------------

 Structure from the checkpoint file:  "config_7_1.chk"
 ------------------------------------------------
 NM 2D-scan of HBT TD-WB97XD pVDZ in CTC Relaxed.
 ------------------------------------------------
 Charge =  0 Multiplicity = 1

                          Input orientation:
 ---------------------------------------------------------------------
 Center     Atomic      Atomic             Coordinates (Angstroms)
 Number     Number       Type             X           Y           Z
 ---------------------------------------------------------------------
      1          6           0        1.763316   -3.269641   -0.000029
      2          6           0        1.004221   -2.098812   -0.000015
      3          6           0        1.653662   -0.834389   -0.000008
      4          6           0        3.059244   -0.741233   -0.000011
      5          6           0        3.796780   -1.909179   -0.000025
      6          6           0        3.158120   -3.162756   -0.000035
      7          1           0        1.286508   -4.250683   -0.000036
      8          1           0        3.529274    0.242719   -0.000005
      9          1           0        4.887052   -1.860517   -0.000029
     10          1           0        3.760039   -4.072587   -0.000046
     11          7           0        0.823792    0.220186   -0.000000
     12         16           0       -0.752013   -1.863851   -0.000008
     13          6           0       -1.427316    0.996042    0.000004
     14          6           0       -2.829435    0.905635   -0.000011
     15          6           0       -0.856677    2.378329    0.000030
     16          6           0       -3.637293    2.055636    0.000017
     17          1           0       -3.304196   -0.077403   -0.000041
     18          6           0       -1.712281    3.502934    0.000063
     19          6           0       -3.092064    3.353407    0.000059
     20          1           0       -4.721554    1.931273    0.000007
     21          1           0       -1.229115    4.480574    0.000087
     22          1           0       -3.745435    4.225920    0.000083
     23          6           0       -0.496260   -0.088970   -0.000001
     24          8           0        0.416918    2.582726    0.000021
     25          1           0        0.891493    1.477898    0.000010
 ---------------------------------------------------------------------

 SCF Done:  E(RwB97XD) =  -1028.80780452     A.U. after    1 cycles

 Excitation energies and oscillator strengths:

 Excited state symmetry could not be determined.
 Excited State   1:      Singlet-?Sym    3.2374 eV  382.97 nm  f=0.4961  <S**2>=0.000
      59 -> 60         0.69337
 This state for optimization and/or second-order correction.
 Total Energy, E(TD-HF/TD-DFT) =  -1028.68883154
 Copying the excited state density for this state as the 1-particle RhoCI density.

 Excited state symmetry could not be determined.
 Excited State   2:      Singlet-?Sym    4.3714 eV  283.63 nm  f=0.4031  <S**2>=0.000
      57 -> 60        -0.11530
      58 -> 60         0.66826
      59 -> 64         0.10227

 Excited state symmetry could not be determined.
 Excited State   3:      Singlet-?Sym    4.5629 eV  271.72 nm  f=0.0000  <S**2>=0.000
      56 -> 60         0.68864
      56 -> 64        -0.10118

 Alpha  occ. eigenvalues --  -89.10052 -19.24793 -14.48780 -10.41064 -10.37244
 Alpha  occ. eigenvalues --  -10.35924 -10.35659 -10.32902 -10.32215 -10.32017
 Alpha  occ. eigenvalues --  -10.31956 -10.31923 -10.31866 -10.31361 -10.29792
 Alpha  occ. eigenvalues --  -10.29296  -8.11913  -6.06788  -6.06430  -6.05947
 Alpha  occ. eigenvalues --   -1.14238  -1.09676  -0.97253  -0.95135  -0.92236
 Alpha  occ. eigenvalues --   -0.88954  -0.85453  -0.83934  -0.82048  -0.75933
 Alpha  occ. eigenvalues --   -0.71435  -0.70584  -0.68567  -0.68291  -0.63547
 Alpha  occ. eigenvalues --   -0.60771  -0.59167  -0.57799  -0.55398  -0.54635
 Alpha  occ. eigenvalues --   -0.54294  -0.53371  -0.52452  -0.51265  -0.49928
 Alpha  occ. eigenvalues --   -0.49531  -0.47487  -0.46321  -0.45472  -0.44971
 Alpha  occ. eigenvalues --   -0.43912  -0.42961  -0.42066  -0.40587  -0.36580
 Alpha  occ. eigenvalues --   -0.35004  -0.32867  -0.31157  -0.27284
 Alpha virt. eigenvalues --   -0.01837   0.04449   0.06688   0.06720   0.08074
 Alpha virt. eigenvalues --    0.10591   0.12497   0.14933   0.15944   0.17765
 Alpha virt. eigenvalues --    0.18874   0.20718   0.21548   0.22098   0.22601

 Mulliken charges:
               1
     1  C    0.009285
     2  C   -0.237683
     3  C    0.276988
     4  C   -0.014490
     5  C    0.012014
     6  C   -0.004665
     7  H    0.023096
     8  H    0.025766
     9  H    0.022993
    10  H    0.023664
    11  N   -0.288575
    12  S    0.178008
    13  C   -0.124463
    14  C   -0.016904
    15  C    0.119553
    16  C   -0.029402
    17  H    0.005231
    18  C   -0.004582
    19  C    0.029045
    20  H    0.007028
    21  H    0.010629
    22  H    0.018550
    23  C    0.073654
    24  O   -0.328847
    25  H    0.214105
 Sum of Mulliken charges =  -0.00000

 Dipole moment (field-independent basis, Debye):
    X=              0.6181    Y=             -3.5053    Z=             -0.0000  Tot=              3.5594
 Quadrupole moment (field-independent basis, Debye-Ang):
   XX=            -83.3037   YY=            -91.1980   ZZ=           -104.3858
   XY=             -6.8595   XZ=             -0.0001   YZ=              0.0003

  Exact polarizability:     366.402    -145.832     327.295      -0.002       0.003      63.432
 Approx polarizability:     276.324     -35.588     264.339      -0.001       0.002      82.411

 ******    2 imaginary frequencies (negative Signs) ******

                      1                      2                      3
                      A                      A                      A
 Frequencies --   -935.6709               -35.9602                40.5336
 Red. masses --      1.0937                 7.4911                 6.4709
 Frc consts  --      0.5641                 0.0057                 0.0063
 IR Inten    --   1602.2736                 0.0062                 1.6616

                      4                      5                      6
                      A                      A                      A
 Frequencies --    104.9899               132.6836               175.3692
 Red. masses --      4.4568                 5.7563                 5.7125
 Frc consts  --      0.0289                 0.0597                 0.1035
 IR Inten    --      0.0380                 4.4551                 0.4416

                      7                      8                      9
                      A                      A                      A
 Frequencies --    221.0814               268.0044               271.1244
 Red. masses --      5.3031                 4.7529                 7.4523
 Frc consts  --      0.1527                 0.2011                 0.3228
 IR Inten    --      0.0968                 0.2567                11.2140

                     10                     11                     12
                      A                      A                      A
 Frequencies --    373.0035               377.9115               400.7756
 Red. masses --      5.0334                 6.2322                11.2936
 Frc consts  --      0.4126                 0.5244                 1.0688
 IR Inten    --      0.6023                 3.9901                 4.4238

                     13                     14                     15
                      A                      A                      A
 Frequencies --    436.7247               475.2274               494.3807
 Red. masses --      3.2058                 4.8036                 3.1480
 Frc consts  --      0.3602                 0.6392                 0.4533
 IR Inten    --      5.3602                 0.0880                 0.4496

                     16                     17                     18
                      A                      A                      A
 Frequencies --    504.4876               539.1357               555.1651
 Red. masses --      8.9322                 8.3903                 3.8712
 Frc consts  --      1.3394                 1.4369                 0.7030
 IR Inten    --      0.8202                 1.9538                 0.3457

                     19                     20                     21
                      A                      A                      A
 Frequencies --    579.8805               610.0033               671.0075
 Red. masses --      7.4331                 7.5887                 6.8867
 Frc consts  --      1.4726                 1.6637                 1.8269
 IR Inten    --      5.1262                 9.7732               145.3857

                     22                     23                     24
                      A                      A                      A
 Frequencies --    695.8003               704.1235               738.6700
 Red. masses --      1.6825                 6.4445                 2.1432
 Frc consts  --      0.4799                 1.8825                 0.6890
 IR Inten    --     37.3468                28.2528                19.4569

                     25                     26                     27
                      A                      A                      A
 Frequencies --    746.4170               764.4605               766.7772
 Red. masses --      8.8684                 1.9150                 1.8478
 Frc consts  --      2.9111                 0.6594                 0.6401
 IR Inten    --     13.4646                 3.5547                85.0635

                     28                     29                     30
                      A                      A                      A
 Frequencies --    812.6301               829.8095               859.8842
 Red. masses --      6.3101                 1.5804                 1.4111
 Frc consts  --      2.4551                 0.6412                 0.6148
 IR Inten    --      9.1587                 0.0573                 1.0218

                     31                     32                     33
                      A                      A                      A
 Frequencies --    911.7330               915.8339               952.4685
 Red. masses --      1.3754                 6.7028                 1.3469
 Frc consts  --      0.6736                 3.3124                 0.7199
 IR Inten    --      5.5869                16.0119                 1.5788

                     34                     35                     36
                      A                      A                      A
 Frequencies --    956.9841               988.6987               999.6069
 Red. masses --      1.3791                 7.3892                 1.2951
 Frc consts  --      0.7442                 4.2557                 0.7624
 IR Inten    --      0.8699                40.1320                 0.0058

                     37                     38                     39
                      A                      A                      A
 Frequencies --   1039.1586              1046.2521              1077.9938
 Red. masses --      2.2006                 2.1217                 4.5139
 Frc consts  --      1.4001                 1.3684                 3.0905
 IR Inten    --      0.2712                 2.4815                54.8326

                     40                     41                     42
                      A                      A                      A
 Frequencies --   1128.2029              1149.0174              1167.3787
 Red. masses --      1.4445                 1.3156                 1.1686
 Frc consts  --      1.0833                 1.0234                 0.9383
 IR Inten    --     42.6433                 9.4316               117.1172

                     43                     44                     45
                      A                      A                      A
 Frequencies --   1176.9314              1237.6510              1252.6428
 Red. masses --      1.1491                 1.0550                 1.9309
 Frc consts  --      0.9378                 0.9521                 1.7851
 IR Inten    --     21.9321                62.6065                91.3001

                     46                     47                     48
                      A                      A                      A
 Frequencies --   1261.4272              1293.1822              1340.8116
 Red. masses --      2.9350                 1.9954                 3.5503
 Frc consts  --      2.7516                 1.9660                 3.7606
 IR Inten    --     33.8702                15.2946               150.9332

                     49                     50                     51
                      A                      A                      A
 Frequencies --   1367.1662              1399.4165              1403.5002
 Red. masses --      6.1798                 2.5800                 2.2263
 Frc consts  --      6.8056                 2.9769                 2.5838
 IR Inten    --    200.8537                34.1216                 9.3065

                     52                     53                     54
                      A                      A                      A
 Frequencies --   1446.1364              1474.1884              1496.0361
 Red. masses --      2.8913                 4.1618                 3.6870
 Frc consts  --      3.5626                 5.3289                 4.8619
 IR Inten    --    501.3873               313.3211               209.5289

                     55                     56                     57
                      A                      A                      A
 Frequencies --   1536.2487              1545.9192              1559.7742
 Red. masses --      4.9334                 5.9333                 4.1310
 Frc consts  --      6.8599                 8.3545                 5.9214
 IR Inten    --     28.6629                96.3271               280.0760

                     58                     59                     60
                      A                      A                      A
 Frequencies --   1622.2270              1646.9462              1658.0831
 Red. masses --      6.0639                 6.1501                 6.3900
 Frc consts  --      9.4021                 9.8286                10.3505
 IR Inten    --     67.4403               906.9810                30.3455

                     61                     62                     63
                      A                      A                      A
 Frequencies --   1858.3716              3203.0169              3208.6654
 Red. masses --      1.0988                 1.0874                 1.0858
 Frc consts  --      2.2357                 6.5728                 6.5862
 IR Inten    --     75.0629                15.0358                 5.4138

                     64                     65                     66
                      A                      A                      A
 Frequencies --   3216.7147              3217.6282              3226.2516
 Red. masses --      1.0895                 1.0900                 1.0920
 Frc consts  --      6.6421                 6.6490                 6.6970
 IR Inten    --      3.7938                 3.3361                19.4513

                     67                     68                     69
                      A                      A                      A
 Frequencies --   3228.1253              3235.6724              3239.5836
 Red. masses --      1.0954                 1.0995                 1.0986
 Frc consts  --      6.7257                 6.7825                 6.7933
 IR Inten    --     11.3019                24.5295                12.4341

 - Thermochemistry -
 -------------------
 Temperature   298.150 Kelvin.  Pressure   1.00000 Atm.
 Atom     1 has atomic number  6 and mass  12.00000

 Molecular mass:   227.04049 amu.
 Principal axes and moments of inertia in atomic units:
                           1         2         3
     Eigenvalues --  1340.875396317.604997658.48037
           X           -0.70135   0.71282   0.00000
           Y            0.71282   0.70135  -0.00001
           Z            0.00001   0.00001   1.00000
 This molecule is an asymmetric top.
 Rotational symmetry number  1.
 Warning -- assumption of classical behavior for rotation
           may cause significant error
 Rotational temperatures (Kelvin)      0.06460     0.01371     0.01131
 Rotational constants (GHZ):           1.34594     0.28567     0.23565
    2 imaginary frequencies ignored.
 Zero-point vibrational energy     477523.6 (Joules/Mol)
                                  114.13088 (Kcal/Mol)
 Warning -- explicit consideration of  18 degrees of freedom as
           vibrations may cause significant error
 Vibrational temperatures:     58.32   151.06   190.90   252.32   318.09
          (Kelvin)            385.60   390.09   536.67   543.73   576.63
                              628.35   683.75   711.30   725.85   775.70
                              798.76   834.32   877.66   965.43  1001.10
                             1013.08  1062.78  1073.93  1099.89  1103.22
                             1169.19  1193.91  1237.18  1311.78  1317.68
                             1370.39  1376.89  1422.52  1438.21  1495.12
                             1505.32  1550.99  1623.23  1653.18  1679.60
                             1693.34  1780.70  1802.27  1814.91  1860.60
                             1929.13  1967.05  2013.45  2019.32  2080.67
                             2121.03  2152.46  2210.32  2224.23  2244.17
                             2334.02  2369.59  2385.61  2673.78  4608.43
                             4616.55  4628.13  4629.45  4641.86  4644.55
                             4655.41  4661.04

 Zero-point correction=                           0.181879 (Hartree/Particle)
 Thermal correction to Energy=                    0.193155
 Thermal correction to Enthalpy=                  0.194099
 Thermal correction to Gibbs Free Energy=         0.143927
 Sum of electronic and zero-point Energies=          -1028.506952
 Sum of electronic and thermal Energies=             -1028.495677
 Sum of electronic and thermal Enthalpies=           -1028.494732
 Sum of electronic and thermal Free Energies=        -1028.544905

                     E (Thermal)             CV                S
                      KCal/Mol        Cal/Mol-Kelvin    Cal/Mol-Kelvin
 Total                  121.207             46.516            105.597
 Electronic               0.000              0.000              0.000
 Translational            0.889              2.981             42.162
 Rotational               0.889              2.981             32.539
 Vibrational            119.429             40.554             30.895
 Vibration     1          0.594              1.981              5.233
 Vibration     2          0.605              1.945              3.360
 Vibration     3          0.613              1.921              2.907
 Vibration     4          0.627              1.873              2.377
 Vibration     5          0.648              1.809              1.950
 Vibration     6          0.673              1.732              1.609
 Vibration     7          0.675              1.726              1.589
 Vibration     8          0.744              1.528              1.067
 Vibration     9          0.748              1.517              1.048
 Vibration    10          0.767              1.468              0.960
 Vibration    11          0.797              1.390              0.837
 Vibration    12          0.832              1.305              0.723
 Vibration    13          0.850              1.262              0.672
 Vibration    14          0.860              1.240              0.647
 Vibration    15          0.894              1.164              0.567
 Vibration    16          0.911              1.128              0.534
 Vibration    17          0.937              1.075              0.486
 Vibration    18          0.969              1.011              0.433

 Optimization completed.
    -- Stationary point found.
 Normal termination of Gaussian 16 at Mon Jul 13 15:18:41 2020.
