 Gaussian 16, Revision C.01,
 Gaussian 16:  ES64L-G16RevC.01  3-Jul-2019

 ----------------------------------------------------------------------
 #p opt=addgic freq td wb97xd/cc-pvdz nosymm int=ultrafine scrf=(solven
 t=CarbonTetraChloride)
 ----------------------------------------------------------------------

 ------------------------------------------------
 NM 2D-scan of HBT TD-WB97XD pVDZ in CTC Relaxed.
 ------------------------------------------------
 Symbolic Z-matrix:
 Charge =  0 Multiplicity = 1

 SCF Done:  E(RwB97XD) =  -1028.79527160     A.U. after   16 cycles
 Total Energy, E(TD-HF/TD-DFT) =  -1028.68592936
 SCF Done:  E(RwB97XD) =  -1028.80089346     A.U. after   14 cycles
 Total Energy, E(TD-HF/TD-DFT) =  -1028.69830695
 SCF Done:  E(RwB97XD) =  -1028.80613867     A.U. after   13 cycles
 Total Energy, E(TD-HF/TD-DFT) =  -1028.70081193
 SCF Done:  E(RwB97XD) =  -1028.80661371     A.U. after   11 cycles
 Total Energy, E(TD-HF/TD-DFT) =  -1028.70090761
 Optimization completed.
    -- Stationary point found.
 Normal termination of Gaussian 16 at Mon Jul 13 16:13:54 2020.

 ----------------------------------------------------------------------
 #P Geom=AllCheck Guess=TCheck SCRF=Check GenChk RwB97XD TD(FC,Read)/CC
 -pVDZ Freq
 ----------------------------------------------------------------------

 Structure from the checkpoint file:  "config_9_12.chk"
 ------------------------------------------------
 NM 2D-scan of HBT TD-WB97XD pVDZ in CTC Relaxed.
 ------------------------------------------------
 Charge =  0 Multiplicity = 1

                          Input orientation:
 ---------------------------------------------------------------------
 Center     Atomic      Atomic             Coordinates (Angstroms)
 Number     Number       Type             X           Y           Z
 ---------------------------------------------------------------------
      1          6           0        1.621776   -3.287879   -0.000011
      2          6           0        1.001745   -2.041662   -0.000012
      3          6           0        1.757712   -0.848016   -0.000022
      4          6           0        3.159592   -0.901664   -0.000031
      5          6           0        3.769478   -2.149723   -0.000029
      6          6           0        3.015424   -3.332651   -0.000020
      7          1           0        1.031842   -4.205037   -0.000004
      8          1           0        3.743796    0.018881   -0.000039
      9          1           0        4.858971   -2.208630   -0.000036
     10          1           0        3.521494   -4.298667   -0.000019
     11          7           0        0.970904    0.266760   -0.000025
     12         16           0       -0.721170   -1.680107   -0.000005
     13          6           0       -1.352858    1.082123    0.000009
     14          6           0       -2.718642    0.813038    0.000002
     15          6           0       -0.900174    2.495238    0.000038
     16          6           0       -3.675002    1.855675    0.000020
     17          1           0       -3.072239   -0.221106   -0.000020
     18          6           0       -1.908248    3.503492    0.000055
     19          6           0       -3.271390    3.190929    0.000046
     20          1           0       -4.735445    1.599705    0.000014
     21          1           0       -1.558109    4.537150    0.000081
     22          1           0       -4.016380    3.987698    0.000061
     23          6           0       -0.371852    0.040578   -0.000010
     24          8           0        0.333223    2.784932    0.000061
     25          1           0        1.212406    1.284881   -0.000011
 ---------------------------------------------------------------------

 SCF Done:  E(RwB97XD) =  -1028.80661371     A.U. after    1 cycles

 Excitation energies and oscillator strengths:

 Excited state symmetry could not be determined.
 Excited State   1:      Singlet-?Sym    2.8764 eV  431.04 nm  f=0.4411  <S**2>=0.000
      59 -> 60         0.69671
 This state for optimization and/or second-order correction.
 Total Energy, E(TD-HF/TD-DFT) =  -1028.70090765
 Copying the excited state density for this state as the 1-particle RhoCI density.

 Excited state symmetry could not be determined.
 Excited State   2:      Singlet-?Sym    3.6619 eV  338.58 nm  f=0.0000  <S**2>=0.000
      57 -> 60         0.68356
      57 -> 62         0.11721
      57 -> 64         0.11484

 Excited state symmetry could not be determined.
 Excited State   3:      Singlet-?Sym    4.3101 eV  287.66 nm  f=0.4023  <S**2>=0.000
      58 -> 60         0.68163

 Alpha  occ. eigenvalues --  -89.10465 -19.21130 -14.52485 -10.42012 -10.37554
 Alpha  occ. eigenvalues --  -10.36270 -10.35858 -10.33409 -10.32997 -10.32591
 Alpha  occ. eigenvalues --  -10.32404 -10.31519 -10.31057 -10.30805 -10.29216
 Alpha  occ. eigenvalues --  -10.28383  -8.12458  -6.07331  -6.06961  -6.06478
 Alpha  occ. eigenvalues --   -1.12842  -1.09168  -0.98368  -0.95386  -0.93254
 Alpha  occ. eigenvalues --   -0.89124  -0.86664  -0.83851  -0.81228  -0.75947
 Alpha  occ. eigenvalues --   -0.73090  -0.72094  -0.68803  -0.67646  -0.65053
 Alpha  occ. eigenvalues --   -0.61009  -0.59703  -0.56677  -0.55902  -0.55597
 Alpha  occ. eigenvalues --   -0.54992  -0.53789  -0.53085  -0.50593  -0.48993
 Alpha  occ. eigenvalues --   -0.48756  -0.48413  -0.46948  -0.45481  -0.44870
 Alpha  occ. eigenvalues --   -0.44230  -0.42993  -0.42164  -0.40151  -0.36833
 Alpha  occ. eigenvalues --   -0.33635  -0.31760  -0.31430  -0.25919
 Alpha virt. eigenvalues --   -0.02067   0.03731   0.05752   0.06467   0.09271
 Alpha virt. eigenvalues --    0.10714   0.13414   0.14666   0.16185   0.17280
 Alpha virt. eigenvalues --    0.18518   0.20072   0.20826   0.21312   0.22801

 Mulliken charges:
               1
     1  C    0.017694
     2  C   -0.239124
     3  C    0.258268
     4  C   -0.010373
     5  C    0.012004
     6  C    0.001353
     7  H    0.025827
     8  H    0.031423
     9  H    0.027574
    10  H    0.026873
    11  N   -0.141071
    12  S    0.200408
    13  C   -0.091457
    14  C   -0.031363
    15  C    0.113931
    16  C   -0.034677
    17  H    0.008099
    18  C   -0.027758
    19  C    0.033062
    20  H    0.001948
    21  H    0.001746
    22  H    0.014717
    23  C    0.060017
    24  O   -0.408497
    25  H    0.149375
 Sum of Mulliken charges =  -0.00000

 Dipole moment (field-independent basis, Debye):
    X=              1.8318    Y=             -5.6893    Z=             -0.0001  Tot=              5.9769
 Quadrupole moment (field-independent basis, Debye-Ang):
   XX=            -82.1122   YY=            -95.9792   ZZ=           -104.2140
   XY=             -6.5511   XZ=             -0.0002   YZ=             -0.0002

  Exact polarizability:     347.980    -122.361     298.605      -0.002       0.002      63.242
 Approx polarizability:     273.432     -36.653     265.209      -0.001       0.002      82.031

                      1                      2                      3
                      A                      A                      A
 Frequencies --     23.4271                39.4839               111.5254
 Red. masses --      5.4366                 6.4088                 5.7384
 Frc consts  --      0.0018                 0.0059                 0.0421
 IR Inten    --      1.1871                 1.6577                10.5829

                      4                      5                      6
                      A                      A                      A
 Frequencies --    112.5942               179.8369               223.0039
 Red. masses --      5.5268                 5.6105                 5.4482
 Frc consts  --      0.0413                 0.1069                 0.1596
 IR Inten    --      0.6283                 0.0833                 0.2182

                      7                      8                      9
                      A                      A                      A
 Frequencies --    264.3778               271.5793               302.2728
 Red. masses --      7.9305                 4.6180                 7.3211
 Frc consts  --      0.3266                 0.2007                 0.3941
 IR Inten    --      2.8456                 0.4400                 5.7547

                     10                     11                     12
                      A                      A                      A
 Frequencies --    353.5222               391.8136               433.0220
 Red. masses --      4.8263                 8.6500                 3.4109
 Frc consts  --      0.3554                 0.7824                 0.3768
 IR Inten    --      0.9617                 5.8114                 3.3073

                     13                     14                     15
                      A                      A                      A
 Frequencies --    455.1865               504.9725               509.6494
 Red. masses --      4.5257                 8.6580                 3.2083
 Frc consts  --      0.5525                 1.3008                 0.4910
 IR Inten    --      2.9996                 9.4300                 0.4411

                     16                     17                     18
                      A                      A                      A
 Frequencies --    541.8247               553.9586               558.1052
 Red. masses --      8.6937                 6.4706                 3.8464
 Frc consts  --      1.5037                 1.1699                 0.7059
 IR Inten    --      7.3942                41.3710                 0.6435

                     19                     20                     21
                      A                      A                      A
 Frequencies --    568.6447               632.2675               692.5232
 Red. masses --      7.2603                 6.0219                 1.5471
 Frc consts  --      1.3832                 1.4184                 0.4372
 IR Inten    --     12.7050                56.4405                38.9769

                     22                     23                     24
                      A                      A                      A
 Frequencies --    713.9005               725.8242               743.3519
 Red. masses --      6.2939                 8.0240                 2.6373
 Frc consts  --      1.8899                 2.4906                 0.8586
 IR Inten    --      2.3033                 3.3768                13.5826

                     25                     26                     27
                      A                      A                      A
 Frequencies --    761.1213               767.6350               819.9395
 Red. masses --      1.7122                 1.6586                 6.3203
 Frc consts  --      0.5844                 0.5758                 2.5035
 IR Inten    --      3.2051                84.9088                17.3140

                     28                     29                     30
                      A                      A                      A
 Frequencies --    835.2980               867.7329               869.6834
 Red. masses --      1.7937                 1.3823                 4.3769
 Frc consts  --      0.7374                 0.6132                 1.9505
 IR Inten    --      0.0096                 0.2787                 7.7150

                     31                     32                     33
                      A                      A                      A
 Frequencies --    901.1579               904.8694               953.4137
 Red. masses --      1.2115                 1.2471                 1.3628
 Frc consts  --      0.5797                 0.6016                 0.7299
 IR Inten    --     19.5521                63.7038                 1.4497

                     34                     35                     36
                      A                      A                      A
 Frequencies --    957.6035               957.6114              1004.1811
 Red. masses --      1.3507                 5.4066                 1.2966
 Frc consts  --      0.7298                 2.9211                 0.7703
 IR Inten    --      1.3402                 1.4691                 0.0358

                     37                     38                     39
                      A                      A                      A
 Frequencies --   1048.3951              1053.3863              1085.9075
 Red. masses --      2.1150                 2.1238                 4.1419
 Frc consts  --      1.3697                 1.3885                 2.8776
 IR Inten    --      2.0926                 7.7581                 2.0060

                     40                     41                     42
                      A                      A                      A
 Frequencies --   1113.7754              1153.4056              1162.3162
 Red. masses --      1.5531                 1.3173                 1.2201
 Frc consts  --      1.1351                 1.0325                 0.9711
 IR Inten    --     33.8313                21.2325                57.6251

                     43                     44                     45
                      A                      A                      A
 Frequencies --   1179.4800              1213.5940              1253.9866
 Red. masses --      1.1496                 1.7328                 2.0806
 Frc consts  --      0.9423                 1.5037                 1.9276
 IR Inten    --     36.0691                85.8644                44.5664

                     46                     47                     48
                      A                      A                      A
 Frequencies --   1274.6069              1304.1798              1342.8750
 Red. masses --      1.9025                 1.9657                 5.7919
 Frc consts  --      1.8210                 1.9699                 6.1538
 IR Inten    --     70.6137                17.6141                 8.0459

                     49                     50                     51
                      A                      A                      A
 Frequencies --   1365.4852              1395.3478              1400.1383
 Red. masses --      5.2004                 2.7941                 2.3539
 Frc consts  --      5.7130                 3.2053                 2.7188
 IR Inten    --    157.2242                 5.2194                 2.9899

                     52                     53                     54
                      A                      A                      A
 Frequencies --   1435.8023              1481.5727              1503.6296
 Red. masses --      3.1430                 2.8745                 3.0954
 Frc consts  --      3.8175                 3.7176                 4.1234
 IR Inten    --    335.9650                 0.8591                39.0181

                     55                     56                     57
                      A                      A                      A
 Frequencies --   1529.6680              1558.3557              1578.7892
 Red. masses --      4.0078                 5.1349                 4.3308
 Frc consts  --      5.5252                 7.3471                 6.3601
 IR Inten    --     34.1772               215.0755                82.5177

                     58                     59                     60
                      A                      A                      A
 Frequencies --   1619.8774              1647.2606              1666.6189
 Red. masses --      6.5070                 6.3736                 6.8060
 Frc consts  --     10.0600                10.1896                11.1381
 IR Inten    --    205.3147                48.0747               145.5417

                     61                     62                     63
                      A                      A                      A
 Frequencies --   3137.7357              3194.3815              3212.1229
 Red. masses --      1.0879                 1.0887                 1.0865
 Frc consts  --      6.3105                 6.5452                 6.6047
 IR Inten    --    856.2588                38.5591                 1.5843

                     64                     65                     66
                      A                      A                      A
 Frequencies --   3213.5123              3222.7908              3223.6149
 Red. masses --      1.0861                 1.0923                 1.0904
 Frc consts  --      6.6083                 6.6843                 6.6762
 IR Inten    --      4.0009                14.3932                 4.4344

                     67                     68                     69
                      A                      A                      A
 Frequencies --   3233.8227              3235.5458              3240.2691
 Red. masses --      1.0956                 1.0989                 1.0995
 Frc consts  --      6.7504                 6.7780                 6.8017
 IR Inten    --      9.5050                24.8910                 9.9440

 - Thermochemistry -
 -------------------
 Temperature   298.150 Kelvin.  Pressure   1.00000 Atm.
 Atom     1 has atomic number  6 and mass  12.00000

 Molecular mass:   227.04049 amu.
 Principal axes and moments of inertia in atomic units:
                           1         2         3
     Eigenvalues --  1296.419166430.689737727.10889
           X           -0.70207   0.71211   0.00000
           Y            0.71211   0.70207  -0.00001
           Z            0.00001   0.00001   1.00000
 This molecule is an asymmetric top.
 Rotational symmetry number  1.
 Warning -- assumption of classical behavior for rotation
           may cause significant error
 Rotational temperatures (Kelvin)      0.06681     0.01347     0.01121
 Rotational constants (GHZ):           1.39210     0.28065     0.23356
 Zero-point vibrational energy     489207.8 (Joules/Mol)
                                  116.92348 (Kcal/Mol)
 Warning -- explicit consideration of  19 degrees of freedom as
           vibrations may cause significant error
 Vibrational temperatures:     33.71    56.81   160.46   162.00   258.75
          (Kelvin)            320.85   380.38   390.74   434.90   508.64
                              563.73   623.02   654.91   726.54   733.27
                              779.56   797.02   802.99   818.15   909.69
                              996.39  1027.14  1044.30  1069.52  1095.08
                             1104.46  1179.71  1201.81  1248.47  1251.28
                             1296.57  1301.91  1371.75  1377.78  1377.79
                             1444.79  1508.41  1515.59  1562.38  1602.47
                             1659.49  1672.31  1697.01  1746.09  1804.21
                             1833.88  1876.42  1932.10  1964.63  2007.59
                             2014.49  2065.80  2131.65  2163.39  2200.85
                             2242.13  2271.53  2330.64  2370.04  2397.89
                             4514.50  4596.00  4621.53  4623.53  4636.88
                             4638.06  4652.75  4655.23  4662.02

 Zero-point correction=                           0.186329 (Hartree/Particle)
 Thermal correction to Energy=                    0.198760
 Thermal correction to Enthalpy=                  0.199704
 Thermal correction to Gibbs Free Energy=         0.146033
 Sum of electronic and zero-point Energies=          -1028.514578
 Sum of electronic and thermal Energies=             -1028.502148
 Sum of electronic and thermal Enthalpies=           -1028.501203
 Sum of electronic and thermal Free Energies=        -1028.554875

                     E (Thermal)             CV                S
                      KCal/Mol        Cal/Mol-Kelvin    Cal/Mol-Kelvin
 Total                  124.724             49.506            112.960
 Electronic               0.000              0.000              0.000
 Translational            0.889              2.981             42.162
 Rotational               0.889              2.981             32.532
 Vibrational            122.946             43.544             38.266
 Vibration     1          0.593              1.985              6.320
 Vibration     2          0.594              1.981              5.285
 Vibration     3          0.607              1.940              3.242
 Vibration     4          0.607              1.939              3.224
 Vibration     5          0.629              1.867              2.330
 Vibration     6          0.649              1.806              1.935
 Vibration     7          0.671              1.738              1.633
 Vibration     8          0.675              1.726              1.586
 Vibration     9          0.694              1.669              1.404
 Vibration    10          0.730              1.568              1.150
 Vibration    11          0.759              1.488              0.993
 Vibration    12          0.794              1.398              0.849
 Vibration    13          0.814              1.349              0.780
 Vibration    14          0.860              1.239              0.646
 Vibration    15          0.865              1.229              0.634
 Vibration    16          0.897              1.158              0.561
 Vibration    17          0.909              1.131              0.536
 Vibration    18          0.914              1.122              0.528
 Vibration    19          0.925              1.099              0.507

                           ! Non-Optimized Parameters !
 Normal termination of Gaussian 16 at Mon Jul 13 16:31:37 2020.
