 Gaussian 16, Revision C.01,
 Gaussian 16:  ES64L-G16RevC.01  3-Jul-2019

 ----------------------------------------------------------------------
 #p opt=addgic freq td wb97xd/cc-pvdz nosymm int=ultrafine scrf=(solven
 t=CarbonTetraChloride)
 ----------------------------------------------------------------------

 ------------------------------------------------
 NM 2D-scan of HBT TD-WB97XD pVDZ in CTC Relaxed.
 ------------------------------------------------
 Symbolic Z-matrix:
 Charge =  0 Multiplicity = 1

 SCF Done:  E(RwB97XD) =  -1028.81722319     A.U. after   15 cycles
 Total Energy, E(TD-HF/TD-DFT) =  -1028.69141910
 SCF Done:  E(RwB97XD) =  -1028.81715946     A.U. after   10 cycles
 Total Energy, E(TD-HF/TD-DFT) =  -1028.69146064
 SCF Done:  E(RwB97XD) =  -1028.81716454     A.U. after   10 cycles
 Total Energy, E(TD-HF/TD-DFT) =  -1028.69147032
 SCF Done:  E(RwB97XD) =  -1028.81704754     A.U. after   10 cycles
 Total Energy, E(TD-HF/TD-DFT) =  -1028.69148692
 Optimization completed.
    -- Stationary point found.
 Normal termination of Gaussian 16 at Mon Jul 13 13:51:45 2020.

 ----------------------------------------------------------------------
 #P Geom=AllCheck Guess=TCheck SCRF=Check GenChk RwB97XD TD(FC,Read)/CC
 -pVDZ Freq
 ----------------------------------------------------------------------

 Structure from the checkpoint file:  "config_5_12.chk"
 ------------------------------------------------
 NM 2D-scan of HBT TD-WB97XD pVDZ in CTC Relaxed.
 ------------------------------------------------
 Charge =  0 Multiplicity = 1

                          Input orientation:
 ---------------------------------------------------------------------
 Center     Atomic      Atomic             Coordinates (Angstroms)
 Number     Number       Type             X           Y           Z
 ---------------------------------------------------------------------
      1          6           0        1.604714   -3.260353   -0.000031
      2          6           0        0.997777   -2.009711   -0.000020
      3          6           0        1.746449   -0.794052   -0.000015
      4          6           0        3.158933   -0.882005   -0.000023
      5          6           0        3.754284   -2.134279   -0.000033
      6          6           0        2.994881   -3.319180   -0.000037
      7          1           0        1.002908   -4.169670   -0.000034
      8          1           0        3.757354    0.029316   -0.000019
      9          1           0        4.843566   -2.202799   -0.000038
     10          1           0        3.496848   -4.287323   -0.000045
     11          7           0        0.983757    0.324581   -0.000004
     12         16           0       -0.716379   -1.674824   -0.000011
     13          6           0       -1.343055    1.046474    0.000028
     14          6           0       -2.726249    0.781284    0.000032
     15          6           0       -0.901492    2.450400    0.000039
     16          6           0       -3.647133    1.827805    0.000028
     17          1           0       -3.078137   -0.251314    0.000031
     18          6           0       -1.864730    3.480983    0.000027
     19          6           0       -3.225219    3.173900    0.000021
     20          1           0       -4.713816    1.598559    0.000026
     21          1           0       -1.508762    4.511502    0.000030
     22          1           0       -3.965193    3.974426    0.000014
     23          6           0       -0.349007    0.045607    0.000006
     24          8           0        0.373385    2.701039    0.000064
     25          1           0        0.906155    1.732631    0.000069
 ---------------------------------------------------------------------

 SCF Done:  E(RwB97XD) =  -1028.81704754     A.U. after    1 cycles

 Excitation energies and oscillator strengths:

 Excited state symmetry could not be determined.
 Excited State   1:      Singlet-?Sym    3.4167 eV  362.88 nm  f=0.5816  <S**2>=0.000
      59 -> 60         0.69111
 This state for optimization and/or second-order correction.
 Total Energy, E(TD-HF/TD-DFT) =  -1028.69148690
 Copying the excited state density for this state as the 1-particle RhoCI density.

 Excited state symmetry could not be determined.
 Excited State   2:      Singlet-?Sym    4.3894 eV  282.46 nm  f=0.2807  <S**2>=0.000
      57 -> 60         0.17877
      58 -> 60         0.64627
      59 -> 62         0.10365
      59 -> 64         0.10685

 Excited state symmetry could not be determined.
 Excited State   3:      Singlet-?Sym    4.6876 eV  264.50 nm  f=0.0681  <S**2>=0.000
      55 -> 61        -0.10040
      57 -> 60         0.58538
      57 -> 62        -0.14886
      58 -> 60        -0.17978
      58 -> 61        -0.16007
      59 -> 61         0.21978

 Alpha  occ. eigenvalues --  -89.09201 -19.26667 -14.47991 -10.40067 -10.37681
 Alpha  occ. eigenvalues --  -10.35665 -10.34939 -10.32325 -10.32139 -10.31933
 Alpha  occ. eigenvalues --  -10.31836 -10.31827 -10.31595 -10.31549 -10.30212
 Alpha  occ. eigenvalues --  -10.30074  -8.11231  -6.06074  -6.05729  -6.05287
 Alpha  occ. eigenvalues --   -1.15635  -1.08855  -0.96938  -0.95750  -0.92294
 Alpha  occ. eigenvalues --   -0.88864  -0.85302  -0.84128  -0.82425  -0.75907
 Alpha  occ. eigenvalues --   -0.71220  -0.70535  -0.68993  -0.68048  -0.63559
 Alpha  occ. eigenvalues --   -0.60684  -0.59058  -0.58432  -0.55726  -0.54383
 Alpha  occ. eigenvalues --   -0.54237  -0.53277  -0.52994  -0.50883  -0.50070
 Alpha  occ. eigenvalues --   -0.49643  -0.47138  -0.46132  -0.45636  -0.44864
 Alpha  occ. eigenvalues --   -0.44133  -0.42649  -0.42632  -0.40332  -0.36510
 Alpha  occ. eigenvalues --   -0.36441  -0.32346  -0.31301  -0.27932
 Alpha virt. eigenvalues --   -0.01725   0.04861   0.06792   0.07454   0.07551
 Alpha virt. eigenvalues --    0.10893   0.14331   0.15103   0.16587   0.17972
 Alpha virt. eigenvalues --    0.18668   0.21045   0.21650   0.22451   0.22463

 Mulliken charges:
               1
     1  C    0.019260
     2  C   -0.227038
     3  C    0.247852
     4  C   -0.018409
     5  C    0.006986
     6  C   -0.002688
     7  H    0.018699
     8  H    0.020818
     9  H    0.020660
    10  H    0.021449
    11  N   -0.350658
    12  S    0.169959
    13  C   -0.092599
    14  C   -0.024394
    15  C    0.108765
    16  C   -0.018580
    17  H    0.015173
    18  C   -0.005374
    19  C    0.025693
    20  H    0.008950
    21  H    0.015528
    22  H    0.021559
    23  C    0.081631
    24  O   -0.271230
    25  H    0.207989
 Sum of Mulliken charges =  -0.00000

 Dipole moment (field-independent basis, Debye):
    X=             -0.1225    Y=             -2.8716    Z=             -0.0000  Tot=              2.8742
 Quadrupole moment (field-independent basis, Debye-Ang):
   XX=            -83.2106   YY=            -90.3910   ZZ=           -104.2595
   XY=             -7.0349   XZ=             -0.0001   YZ=             -0.0000

  Exact polarizability:     380.180    -166.455     349.943      -0.002       0.003      63.286
 Approx polarizability:     275.378     -35.133     259.218      -0.001       0.001      82.320

 ******    1 imaginary frequencies (negative Signs) ******

                      1                      2                      3
                      A                      A                      A
 Frequencies --   -299.5171                41.5564                52.6790
 Red. masses --      2.2418                 5.5169                 6.7671
 Frc consts  --      0.1185                 0.0056                 0.0111
 IR Inten    --     83.4836                 0.8900                 0.6719

                      4                      5                      6
                      A                      A                      A
 Frequencies --    108.1823               175.3563               175.4018
 Red. masses --      5.0948                 5.2774                 6.1503
 Frc consts  --      0.0351                 0.0956                 0.1115
 IR Inten    --      0.0381                16.5015                 1.0286

                      7                      8                      9
                      A                      A                      A
 Frequencies --    221.9359               272.1546               273.1961
 Red. masses --      5.3417                 4.7653                 7.4407
 Frc consts  --      0.1550                 0.2080                 0.3272
 IR Inten    --      0.0246                 0.0736                20.8698

                     10                     11                     12
                      A                      A                      A
 Frequencies --    378.3010               403.5617               438.2578
 Red. masses --      4.7187                 6.8426                 3.2070
 Frc consts  --      0.3979                 0.6566                 0.3629
 IR Inten    --      0.1538                 7.7690                 4.4181

                     13                     14                     15
                      A                      A                      A
 Frequencies --    438.6632               480.6700               499.7203
 Red. masses --      5.7904                 4.7561                 3.1680
 Frc consts  --      0.6565                 0.6474                 0.4661
 IR Inten    --      4.9387                 0.0000                 0.1758

                     16                     17                     18
                      A                      A                      A
 Frequencies --    505.5237               535.7549               557.1228
 Red. masses --      8.7904                 8.1213                 3.9139
 Frc consts  --      1.3236                 1.3734                 0.7157
 IR Inten    --      0.2462                26.5965                 0.1735

                     19                     20                     21
                      A                      A                      A
 Frequencies --    577.2418               634.6264               704.2999
 Red. masses --      7.5953                 6.7694                 1.6289
 Frc consts  --      1.4911                 1.6063                 0.4761
 IR Inten    --      1.9664                26.0724                46.7078

                     22                     23                     24
                      A                      A                      A
 Frequencies --    713.8534               740.0927               740.2245
 Red. masses --      6.6577                10.0076                 1.9234
 Frc consts  --      1.9989                 3.2296                 0.6210
 IR Inten    --      0.5733                20.4993                29.1029

                     25                     26                     27
                      A                      A                      A
 Frequencies --    754.6050               767.7926               812.4122
 Red. masses --      1.8796                 2.0315                 1.7283
 Frc consts  --      0.6306                 0.7056                 0.6721
 IR Inten    --     24.6093                54.2239                 0.2177

                     28                     29                     30
                      A                      A                      A
 Frequencies --    823.7638               861.1169               883.5797
 Red. masses --      6.0273                 1.4136                 5.1502
 Frc consts  --      2.4098                 0.6176                 2.3690
 IR Inten    --     12.6894                 0.9831               133.1356

                     31                     32                     33
                      A                      A                      A
 Frequencies --    908.4298               951.4616               952.3091
 Red. masses --      1.3610                 4.8424                 1.3476
 Frc consts  --      0.6618                 2.5828                 0.7201
 IR Inten    --      4.8432                14.0513                 1.8422

                     34                     35                     36
                      A                      A                      A
 Frequencies --    960.2558               999.0140              1019.9752
 Red. masses --      1.3777                 1.2989                 4.3615
 Frc consts  --      0.7485                 0.7638                 2.6734
 IR Inten    --      0.2276                 0.0001                 2.1323

                     37                     38                     39
                      A                      A                      A
 Frequencies --   1039.0843              1050.3908              1094.0881
 Red. masses --      2.1118                 1.8748                 4.4090
 Frc consts  --      1.3434                 1.2187                 3.1095
 IR Inten    --      0.8066                 4.6146                57.1335

                     40                     41                     42
                      A                      A                      A
 Frequencies --   1138.4431              1157.1349              1174.3843
 Red. masses --      1.4111                 1.3920                 1.1479
 Frc consts  --      1.0775                 1.0982                 0.9328
 IR Inten    --     42.6485                22.4711                34.3057

                     43                     44                     45
                      A                      A                      A
 Frequencies --   1180.6071              1181.6576              1247.5084
 Red. masses --      1.1732                 1.0531                 1.9143
 Frc consts  --      0.9635                 0.8664                 1.7553
 IR Inten    --     76.5620                65.4187               101.9401

                     46                     47                     48
                      A                      A                      A
 Frequencies --   1259.9551              1290.5410              1368.3741
 Red. masses --      3.0685                 1.9818                 4.1405
 Frc consts  --      2.8700                 1.9447                 4.5678
 IR Inten    --     55.0691                10.4668                 7.8300

                     49                     50                     51
                      A                      A                      A
 Frequencies --   1375.6407              1404.0592              1416.1528
 Red. masses --      3.0376                 2.3923                 2.6834
 Frc consts  --      3.3868                 2.7787                 3.1707
 IR Inten    --    278.2678                 1.9924               119.1323

                     52                     53                     54
                      A                      A                      A
 Frequencies --   1447.4557              1478.7849              1521.1591
 Red. masses --      3.7092                 3.0537                 4.2324
 Frc consts  --      4.5786                 3.9345                 5.7702
 IR Inten    --    332.6637               144.5165                96.3325

                     55                     56                     57
                      A                      A                      A
 Frequencies --   1534.3160              1545.9374              1571.8909
 Red. masses --      4.4942                 4.4759                 5.8336
 Frc consts  --      6.2335                 6.3025                 8.4925
 IR Inten    --    155.4911                85.4041               483.0733

                     58                     59                     60
                      A                      A                      A
 Frequencies --   1616.0117              1648.0292              1657.5069
 Red. masses --      5.9996                 5.9928                 4.5674
 Frc consts  --      9.2313                 9.5898                 7.3932
 IR Inten    --    296.6616               897.0190               365.7153

                     61                     62                     63
                      A                      A                      A
 Frequencies --   1810.3376              3209.3002              3212.2836
 Red. masses --      1.1095                 1.0862                 1.0864
 Frc consts  --      2.1423                 6.5915                 6.6052
 IR Inten    --     82.0832                 8.8789                10.1418

                     64                     65                     66
                      A                      A                      A
 Frequencies --   3220.4121              3223.0524              3230.6740
 Red. masses --      1.0900                 1.0890                 1.0939
 Frc consts  --      6.6605                 6.6652                 6.7272
 IR Inten    --      2.9215                 5.6268                15.2122

                     67                     68                     69
                      A                      A                      A
 Frequencies --   3232.0772              3238.1981              3242.3615
 Red. masses --      1.0952                 1.0991                 1.0982
 Frc consts  --      6.7406                 6.7904                 6.8023
 IR Inten    --     10.3760                32.6960                20.5665

 - Thermochemistry -
 -------------------
 Temperature   298.150 Kelvin.  Pressure   1.00000 Atm.
 Atom     1 has atomic number  6 and mass  12.00000

 Molecular mass:   227.04049 amu.
 Principal axes and moments of inertia in atomic units:
                           1         2         3
     Eigenvalues --  1295.712446303.855617599.56804
           X           -0.70430   0.70990   0.00000
           Y            0.70990   0.70430  -0.00001
           Z            0.00001   0.00001   1.00000
 This molecule is an asymmetric top.
 Rotational symmetry number  1.
 Warning -- assumption of classical behavior for rotation
           may cause significant error
 Rotational temperatures (Kelvin)      0.06685     0.01374     0.01140
 Rotational constants (GHZ):           1.39286     0.28629     0.23748
    1 imaginary frequencies ignored.
 Zero-point vibrational energy     480784.6 (Joules/Mol)
                                  114.91027 (Kcal/Mol)
 Warning -- explicit consideration of  18 degrees of freedom as
           vibrations may cause significant error
 Vibrational temperatures:     59.79    75.79   155.65   252.30   252.36
          (Kelvin)            319.32   391.57   393.07   544.29   580.64
                              630.56   631.14   691.58   718.99   727.34
                              770.83   801.58   830.52   913.09  1013.33
                             1027.08  1064.83  1065.02  1085.71  1104.68
                             1168.88  1185.21  1238.96  1271.27  1307.03
                             1368.94  1370.16  1381.59  1437.36  1467.52
                             1495.01  1511.28  1574.15  1637.97  1664.86
                             1689.68  1698.63  1700.14  1794.89  1812.79
                             1856.80  1968.79  1979.24  2020.13  2037.53
                             2082.57  2127.64  2188.61  2207.54  2224.26
                             2261.60  2325.08  2371.15  2384.78  2604.67
                             4617.47  4621.76  4633.45  4637.25  4648.22
                             4650.24  4659.04  4665.03

 Zero-point correction=                           0.183121 (Hartree/Particle)
 Thermal correction to Energy=                    0.194966
 Thermal correction to Enthalpy=                  0.195910
 Thermal correction to Gibbs Free Energy=         0.144104
 Sum of electronic and zero-point Energies=          -1028.508366
 Sum of electronic and thermal Energies=             -1028.496521
 Sum of electronic and thermal Enthalpies=           -1028.495576
 Sum of electronic and thermal Free Energies=        -1028.547383

                     E (Thermal)             CV                S
                      KCal/Mol        Cal/Mol-Kelvin    Cal/Mol-Kelvin
 Total                  122.343             47.740            109.036
 Electronic               0.000              0.000              0.000
 Translational            0.889              2.981             42.162
 Rotational               0.889              2.981             32.495
 Vibrational            120.566             41.779             34.378
 Vibration     1          0.594              1.981              5.183
 Vibration     2          0.596              1.977              4.714
 Vibration     3          0.606              1.943              3.301
 Vibration     4          0.627              1.873              2.377
 Vibration     5          0.627              1.873              2.377
 Vibration     6          0.648              1.808              1.943
 Vibration     7          0.675              1.725              1.582
 Vibration     8          0.676              1.723              1.576
 Vibration     9          0.749              1.516              1.046
 Vibration    10          0.769              1.462              0.950
 Vibration    11          0.798              1.387              0.832
 Vibration    12          0.799              1.386              0.831
 Vibration    13          0.837              1.293              0.708
 Vibration    14          0.855              1.251              0.659
 Vibration    15          0.861              1.238              0.644
 Vibration    16          0.891              1.171              0.574
 Vibration    17          0.913              1.124              0.530
 Vibration    18          0.934              1.080              0.490

 Optimization completed.
    -- Stationary point found.
 Normal termination of Gaussian 16 at Mon Jul 13 14:09:19 2020.
