 Gaussian 16, Revision C.01,
 Gaussian 16:  ES64L-G16RevC.01  3-Jul-2019

 ----------------------------------------------------------------------
 #p opt=addgic freq td wb97xd/cc-pvdz nosymm int=ultrafine scrf=(solven
 t=CarbonTetraChloride)
 ----------------------------------------------------------------------

 ------------------------------------------------
 NM 2D-scan of HBT TD-WB97XD pVDZ in CTC Relaxed.
 ------------------------------------------------
 Symbolic Z-matrix:
 Charge =  0 Multiplicity = 1

 SCF Done:  E(RwB97XD) =  -1028.80919953     A.U. after   15 cycles
 Total Energy, E(TD-HF/TD-DFT) =  -1028.68031566
 SCF Done:  E(RwB97XD) =  -1028.81425912     A.U. after   12 cycles
 Total Energy, E(TD-HF/TD-DFT) =  -1028.68551989
 SCF Done:  E(RwB97XD) =  -1028.81463739     A.U. after   12 cycles
 Total Energy, E(TD-HF/TD-DFT) =  -1028.68596077
 SCF Done:  E(RwB97XD) =  -1028.81435020     A.U. after   11 cycles
 Total Energy, E(TD-HF/TD-DFT) =  -1028.68635575
 SCF Done:  E(RwB97XD) =  -1028.81443961     A.U. after    9 cycles
 Total Energy, E(TD-HF/TD-DFT) =  -1028.68636064
 SCF Done:  E(RwB97XD) =  -1028.81444905     A.U. after    9 cycles
 Total Energy, E(TD-HF/TD-DFT) =  -1028.68636130
 SCF Done:  E(RwB97XD) =  -1028.81446033     A.U. after    8 cycles
 Total Energy, E(TD-HF/TD-DFT) =  -1028.68636129
 SCF Done:  E(RwB97XD) =  -1028.81446506     A.U. after    7 cycles
 Total Energy, E(TD-HF/TD-DFT) =  -1028.68636140
 Optimization completed.
    -- Stationary point found.
 Normal termination of Gaussian 16 at Tue Jul 14 16:56:41 2020.

 ----------------------------------------------------------------------
 #P Geom=AllCheck Guess=TCheck SCRF=Check GenChk RwB97XD TD(FC,Read)/CC
 -pVDZ Freq
 ----------------------------------------------------------------------

 Structure from the checkpoint file:  "config_3_20.chk"
 ------------------------------------------------
 NM 2D-scan of HBT TD-WB97XD pVDZ in CTC Relaxed.
 ------------------------------------------------
 Charge =  0 Multiplicity = 1

                          Input orientation:
 ---------------------------------------------------------------------
 Center     Atomic      Atomic             Coordinates (Angstroms)
 Number     Number       Type             X           Y           Z
 ---------------------------------------------------------------------
      1          6           0        1.493659   -3.253988   -0.000067
      2          6           0        0.992501   -1.957608   -0.000054
      3          6           0        1.810793   -0.779141   -0.000011
      4          6           0        3.217663   -0.992402    0.000010
      5          6           0        3.710631   -2.291185   -0.000002
      6          6           0        2.869866   -3.424027   -0.000038
      7          1           0        0.813213   -4.106403   -0.000095
      8          1           0        3.896578   -0.138823    0.000040
      9          1           0        4.792132   -2.440721    0.000018
     10          1           0        3.300229   -4.426140   -0.000043
     11          7           0        1.108389    0.385921    0.000010
     12         16           0       -0.685197   -1.548482   -0.000075
     13          6           0       -1.273694    1.090836    0.000040
     14          6           0       -2.637825    0.703472    0.000085
     15          6           0       -0.942182    2.510443    0.000022
     16          6           0       -3.637049    1.662129    0.000067
     17          1           0       -2.902556   -0.353790    0.000130
     18          6           0       -1.981647    3.459241    0.000003
     19          6           0       -3.315371    3.037279    0.000017
     20          1           0       -4.682669    1.350457    0.000092
     21          1           0       -1.722113    4.518330   -0.000025
     22          1           0       -4.115810    3.778154   -0.000004
     23          6           0       -0.236983    0.145481   -0.000005
     24          8           0        0.328682    2.828440    0.000011
     25          1           0        0.895863    1.950839   -0.000004
 ---------------------------------------------------------------------

 SCF Done:  E(RwB97XD) =  -1028.81446506     A.U. after    1 cycles

 Excitation energies and oscillator strengths:

 Excited state symmetry could not be determined.
 Excited State   1:      Singlet-?Sym    3.4859 eV  355.68 nm  f=0.6573  <S**2>=0.000
      59 -> 60         0.68893
 This state for optimization and/or second-order correction.
 Total Energy, E(TD-HF/TD-DFT) =  -1028.68636139
 Copying the excited state density for this state as the 1-particle RhoCI density.

 Excited state symmetry could not be determined.
 Excited State   2:      Singlet-?Sym    4.3716 eV  283.61 nm  f=0.1345  <S**2>=0.000
      57 -> 60         0.28527
      58 -> 60         0.59939
      59 -> 62         0.10670

 Excited state symmetry could not be determined.
 Excited State   3:      Singlet-?Sym    4.6159 eV  268.60 nm  f=0.1210  <S**2>=0.000
      57 -> 60         0.56435
      57 -> 62        -0.13728
      58 -> 60        -0.28399
      58 -> 61        -0.11069
      59 -> 61         0.18953

 Alpha  occ. eigenvalues --  -89.08573 -19.28228 -14.47682 -10.39583 -10.38078
 Alpha  occ. eigenvalues --  -10.35499 -10.34447 -10.32292 -10.32160 -10.32085
 Alpha  occ. eigenvalues --  -10.31971 -10.31733 -10.31396 -10.31350 -10.30680
 Alpha  occ. eigenvalues --  -10.30557  -8.10708  -6.05535  -6.05194  -6.04774
 Alpha  occ. eigenvalues --   -1.16830  -1.08227  -0.96892  -0.95954  -0.92335
 Alpha  occ. eigenvalues --   -0.88805  -0.85162  -0.84586  -0.82276  -0.75952
 Alpha  occ. eigenvalues --   -0.71431  -0.70422  -0.69148  -0.67940  -0.63746
 Alpha  occ. eigenvalues --   -0.60544  -0.59006  -0.58811  -0.56046  -0.54501
 Alpha  occ. eigenvalues --   -0.53983  -0.53590  -0.52980  -0.50515  -0.50446
 Alpha  occ. eigenvalues --   -0.49291  -0.47202  -0.46010  -0.45730  -0.44850
 Alpha  occ. eigenvalues --   -0.44194  -0.42985  -0.42158  -0.40099  -0.37371
 Alpha  occ. eigenvalues --   -0.36459  -0.31944  -0.31608  -0.28214
 Alpha virt. eigenvalues --   -0.01808   0.05100   0.06775   0.07172   0.08070
 Alpha virt. eigenvalues --    0.11034   0.14557   0.15258   0.17316   0.17977
 Alpha virt. eigenvalues --    0.18729   0.21233   0.21443   0.22380   0.22615

 Mulliken charges:
               1
     1  C    0.023768
     2  C   -0.216233
     3  C    0.214625
     4  C   -0.023680
     5  C    0.002720
     6  C   -0.002456
     7  H    0.016765
     8  H    0.019070
     9  H    0.019258
    10  H    0.020158
    11  N   -0.373727
    12  S    0.160005
    13  C   -0.074273
    14  C   -0.030763
    15  C    0.096686
    16  C   -0.009962
    17  H    0.027300
    18  C   -0.002702
    19  C    0.023404
    20  H    0.011124
    21  H    0.019843
    22  H    0.023690
    23  C    0.088844
    24  O   -0.225130
    25  H    0.191668
 Sum of Mulliken charges =  -0.00000

 Dipole moment (field-independent basis, Debye):
    X=             -0.7573    Y=             -2.3660    Z=             -0.0000  Tot=              2.4842
 Quadrupole moment (field-independent basis, Debye-Ang):
   XX=            -83.1443   YY=            -89.8784   ZZ=           -104.2476
   XY=             -7.1781   XZ=             -0.0000   YZ=             -0.0001

  Exact polarizability:     390.821    -184.556     374.998      -0.002       0.004      63.268
 Approx polarizability:     275.995     -35.499     258.482       0.000       0.001      82.346

                      1                      2                      3
                      A                      A                      A
 Frequencies --     40.8571                49.7243               105.4690
 Red. masses --      4.9861                 6.7776                 5.5574
 Frc consts  --      0.0049                 0.0099                 0.0364
 IR Inten    --      0.0770                 1.4332                 2.1626

                      4                      5                      6
                      A                      A                      A
 Frequencies --    110.2954               176.0741               224.3427
 Red. masses --      5.2509                 6.3730                 5.2493
 Frc consts  --      0.0376                 0.1164                 0.1557
 IR Inten    --      0.0783                 1.5394                 0.0000

                      7                      8                      9
                      A                      A                      A
 Frequencies --    269.6869               274.7887               300.4362
 Red. masses --      7.5699                 4.8345                 6.4520
 Frc consts  --      0.3244                 0.2151                 0.3431
 IR Inten    --     29.9580                 0.0029                 4.9854

                     10                     11                     12
                      A                      A                      A
 Frequencies --    384.4656               418.0785               442.1954
 Red. masses --      4.5464                 9.7588                 3.2158
 Frc consts  --      0.3959                 1.0050                 0.3705
 IR Inten    --      0.0391                15.7919                 3.8183

                     13                     14                     15
                      A                      A                      A
 Frequencies --    483.8792               505.0416               506.9341
 Red. masses --      4.5575                 8.4975                 3.1535
 Frc consts  --      0.6287                 1.2770                 0.4775
 IR Inten    --      0.0975                 0.1121                 0.0003

                     16                     17                     18
                      A                      A                      A
 Frequencies --    514.5146               533.3259               556.9187
 Red. masses --      5.2066                 7.0449                 3.9138
 Frc consts  --      0.8121                 1.1806                 0.7152
 IR Inten    --      9.3034                65.9585                 0.1605

                     19                     20                     21
                      A                      A                      A
 Frequencies --    574.7778               643.8683               715.9271
 Red. masses --      7.6903                 6.6623                 1.4737
 Frc consts  --      1.4969                 1.6273                 0.4450
 IR Inten    --     19.7720                20.5241                69.5546

                     22                     23                     24
                      A                      A                      A
 Frequencies --    723.6633               728.5899               737.2050
 Red. masses --      8.1198                 7.8731                 2.0221
 Frc consts  --      2.5054                 2.4624                 0.6475
 IR Inten    --     21.1118                35.5848                27.1641

                     25                     26                     27
                      A                      A                      A
 Frequencies --    741.9884               769.7008               805.1212
 Red. masses --      1.7915                 2.2902                 1.8501
 Frc consts  --      0.5811                 0.7994                 0.7066
 IR Inten    --     13.3392                46.4390                 4.5652

                     28                     29                     30
                      A                      A                      A
 Frequencies --    829.2895               860.9730               886.4523
 Red. masses --      6.0958                 1.4258                 6.4996
 Frc consts  --      2.4700                 0.6227                 3.0092
 IR Inten    --     12.7714                 1.0147                71.6650

                     31                     32                     33
                      A                      A                      A
 Frequencies --    912.8037               953.0988               963.6604
 Red. masses --      1.3527                 1.3466                 1.3619
 Frc consts  --      0.6641                 0.7207                 0.7452
 IR Inten    --      5.1883                 1.9846                 0.0001

                     34                     35                     36
                      A                      A                      A
 Frequencies --    977.8514               998.9726              1035.3832
 Red. masses --      7.5779                 1.3060                 2.0609
 Frc consts  --      4.2692                 0.7679                 1.3017
 IR Inten    --     16.4776                 0.0016                 3.7957

                     37                     38                     39
                      A                      A                      A
 Frequencies --   1044.4700              1060.0996              1095.4482
 Red. masses --      2.1056                 1.0573                 3.5166
 Frc consts  --      1.3533                 0.7001                 2.4863
 IR Inten    --      0.7519                67.0850                83.8289

                     40                     41                     42
                      A                      A                      A
 Frequencies --   1135.8591              1154.2936              1174.0745
 Red. masses --      1.4696                 1.3990                 1.1079
 Frc consts  --      1.1171                 1.0982                 0.8998
 IR Inten    --     65.0237                20.1527                 4.1110

                     43                     44                     45
                      A                      A                      A
 Frequencies --   1180.6966              1219.6297              1245.2689
 Red. masses --      1.2812                 3.1641                 2.3998
 Frc consts  --      1.0523                 2.7730                 2.1926
 IR Inten    --     25.7081                75.1322                96.4842

                     46                     47                     48
                      A                      A                      A
 Frequencies --   1279.4853              1302.9618              1366.6780
 Red. masses --      1.9999                 3.0112                 4.9298
 Frc consts  --      1.9290                 3.0120                 5.4252
 IR Inten    --      9.4556                83.1065               148.3240

                     49                     50                     51
                      A                      A                      A
 Frequencies --   1368.6064              1400.4694              1437.5733
 Red. masses --      2.4578                 2.6513                 2.7465
 Frc consts  --      2.7123                 3.0638                 3.3442
 IR Inten    --     68.8079                19.5414               188.5540

                     52                     53                     54
                      A                      A                      A
 Frequencies --   1466.3215              1492.3188              1536.6395
 Red. masses --      3.5251                 3.0923                 4.0049
 Frc consts  --      4.4656                 4.0575                 5.5717
 IR Inten    --     34.1756                56.2906               239.2339

                     55                     56                     57
                      A                      A                      A
 Frequencies --   1552.4036              1585.8488              1599.6460
 Red. masses --      4.5108                 7.0937                 5.4782
 Frc consts  --      6.4049                10.5111                 8.2592
 IR Inten    --     51.8217                19.0466                19.0218

                     58                     59                     60
                      A                      A                      A
 Frequencies --   1610.9283              1641.3506              1692.0621
 Red. masses --      6.4131                 5.7895                 1.2719
 Frc consts  --      9.8056                 9.1896                 2.1455
 IR Inten    --   1197.9805               247.3931               133.6106

                     61                     62                     63
                      A                      A                      A
 Frequencies --   2326.1064              3204.7825              3213.7806
 Red. masses --      1.1148                 1.0862                 1.0861
 Frc consts  --      3.5538                 6.5729                 6.6093
 IR Inten    --    183.4974                 8.5069                 3.6959

                     64                     65                     66
                      A                      A                      A
 Frequencies --   3214.6991              3223.1661              3225.6426
 Red. masses --      1.0899                 1.0886                 1.0951
 Frc consts  --      6.6361                 6.6635                 6.7133
 IR Inten    --      1.7941                15.7977                11.3572

                     67                     68                     69
                      A                      A                      A
 Frequencies --   3232.3284              3233.4662              3239.6695
 Red. masses --      1.0947                 1.0994                 1.0984
 Frc consts  --      6.7387                 6.7722                 6.7925
 IR Inten    --      7.0795                39.7021                25.1851

 - Thermochemistry -
 -------------------
 Temperature   298.150 Kelvin.  Pressure   1.00000 Atm.
 Atom     1 has atomic number  6 and mass  12.00000

 Molecular mass:   227.04049 amu.
 Principal axes and moments of inertia in atomic units:
                           1         2         3
     Eigenvalues --  1281.015446301.768047582.78348
           X           -0.70312   0.71108  -0.00000
           Y            0.71108   0.70312  -0.00001
           Z            0.00001   0.00001   1.00000
 This molecule is an asymmetric top.
 Rotational symmetry number  1.
 Warning -- assumption of classical behavior for rotation
           may cause significant error
 Rotational temperatures (Kelvin)      0.06761     0.01374     0.01142
 Rotational constants (GHZ):           1.40884     0.28639     0.23801
 Zero-point vibrational energy     487556.8 (Joules/Mol)
                                  116.52887 (Kcal/Mol)
 Warning -- explicit consideration of  19 degrees of freedom as
           vibrations may cause significant error
 Vibrational temperatures:     58.78    71.54   151.75   158.69   253.33
          (Kelvin)            322.78   388.02   395.36   432.26   553.16
                              601.52   636.22   696.19   726.64   729.37
                              740.27   767.34   801.28   826.98   926.38
                             1030.06  1041.19  1048.28  1060.67  1067.56
                             1107.43  1158.39  1193.16  1238.75  1275.41
                             1313.32  1371.30  1386.49  1406.91  1437.30
                             1489.69  1502.76  1525.25  1576.11  1634.25
                             1660.77  1689.23  1698.76  1754.78  1791.66
                             1840.89  1874.67  1966.34  1969.12  2014.96
                             2068.35  2109.71  2147.11  2210.88  2233.56
                             2281.68  2301.53  2317.77  2361.54  2434.50
                             3346.75  4610.97  4623.91  4625.23  4637.42
                             4640.98  4650.60  4652.24  4661.16

 Zero-point correction=                           0.185701 (Hartree/Particle)
 Thermal correction to Energy=                    0.197981
 Thermal correction to Enthalpy=                  0.198925
 Thermal correction to Gibbs Free Energy=         0.146122
 Sum of electronic and zero-point Energies=          -1028.500661
 Sum of electronic and thermal Energies=             -1028.488381
 Sum of electronic and thermal Enthalpies=           -1028.487437
 Sum of electronic and thermal Free Energies=        -1028.540239

                     E (Thermal)             CV                S
                      KCal/Mol        Cal/Mol-Kelvin    Cal/Mol-Kelvin
 Total                  124.235             49.068            111.132
 Electronic               0.000              0.000              0.000
 Translational            0.889              2.981             42.162
 Rotational               0.889              2.981             32.482
 Vibrational            122.457             43.107             36.488
 Vibration     1          0.594              1.981              5.217
 Vibration     2          0.595              1.978              4.828
 Vibration     3          0.605              1.945              3.351
 Vibration     4          0.606              1.941              3.264
 Vibration     5          0.628              1.872              2.370
 Vibration     6          0.649              1.804              1.924
 Vibration     7          0.674              1.729              1.598
 Vibration     8          0.677              1.720              1.566
 Vibration     9          0.693              1.673              1.414
 Vibration    10          0.753              1.503              1.022
 Vibration    11          0.781              1.431              0.899
 Vibration    12          0.802              1.378              0.820
 Vibration    13          0.840              1.286              0.700
 Vibration    14          0.860              1.239              0.646
 Vibration    15          0.862              1.235              0.641
 Vibration    16          0.870              1.218              0.623
 Vibration    17          0.888              1.176              0.580
 Vibration    18          0.912              1.125              0.530
 Vibration    19          0.931              1.086              0.495

 Optimization completed.
    -- Stationary point found.
 Normal termination of Gaussian 16 at Tue Jul 14 17:14:27 2020.
