 Gaussian 16, Revision C.01,
 Gaussian 16:  ES64L-G16RevC.01  3-Jul-2019

 ----------------------------------------------------------------------
 #p opt=addgic freq td wb97xd/cc-pvdz nosymm int=ultrafine scrf=(solven
 t=CarbonTetraChloride)
 ----------------------------------------------------------------------

 ------------------------------------------------
 NM 2D-scan of HBT TD-WB97XD pVDZ in CTC Relaxed.
 ------------------------------------------------
 Symbolic Z-matrix:
 Charge =  0 Multiplicity = 1

 SCF Done:  E(RwB97XD) =  -1028.80201133     A.U. after   16 cycles
 Total Energy, E(TD-HF/TD-DFT) =  -1028.69172005
 SCF Done:  E(RwB97XD) =  -1028.79379326     A.U. after   14 cycles
 Total Energy, E(TD-HF/TD-DFT) =  -1028.69022689
 SCF Done:  E(RwB97XD) =  -1028.80324207     A.U. after   12 cycles
 Total Energy, E(TD-HF/TD-DFT) =  -1028.69514647
 SCF Done:  E(RwB97XD) =  -1028.80377225     A.U. after   11 cycles
 Total Energy, E(TD-HF/TD-DFT) =  -1028.69521004
 SCF Done:  E(RwB97XD) =  -1028.80370883     A.U. after    9 cycles
 Total Energy, E(TD-HF/TD-DFT) =  -1028.69521212
 SCF Done:  E(RwB97XD) =  -1028.80370724     A.U. after    8 cycles
 Total Energy, E(TD-HF/TD-DFT) =  -1028.69521229
 SCF Done:  E(RwB97XD) =  -1028.80370753     A.U. after    8 cycles
 Total Energy, E(TD-HF/TD-DFT) =  -1028.69521237
 Optimization completed.
    -- Stationary point found.
 Normal termination of Gaussian 16 at Mon Jul 13 16:30:04 2020.

 ----------------------------------------------------------------------
 #P Geom=AllCheck Guess=TCheck SCRF=Check GenChk RwB97XD TD(FC,Read)/CC
 -pVDZ Freq
 ----------------------------------------------------------------------

 Structure from the checkpoint file:  "config_9_2.chk"
 ------------------------------------------------
 NM 2D-scan of HBT TD-WB97XD pVDZ in CTC Relaxed.
 ------------------------------------------------
 Charge =  0 Multiplicity = 1

                          Input orientation:
 ---------------------------------------------------------------------
 Center     Atomic      Atomic             Coordinates (Angstroms)
 Number     Number       Type             X           Y           Z
 ---------------------------------------------------------------------
      1          6           0        1.758064   -3.281146    0.000065
      2          6           0        1.009687   -2.103613    0.000032
      3          6           0        1.673124   -0.855667   -0.000044
      4          6           0        3.072948   -0.763142   -0.000097
      5          6           0        3.801980   -1.939170   -0.000063
      6          6           0        3.153934   -3.184956    0.000018
      7          1           0        1.272796   -4.257828    0.000118
      8          1           0        3.551276    0.216661   -0.000162
      9          1           0        4.892310   -1.897859   -0.000101
     10          1           0        3.748026   -4.099707    0.000040
     11          7           0        0.828968    0.195288   -0.000077
     12         16           0       -0.749237   -1.848284    0.000040
     13          6           0       -1.422623    1.021770   -0.000031
     14          6           0       -2.813332    0.910610   -0.000085
     15          6           0       -0.850602    2.408309    0.000057
     16          6           0       -3.654294    2.050649   -0.000043
     17          1           0       -3.275039   -0.079583   -0.000162
     18          6           0       -1.747160    3.512726    0.000145
     19          6           0       -3.129025    3.345920    0.000081
     20          1           0       -4.735163    1.901249   -0.000087
     21          1           0       -1.282381    4.499711    0.000263
     22          1           0       -3.791713    4.211906    0.000139
     23          6           0       -0.498459   -0.082556   -0.000022
     24          8           0        0.400486    2.635510    0.000227
     25          1           0        1.016314    1.254404   -0.000174
 ---------------------------------------------------------------------

 SCF Done:  E(RwB97XD) =  -1028.80370753     A.U. after    1 cycles

 Excitation energies and oscillator strengths:

 Excited state symmetry could not be determined.
 Excited State   1:      Singlet-?Sym    2.9523 eV  419.96 nm  f=0.4393  <S**2>=0.000
      59 -> 60         0.69548
 This state for optimization and/or second-order correction.
 Total Energy, E(TD-HF/TD-DFT) =  -1028.69521238
 Copying the excited state density for this state as the 1-particle RhoCI density.

 Excited state symmetry could not be determined.
 Excited State   2:      Singlet-?Sym    3.8917 eV  318.59 nm  f=0.0000  <S**2>=0.000
      57 -> 60         0.68426
      57 -> 62         0.11544
      57 -> 64         0.11763

 Excited state symmetry could not be determined.
 Excited State   3:      Singlet-?Sym    4.3398 eV  285.69 nm  f=0.4485  <S**2>=0.000
      58 -> 60         0.67868

 Alpha  occ. eigenvalues --  -89.10733 -19.21985 -14.51226 -10.42069 -10.36986
 Alpha  occ. eigenvalues --  -10.36378 -10.36322 -10.33452 -10.32678 -10.32442
 Alpha  occ. eigenvalues --  -10.32336 -10.31728 -10.31628 -10.30832 -10.29304
 Alpha  occ. eigenvalues --  -10.28489  -8.12601  -6.07489  -6.07117  -6.06618
 Alpha  occ. eigenvalues --   -1.12989  -1.09904  -0.98104  -0.94890  -0.92996
 Alpha  occ. eigenvalues --   -0.89172  -0.86221  -0.84011  -0.81286  -0.76056
 Alpha  occ. eigenvalues --   -0.72632  -0.71527  -0.68884  -0.67688  -0.64653
 Alpha  occ. eigenvalues --   -0.60883  -0.59624  -0.56872  -0.55666  -0.55371
 Alpha  occ. eigenvalues --   -0.54780  -0.53573  -0.52956  -0.51033  -0.49392
 Alpha  occ. eigenvalues --   -0.48880  -0.48136  -0.46781  -0.45377  -0.44974
 Alpha  occ. eigenvalues --   -0.44321  -0.42972  -0.41926  -0.40474  -0.36782
 Alpha  occ. eigenvalues --   -0.33524  -0.32612  -0.31373  -0.26211
 Alpha virt. eigenvalues --   -0.02066   0.03838   0.06153   0.06199   0.08960
 Alpha virt. eigenvalues --    0.10485   0.11920   0.14663   0.16026   0.17416
 Alpha virt. eigenvalues --    0.18991   0.20281   0.21140   0.21486   0.22895

 Mulliken charges:
               1
     1  C    0.010679
     2  C   -0.245469
     3  C    0.272789
     4  C   -0.011719
     5  C    0.014414
     6  C   -0.002175
     7  H    0.026660
     8  H    0.032416
     9  H    0.026830
    10  H    0.026364
    11  N   -0.153753
    12  S    0.195862
    13  C   -0.127411
    14  C   -0.018338
    15  C    0.122962
    16  C   -0.036809
    17  H    0.001979
    18  C   -0.015679
    19  C    0.032765
    20  H    0.003475
    21  H    0.003449
    22  H    0.014916
    23  C    0.062628
    24  O   -0.403581
    25  H    0.166748
 Sum of Mulliken charges =  -0.00000

 Dipole moment (field-independent basis, Debye):
    X=              1.5009    Y=             -5.0566    Z=             -0.0006  Tot=              5.2746
 Quadrupole moment (field-independent basis, Debye-Ang):
   XX=            -82.8330   YY=            -93.9895   ZZ=           -104.3255
   XY=             -6.8066   XZ=             -0.0008   YZ=             -0.0013

  Exact polarizability:     351.164    -126.068     304.669      -0.001       0.002      63.391
 Approx polarizability:     275.078     -36.898     267.572       0.000       0.002      82.245

 ******    1 imaginary frequencies (negative Signs) ******

                      1                      2                      3
                      A                      A                      A
 Frequencies --    -62.0391                37.6043               106.3943
 Red. masses --      7.5111                 6.4116                 4.5974
 Frc consts  --      0.0170                 0.0053                 0.0307
 IR Inten    --      0.9366                 1.9221                 0.0421

                      4                      5                      6
                      A                      A                      A
 Frequencies --    119.4218               174.6174               221.4408
 Red. masses --      5.7459                 5.3498                 5.3177
 Frc consts  --      0.0483                 0.0961                 0.1536
 IR Inten    --      9.4172                 0.1683                 0.2093

                      7                      8                      9
                      A                      A                      A
 Frequencies --    265.9222               268.2848               327.0777
 Red. masses --      7.7310                 4.6824                 6.7546
 Frc consts  --      0.3221                 0.1986                 0.4257
 IR Inten    --      0.7892                 0.4798                16.4387

                     10                     11                     12
                      A                      A                      A
 Frequencies --    359.2010               391.1191               434.6344
 Red. masses --      5.1053                 9.9581                 3.2723
 Frc consts  --      0.3881                 0.8975                 0.3642
 IR Inten    --      1.0251                 3.1145                 5.0300

                     13                     14                     15
                      A                      A                      A
 Frequencies --    459.9473               502.5354               503.6926
 Red. masses --      4.7177                 3.1579                 8.8276
 Frc consts  --      0.5880                 0.4699                 1.3196
 IR Inten    --      1.3915                 0.6056                 5.9809

                     16                     17                     18
                      A                      A                      A
 Frequencies --    539.0685               555.4798               567.5361
 Red. masses --      8.7524                 3.8333                 6.6552
 Frc consts  --      1.4985                 0.6969                 1.2630
 IR Inten    --      2.9114                 0.7031                 8.1023

                     19                     20                     21
                      A                      A                      A
 Frequencies --    578.4179               635.1742               691.2635
 Red. masses --      7.6877                 5.8910                 1.6097
 Frc consts  --      1.5154                 1.4003                 0.4532
 IR Inten    --     45.1906               124.1857                35.2230

                     22                     23                     24
                      A                      A                      A
 Frequencies --    692.0173               710.5167               740.6644
 Red. masses --      7.5264                 6.7622                 2.4508
 Frc consts  --      2.1236                 2.0113                 0.7922
 IR Inten    --      2.1485                10.0562                14.9458

                     25                     26                     27
                      A                      A                      A
 Frequencies --    764.1381               767.3918               806.2343
 Red. masses --      1.6998                 1.8236                 6.5257
 Frc consts  --      0.5848                 0.6327                 2.4992
 IR Inten    --      4.6679                84.0258                12.2236

                     28                     29                     30
                      A                      A                      A
 Frequencies --    840.8772               862.3859               876.4838
 Red. masses --      1.6560                 1.3945                 4.4272
 Frc consts  --      0.6899                 0.6110                 2.0038
 IR Inten    --      0.0160                 0.6279                24.3318

                     31                     32                     33
                      A                      A                      A
 Frequencies --    910.0507               947.5958               954.3938
 Red. masses --      1.4115                 5.6806                 1.3666
 Frc consts  --      0.6887                 3.0053                 0.7334
 IR Inten    --      6.5922                 6.0022                 0.5266

                     34                     35                     36
                      A                      A                      A
 Frequencies --    955.0390              1002.2388              1044.8727
 Red. masses --      1.3486                 1.2949                 2.2420
 Frc consts  --      0.7248                 0.7663                 1.4421
 IR Inten    --      1.3764                 0.1201                 0.8024

                     37                     38                     39
                      A                      A                      A
 Frequencies --   1045.7065              1048.8971              1074.0299
 Red. masses --      1.0691                 2.1968                 4.1483
 Frc consts  --      0.6888                 1.4240                 2.8194
 IR Inten    --     67.7089                 8.5758                 2.6017

                     40                     41                     42
                      A                      A                      A
 Frequencies --   1116.6800              1149.5902              1161.4930
 Red. masses --      1.5210                 1.3163                 1.2010
 Frc consts  --      1.1175                 1.0249                 0.9546
 IR Inten    --     45.8025                11.3196                75.5413

                     43                     44                     45
                      A                      A                      A
 Frequencies --   1177.9361              1227.0336              1257.5326
 Red. masses --      1.1394                 2.3634                 2.2304
 Frc consts  --      0.9314                 2.0966                 2.0781
 IR Inten    --     28.3203               101.7895                32.7595

                     46                     47                     48
                      A                      A                      A
 Frequencies --   1280.9644              1323.9071              1334.9162
 Red. masses --      1.5974                 2.1244                 3.4414
 Frc consts  --      1.5443                 2.1938                 3.6132
 IR Inten    --    105.0191               241.9814                10.3643

                     49                     50                     51
                      A                      A                      A
 Frequencies --   1366.5590              1395.3555              1401.3605
 Red. masses --      5.6551                 2.6388                 2.2996
 Frc consts  --      6.2222                 3.0271                 2.6607
 IR Inten    --    132.9143                28.6067                 5.8652

                     52                     53                     54
                      A                      A                      A
 Frequencies --   1435.7005              1484.1527              1502.5728
 Red. masses --      3.6245                 2.6136                 3.0420
 Frc consts  --      4.4018                 3.3919                 4.0465
 IR Inten    --    505.7894                 5.2263                14.7060

                     55                     56                     57
                      A                      A                      A
 Frequencies --   1535.7029              1562.0052              1593.0045
 Red. masses --      4.4722                 4.7928                 4.4128
 Frc consts  --      6.2142                 6.8898                 6.5978
 IR Inten    --     60.1617               144.9234                34.1043

                     58                     59                     60
                      A                      A                      A
 Frequencies --   1624.6903              1647.6866              1670.5851
 Red. masses --      5.5176                 5.3578                 6.4754
 Frc consts  --      8.5810                 8.5702                10.6477
 IR Inten    --    262.2466                98.7694               283.2293

                     61                     62                     63
                      A                      A                      A
 Frequencies --   2668.1544              3194.3119              3211.7605
 Red. masses --      1.1077                 1.0887                 1.0860
 Frc consts  --      4.6461                 6.5453                 6.6001
 IR Inten    --   1467.6172                21.6666                 4.3498

                     64                     65                     66
                      A                      A                      A
 Frequencies --   3212.3680              3220.6138              3223.6525
 Red. masses --      1.0869                 1.0902                 1.0922
 Frc consts  --      6.6081                 6.6622                 6.6874
 IR Inten    --      1.1583                 2.8916                19.1059

                     67                     68                     69
                      A                      A                      A
 Frequencies --   3230.0273              3235.3559              3238.0470
 Red. masses --      1.0959                 1.0990                 1.0996
 Frc consts  --      6.7365                 6.7778                 6.7931
 IR Inten    --      8.0133                19.0974                14.6722

 - Thermochemistry -
 -------------------
 Temperature   298.150 Kelvin.  Pressure   1.00000 Atm.
 Atom     1 has atomic number  6 and mass  12.00000

 Molecular mass:   227.04049 amu.
 Principal axes and moments of inertia in atomic units:
                           1         2         3
     Eigenvalues --  1336.585126380.216477716.80159
           X           -0.70069   0.71346  -0.00000
           Y            0.71346   0.70069  -0.00002
           Z            0.00001   0.00001   1.00000
 This molecule is an asymmetric top.
 Rotational symmetry number  1.
 Warning -- assumption of classical behavior for rotation
           may cause significant error
 Rotational temperatures (Kelvin)      0.06480     0.01358     0.01122
 Rotational constants (GHZ):           1.35026     0.28287     0.23387
    1 imaginary frequencies ignored.
 Zero-point vibrational energy     487275.4 (Joules/Mol)
                                  116.46162 (Kcal/Mol)
 Warning -- explicit consideration of  18 degrees of freedom as
           vibrations may cause significant error
 Vibrational temperatures:     54.10   153.08   171.82   251.24   318.60
          (Kelvin)            382.60   386.00   470.59   516.81   562.73
                              625.34   661.76   723.04   724.70   775.60
                              799.21   816.56   832.21   913.87   994.57
                              995.66  1022.28  1065.65  1099.42  1104.11
                             1159.99  1209.83  1240.78  1261.06  1309.36
                             1363.38  1373.16  1374.09  1442.00  1503.34
                             1504.54  1509.13  1545.29  1606.65  1654.00
                             1671.13  1694.79  1765.43  1809.31  1843.02
                             1904.81  1920.65  1966.17  2007.61  2016.25
                             2065.65  2135.36  2161.87  2209.53  2247.38
                             2291.98  2337.57  2370.65  2403.60  3838.88
                             4595.90  4621.01  4621.88  4633.74  4638.12
                             4647.29  4654.96  4658.83

 Zero-point correction=                           0.185593 (Hartree/Particle)
 Thermal correction to Energy=                    0.197095
 Thermal correction to Enthalpy=                  0.198039
 Thermal correction to Gibbs Free Energy=         0.147382
 Sum of electronic and zero-point Energies=          -1028.509619
 Sum of electronic and thermal Energies=             -1028.498117
 Sum of electronic and thermal Enthalpies=           -1028.497173
 Sum of electronic and thermal Free Energies=        -1028.547831

                     E (Thermal)             CV                S
                      KCal/Mol        Cal/Mol-Kelvin    Cal/Mol-Kelvin
 Total                  123.679             47.352            106.617
 Electronic               0.000              0.000              0.000
 Translational            0.889              2.981             42.162
 Rotational               0.889              2.981             32.554
 Vibrational            121.901             41.391             31.902
 Vibration     1          0.594              1.982              5.381
 Vibration     2          0.605              1.944              3.334
 Vibration     3          0.609              1.933              3.110
 Vibration     4          0.627              1.874              2.385
 Vibration     5          0.648              1.808              1.947
 Vibration     6          0.672              1.736              1.623
 Vibration     7          0.673              1.731              1.607
 Vibration     8          0.711              1.621              1.274
 Vibration     9          0.734              1.556              1.126
 Vibration    10          0.759              1.489              0.996
 Vibration    11          0.795              1.395              0.844
 Vibration    12          0.818              1.339              0.766
 Vibration    13          0.858              1.244              0.652
 Vibration    14          0.859              1.242              0.649
 Vibration    15          0.894              1.164              0.567
 Vibration    16          0.911              1.128              0.533
 Vibration    17          0.923              1.101              0.509
 Vibration    18          0.935              1.078              0.488

 Optimization completed.
    -- Stationary point found.
 Normal termination of Gaussian 16 at Mon Jul 13 16:47:55 2020.
