 Gaussian 16, Revision C.01,
 Gaussian 16:  ES64L-G16RevC.01  3-Jul-2019

 ----------------------------------------------------------------------
 #p opt=addgic freq td wb97xd/cc-pvdz nosymm int=ultrafine scrf=(solven
 t=CarbonTetraChloride)
 ----------------------------------------------------------------------

 ------------------------------------------------
 NM 2D-scan of HBT TD-WB97XD pVDZ in CTC Relaxed.
 ------------------------------------------------
 Symbolic Z-matrix:
 Charge =  0 Multiplicity = 1

 SCF Done:  E(RwB97XD) =  -1028.80696323     A.U. after   15 cycles
 Total Energy, E(TD-HF/TD-DFT) =  -1028.68370817
 SCF Done:  E(RwB97XD) =  -1028.80857367     A.U. after   12 cycles
 Total Energy, E(TD-HF/TD-DFT) =  -1028.68435572
 SCF Done:  E(RwB97XD) =  -1028.80897101     A.U. after   11 cycles
 Total Energy, E(TD-HF/TD-DFT) =  -1028.68421018
 SCF Done:  E(RwB97XD) =  -1028.80874757     A.U. after    9 cycles
 Total Energy, E(TD-HF/TD-DFT) =  -1028.68443827
 SCF Done:  E(RwB97XD) =  -1028.80882579     A.U. after    9 cycles
 Total Energy, E(TD-HF/TD-DFT) =  -1028.68443994
 Optimization completed.
    -- Stationary point found.
 Normal termination of Gaussian 16 at Tue Jul 14 15:07:09 2020.

 ----------------------------------------------------------------------
 #P Geom=AllCheck Guess=TCheck SCRF=Check GenChk RwB97XD TD(FC,Read)/CC
 -pVDZ Freq
 ----------------------------------------------------------------------

 Structure from the checkpoint file:  "config_5_18.chk"
 ------------------------------------------------
 NM 2D-scan of HBT TD-WB97XD pVDZ in CTC Relaxed.
 ------------------------------------------------
 Charge =  0 Multiplicity = 1

                          Input orientation:
 ---------------------------------------------------------------------
 Center     Atomic      Atomic             Coordinates (Angstroms)
 Number     Number       Type             X           Y           Z
 ---------------------------------------------------------------------
      1          6           0        1.519711   -3.242818   -0.000053
      2          6           0        1.003491   -1.953436   -0.000047
      3          6           0        1.804361   -0.770807   -0.000018
      4          6           0        3.208699   -0.960626   -0.000002
      5          6           0        3.721412   -2.255510   -0.000008
      6          6           0        2.898698   -3.396538   -0.000031
      7          1           0        0.849185   -4.103087   -0.000071
      8          1           0        3.877361   -0.099008    0.000019
      9          1           0        4.805100   -2.387716    0.000008
     10          1           0        3.341001   -4.393351   -0.000031
     11          7           0        1.065924    0.383501   -0.000006
     12         16           0       -0.686823   -1.571073   -0.000067
     13          6           0       -1.302304    1.074941    0.000031
     14          6           0       -2.662194    0.716051    0.000068
     15          6           0       -0.922525    2.486188    0.000027
     16          6           0       -3.644134    1.703632    0.000059
     17          1           0       -2.950303   -0.335629    0.000096
     18          6           0       -1.948364    3.460985    0.000012
     19          6           0       -3.292295    3.068899    0.000022
     20          1           0       -4.696279    1.414576    0.000077
     21          1           0       -1.665125    4.514119   -0.000003
     22          1           0       -4.076475    3.826667    0.000008
     23          6           0       -0.272058    0.117650   -0.000014
     24          8           0        0.348385    2.749056    0.000031
     25          1           0        0.936969    1.755171    0.000009
 ---------------------------------------------------------------------

 SCF Done:  E(RwB97XD) =  -1028.80882579     A.U. after    1 cycles

 Excitation energies and oscillator strengths:

 Excited state symmetry could not be determined.
 Excited State   1:      Singlet-?Sym    3.3847 eV  366.31 nm  f=0.5493  <S**2>=0.000
      59 -> 60         0.69168
 This state for optimization and/or second-order correction.
 Total Energy, E(TD-HF/TD-DFT) =  -1028.68443994
 Copying the excited state density for this state as the 1-particle RhoCI density.

 Excited state symmetry could not be determined.
 Excited State   2:      Singlet-?Sym    4.3675 eV  283.88 nm  f=0.2378  <S**2>=0.000
      57 -> 60         0.15215
      58 -> 60         0.65518
      59 -> 63        -0.10022

 Excited state symmetry could not be determined.
 Excited State   3:      Singlet-?Sym    4.7197 eV  262.70 nm  f=0.0954  <S**2>=0.000
      57 -> 60         0.59697
      57 -> 62        -0.15198
      58 -> 60        -0.15936
      58 -> 61        -0.15625
      59 -> 61        -0.20256

 Alpha  occ. eigenvalues --  -89.09003 -19.26250 -14.48660 -10.40014 -10.37549
 Alpha  occ. eigenvalues --  -10.36128 -10.34858 -10.32283 -10.32104 -10.32085
 Alpha  occ. eigenvalues --  -10.31886 -10.31698 -10.31610 -10.31547 -10.30203
 Alpha  occ. eigenvalues --  -10.30174  -8.11143  -6.05976  -6.05630  -6.05201
 Alpha  occ. eigenvalues --   -1.14913  -1.08904  -0.97063  -0.95962  -0.92626
 Alpha  occ. eigenvalues --   -0.88863  -0.85566  -0.84029  -0.82384  -0.75852
 Alpha  occ. eigenvalues --   -0.71454  -0.70805  -0.68888  -0.67699  -0.63588
 Alpha  occ. eigenvalues --   -0.60782  -0.59177  -0.58374  -0.55712  -0.54385
 Alpha  occ. eigenvalues --   -0.54381  -0.53571  -0.53004  -0.50708  -0.49954
 Alpha  occ. eigenvalues --   -0.49546  -0.46699  -0.46239  -0.45758  -0.44918
 Alpha  occ. eigenvalues --   -0.44355  -0.42666  -0.42567  -0.40441  -0.36513
 Alpha  occ. eigenvalues --   -0.36258  -0.32334  -0.31349  -0.27945
 Alpha virt. eigenvalues --   -0.01736   0.04772   0.06559   0.07648   0.07706
 Alpha virt. eigenvalues --    0.10825   0.14710   0.15096   0.17183   0.17911
 Alpha virt. eigenvalues --    0.18722   0.21040   0.21478   0.22280   0.22472

 Mulliken charges:
               1
     1  C    0.023724
     2  C   -0.220916
     3  C    0.242138
     4  C   -0.022792
     5  C    0.004087
     6  C    0.000185
     7  H    0.019014
     8  H    0.022814
     9  H    0.021505
    10  H    0.021798
    11  N   -0.354443
    12  S    0.172855
    13  C   -0.088274
    14  C   -0.031187
    15  C    0.121979
    16  C   -0.017666
    17  H    0.022249
    18  C   -0.013796
    19  C    0.026167
    20  H    0.008433
    21  H    0.015506
    22  H    0.021801
    23  C    0.084821
    24  O   -0.307096
    25  H    0.227097
 Sum of Mulliken charges =  -0.00000

 Dipole moment (field-independent basis, Debye):
    X=             -0.1566    Y=             -3.2350    Z=             -0.0000  Tot=              3.2387
 Quadrupole moment (field-independent basis, Debye-Ang):
   XX=            -83.0476   YY=            -91.1233   ZZ=           -104.1999
   XY=             -7.0819   XZ=             -0.0000   YZ=             -0.0001

  Exact polarizability:     370.655    -158.246     340.492      -0.002       0.003      63.218
 Approx polarizability:     273.888     -34.492     258.315       0.000       0.001      82.295

 ******    1 imaginary frequencies (negative Signs) ******

                      1                      2                      3
                      A                      A                      A
 Frequencies --   -986.6800                40.6854                49.1138
 Red. masses --      1.1375                 4.9678                 6.8505
 Frc consts  --      0.6525                 0.0048                 0.0097
 IR Inten    --    608.0162                 0.0375                 1.4633

                      4                      5                      6
                      A                      A                      A
 Frequencies --    114.1803               136.5186               176.0033
 Red. masses --      5.5599                 5.4257                 6.2711
 Frc consts  --      0.0427                 0.0596                 0.1145
 IR Inten    --      0.0002                 7.0881                 1.1001

                      7                      8                      9
                      A                      A                      A
 Frequencies --    221.9797               264.4407               273.8530
 Red. masses --      5.3106                 7.0213                 4.7287
 Frc consts  --      0.1542                 0.2893                 0.2089
 IR Inten    --      0.0222                17.3616                 0.0179

                     10                     11                     12
                      A                      A                      A
 Frequencies --    373.8453               382.9096               424.7838
 Red. masses --      4.7374                 5.8638                11.5828
 Frc consts  --      0.3901                 0.5065                 1.2314
 IR Inten    --      0.1120                 4.4459                 6.4006

                     13                     14                     15
                      A                      A                      A
 Frequencies --    440.4880               474.4835               501.4856
 Red. masses --      3.1971                 4.7477                 3.1651
 Frc consts  --      0.3655                 0.6298                 0.4690
 IR Inten    --      4.0123                 0.0579                 0.2256

                     16                     17                     18
                      A                      A                      A
 Frequencies --    508.1793               542.1491               560.2042
 Red. masses --      8.6288                 8.2390                 3.8784
 Frc consts  --      1.3129                 1.4268                 0.7171
 IR Inten    --      1.5713                22.0767                 0.1803

                     19                     20                     21
                      A                      A                      A
 Frequencies --    574.2908               624.4500               693.8071
 Red. masses --      7.6204                 6.9324                 6.8132
 Frc consts  --      1.4808                 1.5927                 1.9323
 IR Inten    --      0.2027                 2.3916               103.3113

                     22                     23                     24
                      A                      A                      A
 Frequencies --    704.8609               737.9276               742.6614
 Red. masses --      1.5743                 6.6714                 1.9530
 Frc consts  --      0.4608                 2.1404                 0.6346
 IR Inten    --     51.9875                 9.6859                37.0574

                     25                     26                     27
                      A                      A                      A
 Frequencies --    748.7756               753.8858               767.2354
 Red. masses --      1.7753                 7.8380                 2.0213
 Frc consts  --      0.5864                 2.6246                 0.7010
 IR Inten    --     12.7554                86.0783                54.0323

                     28                     29                     30
                      A                      A                      A
 Frequencies --    803.9879               833.4485               863.7564
 Red. masses --      1.9178                 5.5997                 1.4043
 Frc consts  --      0.7304                 2.2918                 0.6173
 IR Inten    --      1.4468                 6.3920                 0.9671

                     31                     32                     33
                      A                      A                      A
 Frequencies --    906.2329               909.0485               953.5371
 Red. masses --      1.3625                 6.6903                 1.3494
 Frc consts  --      0.6593                 3.2574                 0.7229
 IR Inten    --      4.4478                24.7814                 2.0015

                     34                     35                     36
                      A                      A                      A
 Frequencies --    958.4998               998.2086               999.4328
 Red. masses --      1.3807                 7.5821                 1.3010
 Frc consts  --      0.7474                 4.4512                 0.7656
 IR Inten    --      0.0977                 1.4449                 0.0018

                     37                     38                     39
                      A                      A                      A
 Frequencies --   1009.7588              1048.9730              1095.3895
 Red. masses --      1.8416                 2.0412                 2.9814
 Frc consts  --      1.1063                 1.3233                 2.1077
 IR Inten    --      3.0036                 1.1037               112.7974

                     40                     41                     42
                      A                      A                      A
 Frequencies --   1120.6836              1155.0036              1160.6815
 Red. masses --      1.4210                 1.2996                 1.2830
 Frc consts  --      1.0515                 1.0215                 1.0183
 IR Inten    --     42.0808                30.7913                 2.7415

                     43                     44                     45
                      A                      A                      A
 Frequencies --   1179.1545              1209.2305              1219.4715
 Red. masses --      1.2178                 1.0500                 2.0970
 Frc consts  --      0.9976                 0.9046                 1.8373
 IR Inten    --     28.1610                66.9723                23.6887

                     46                     47                     48
                      A                      A                      A
 Frequencies --   1260.4810              1294.5510              1341.9036
 Red. masses --      2.7547                 2.2257                 3.4150
 Frc consts  --      2.5787                 2.1976                 3.6231
 IR Inten    --     47.6159                10.3050                20.1332

                     49                     50                     51
                      A                      A                      A
 Frequencies --   1370.0447              1382.1032              1397.1916
 Red. masses --      5.0592                 2.4327                 3.0170
 Frc consts  --      5.5950                 2.7379                 3.4701
 IR Inten    --    302.1154                14.4188                13.2397

                     52                     53                     54
                      A                      A                      A
 Frequencies --   1431.8354              1473.4658              1501.7506
 Red. masses --      4.2235                 3.0941                 3.2665
 Frc consts  --      5.1016                 3.9579                 4.3404
 IR Inten    --    509.8003                54.5580                19.8524

                     55                     56                     57
                      A                      A                      A
 Frequencies --   1532.7447              1551.6200              1578.8900
 Red. masses --      4.5946                 4.7703                 7.0358
 Frc consts  --      6.3597                 6.7665                10.3340
 IR Inten    --    323.6784                54.8826               225.6057

                     58                     59                     60
                      A                      A                      A
 Frequencies --   1615.0119              1632.9855              1651.2946
 Red. masses --      6.0239                 6.6214                 6.1571
 Frc consts  --      9.2572                10.4032                 9.8918
 IR Inten    --    234.3222              1256.4231                41.5443

                     61                     62                     63
                      A                      A                      A
 Frequencies --   1807.8308              3204.7469              3211.2822
 Red. masses --      1.0924                 1.0862                 1.0868
 Frc consts  --      2.1036                 6.5729                 6.6030
 IR Inten    --    106.2078                 7.6216                 9.1296

                     64                     65                     66
                      A                      A                      A
 Frequencies --   3214.8473              3220.9449              3225.4746
 Red. masses --      1.0901                 1.0890                 1.0950
 Frc consts  --      6.6380                 6.6562                 6.7118
 IR Inten    --      1.9291                 9.3098                10.7704

                     67                     68                     69
                      A                      A                      A
 Frequencies --   3229.1763              3233.8087              3239.9575
 Red. masses --      1.0943                 1.0994                 1.0980
 Frc consts  --      6.7231                 6.7741                 6.7911
 IR Inten    --     12.5188                30.1489                21.6867

 - Thermochemistry -
 -------------------
 Temperature   298.150 Kelvin.  Pressure   1.00000 Atm.
 Atom     1 has atomic number  6 and mass  12.00000

 Molecular mass:   227.04049 amu.
 Principal axes and moments of inertia in atomic units:
                           1         2         3
     Eigenvalues --  1272.787336283.030677555.81800
           X           -0.70597   0.70824  -0.00000
           Y            0.70824   0.70597  -0.00001
           Z            0.00001   0.00001   1.00000
 This molecule is an asymmetric top.
 Rotational symmetry number  1.
 Warning -- assumption of classical behavior for rotation
           may cause significant error
 Rotational temperatures (Kelvin)      0.06805     0.01379     0.01146
 Rotational constants (GHZ):           1.41794     0.28724     0.23885
    1 imaginary frequencies ignored.
 Zero-point vibrational energy     477678.7 (Joules/Mol)
                                  114.16795 (Kcal/Mol)
 Warning -- explicit consideration of  18 degrees of freedom as
           vibrations may cause significant error
 Vibrational temperatures:     58.54    70.66   164.28   196.42   253.23
          (Kelvin)            319.38   380.47   394.01   537.88   550.92
                              611.17   633.76   682.68   721.53   731.16
                              780.03   806.01   826.28   898.44   998.23
                             1014.14  1061.71  1068.52  1077.32  1084.67
                             1103.88  1156.76  1199.15  1242.75  1303.87
                             1307.92  1371.93  1379.07  1436.20  1437.96
                             1452.82  1509.24  1576.02  1612.41  1661.79
                             1669.96  1696.54  1739.81  1754.55  1813.55
                             1862.57  1930.70  1971.19  1988.54  2010.25
                             2060.09  2119.99  2160.68  2205.28  2232.44
                             2271.67  2323.64  2349.50  2375.84  2601.07
                             4610.92  4620.32  4625.45  4634.22  4640.74
                             4646.06  4652.73  4661.58

 Zero-point correction=                           0.181938 (Hartree/Particle)
 Thermal correction to Energy=                    0.193960
 Thermal correction to Enthalpy=                  0.194904
 Thermal correction to Gibbs Free Energy=         0.142677
 Sum of electronic and zero-point Energies=          -1028.502502
 Sum of electronic and thermal Energies=             -1028.490480
 Sum of electronic and thermal Enthalpies=           -1028.489536
 Sum of electronic and thermal Free Energies=        -1028.541763

                     E (Thermal)             CV                S
                      KCal/Mol        Cal/Mol-Kelvin    Cal/Mol-Kelvin
 Total                  121.712             48.307            109.920
 Electronic               0.000              0.000              0.000
 Translational            0.889              2.981             42.162
 Rotational               0.889              2.981             32.469
 Vibrational            119.934             42.345             35.290
 Vibration     1          0.594              1.981              5.225
 Vibration     2          0.595              1.978              4.853
 Vibration     3          0.607              1.938              3.197
 Vibration     4          0.614              1.917              2.852
 Vibration     5          0.628              1.872              2.370
 Vibration     6          0.648              1.808              1.943
 Vibration     7          0.671              1.738              1.632
 Vibration     8          0.676              1.722              1.572
 Vibration     9          0.745              1.526              1.064
 Vibration    10          0.752              1.507              1.028
 Vibration    11          0.787              1.416              0.876
 Vibration    12          0.800              1.382              0.825
 Vibration    13          0.831              1.307              0.725
 Vibration    14          0.857              1.247              0.654
 Vibration    15          0.863              1.232              0.638
 Vibration    16          0.897              1.157              0.561
 Vibration    17          0.916              1.117              0.523
 Vibration    18          0.931              1.087              0.496

                           ! Non-Optimized Parameters !
 Normal termination of Gaussian 16 at Tue Jul 14 15:24:43 2020.
