 Gaussian 16, Revision C.01,
 Gaussian 16:  ES64L-G16RevC.01  3-Jul-2019

 ----------------------------------------------------------------------
 #p opt=addgic freq td wb97xd/cc-pvdz nosymm int=ultrafine scrf=(solven
 t=CarbonTetraChloride)
 ----------------------------------------------------------------------

 ------------------------------------------------
 NM 2D-scan of HBT TD-WB97XD pVDZ in CTC Relaxed.
 ------------------------------------------------
 Symbolic Z-matrix:
 Charge =  0 Multiplicity = 1

 SCF Done:  E(RwB97XD) =  -1028.81800996     A.U. after   15 cycles
 Total Energy, E(TD-HF/TD-DFT) =  -1028.69190344
 SCF Done:  E(RwB97XD) =  -1028.81787469     A.U. after   10 cycles
 Total Energy, E(TD-HF/TD-DFT) =  -1028.69197590
 SCF Done:  E(RwB97XD) =  -1028.81767851     A.U. after   10 cycles
 Total Energy, E(TD-HF/TD-DFT) =  -1028.69199118
 SCF Done:  E(RwB97XD) =  -1028.81756811     A.U. after   10 cycles
 Total Energy, E(TD-HF/TD-DFT) =  -1028.69200273
 SCF Done:  E(RwB97XD) =  -1028.81758399     A.U. after    8 cycles
 Total Energy, E(TD-HF/TD-DFT) =  -1028.69200382
 SCF Done:  E(RwB97XD) =  -1028.81759128     A.U. after    7 cycles
 Total Energy, E(TD-HF/TD-DFT) =  -1028.69200385
 SCF Done:  E(RwB97XD) =  -1028.81759191     A.U. after    6 cycles
 Total Energy, E(TD-HF/TD-DFT) =  -1028.69200389
 Optimization completed.
    -- Stationary point found.
 Normal termination of Gaussian 16 at Mon Jul 13 14:06:14 2020.

 ----------------------------------------------------------------------
 #P Geom=AllCheck Guess=TCheck SCRF=Check GenChk RwB97XD TD(FC,Read)/CC
 -pVDZ Freq
 ----------------------------------------------------------------------

 Structure from the checkpoint file:  "config_5_11.chk"
 ------------------------------------------------
 NM 2D-scan of HBT TD-WB97XD pVDZ in CTC Relaxed.
 ------------------------------------------------
 Charge =  0 Multiplicity = 1

                          Input orientation:
 ---------------------------------------------------------------------
 Center     Atomic      Atomic             Coordinates (Angstroms)
 Number     Number       Type             X           Y           Z
 ---------------------------------------------------------------------
      1          6           0        1.619241   -3.263275   -0.000033
      2          6           0        0.996894   -2.019513   -0.000020
      3          6           0        1.736828   -0.798560   -0.000011
      4          6           0        3.150245   -0.869399   -0.000015
      5          6           0        3.759652   -2.114082   -0.000028
      6          6           0        3.010982   -3.306179   -0.000037
      7          1           0        1.029148   -4.180518   -0.000041
      8          1           0        3.736442    0.050158   -0.000008
      9          1           0        4.849711   -2.171848   -0.000031
     10          1           0        3.522735   -4.269409   -0.000047
     11          7           0        0.970197    0.314924    0.000002
     12         16           0       -0.721212   -1.692565   -0.000013
     13          6           0       -1.349926    1.041686    0.000023
     14          6           0       -2.736984    0.792516    0.000027
     15          6           0       -0.898483    2.444564    0.000034
     16          6           0       -3.647485    1.848504    0.000029
     17          1           0       -3.099658   -0.236661    0.000025
     18          6           0       -1.851286    3.484275    0.000032
     19          6           0       -3.214032    3.191460    0.000028
     20          1           0       -4.716405    1.629147    0.000029
     21          1           0       -1.482913    4.510669    0.000037
     22          1           0       -3.946707    3.998849    0.000028
     23          6           0       -0.361757    0.033766    0.000006
     24          8           0        0.377028    2.694485    0.000046
     25          1           0        0.902987    1.728528    0.000042
 ---------------------------------------------------------------------

 SCF Done:  E(RwB97XD) =  -1028.81759191     A.U. after    1 cycles

 Excitation energies and oscillator strengths:

 Excited state symmetry could not be determined.
 Excited State   1:      Singlet-?Sym    3.4174 eV  362.80 nm  f=0.5853  <S**2>=0.000
      59 -> 60         0.69106
 This state for optimization and/or second-order correction.
 Total Energy, E(TD-HF/TD-DFT) =  -1028.69200389
 Copying the excited state density for this state as the 1-particle RhoCI density.

 Excited state symmetry could not be determined.
 Excited State   2:      Singlet-?Sym    4.3900 eV  282.43 nm  f=0.2868  <S**2>=0.000
      57 -> 60         0.17945
      58 -> 60         0.64581
      59 -> 62         0.10489
      59 -> 64         0.10795

 Excited state symmetry could not be determined.
 Excited State   3:      Singlet-?Sym    4.6821 eV  264.81 nm  f=0.0639  <S**2>=0.000
      55 -> 61        -0.10111
      57 -> 60         0.58419
      57 -> 62        -0.14858
      58 -> 60        -0.17953
      58 -> 61        -0.16073
      59 -> 61         0.22288

 Alpha  occ. eigenvalues --  -89.09237 -19.26723 -14.47912 -10.40092 -10.37707
 Alpha  occ. eigenvalues --  -10.35608 -10.34966 -10.32349 -10.32156 -10.32008
 Alpha  occ. eigenvalues --  -10.31824 -10.31810 -10.31596 -10.31551 -10.30220
 Alpha  occ. eigenvalues --  -10.30064  -8.11248  -6.06094  -6.05749  -6.05304
 Alpha  occ. eigenvalues --   -1.15711  -1.08841  -0.96911  -0.95707  -0.92230
 Alpha  occ. eigenvalues --   -0.88860  -0.85256  -0.84134  -0.82422  -0.75908
 Alpha  occ. eigenvalues --   -0.71187  -0.70490  -0.68994  -0.68091  -0.63532
 Alpha  occ. eigenvalues --   -0.60663  -0.59032  -0.58436  -0.55716  -0.54378
 Alpha  occ. eigenvalues --   -0.54207  -0.53231  -0.52976  -0.50914  -0.50076
 Alpha  occ. eigenvalues --   -0.49649  -0.47202  -0.46115  -0.45622  -0.44850
 Alpha  occ. eigenvalues --   -0.44095  -0.42646  -0.42630  -0.40311  -0.36508
 Alpha  occ. eigenvalues --   -0.36461  -0.32353  -0.31292  -0.27922
 Alpha virt. eigenvalues --   -0.01731   0.04863   0.06814   0.07408   0.07533
 Alpha virt. eigenvalues --    0.10894   0.14220   0.15096   0.16482   0.17967
 Alpha virt. eigenvalues --    0.18667   0.21028   0.21657   0.22453   0.22457

 Mulliken charges:
               1
     1  C    0.018000
     2  C   -0.227648
     3  C    0.248952
     4  C   -0.018056
     5  C    0.007333
     6  C   -0.003260
     7  H    0.018929
     8  H    0.020769
     9  H    0.020701
    10  H    0.021562
    11  N   -0.350317
    12  S    0.169403
    13  C   -0.094097
    14  C   -0.023453
    15  C    0.107428
    16  C   -0.018950
    17  H    0.014342
    18  C   -0.004238
    19  C    0.025517
    20  H    0.009173
    21  H    0.015686
    22  H    0.021641
    23  C    0.081646
    24  O   -0.267196
    25  H    0.206132
 Sum of Mulliken charges =  -0.00000

 Dipole moment (field-independent basis, Debye):
    X=             -0.1104    Y=             -2.8193    Z=             -0.0000  Tot=              2.8215
 Quadrupole moment (field-independent basis, Debye-Ang):
   XX=            -83.2216   YY=            -90.2950   ZZ=           -104.2834
   XY=             -7.0275   XZ=             -0.0001   YZ=              0.0001

  Exact polarizability:     381.595    -167.517     351.335      -0.002       0.003      63.308
 Approx polarizability:     275.750     -35.240     259.569      -0.001       0.002      82.335

 ******    1 imaginary frequencies (negative Signs) ******

                      1                      2                      3
                      A                      A                      A
 Frequencies --   -221.8127                42.6316                53.6518
 Red. masses --      2.6951                 5.6237                 6.8060
 Frc consts  --      0.0781                 0.0060                 0.0115
 IR Inten    --     51.8641                 0.9769                 0.5819

                      4                      5                      6
                      A                      A                      A
 Frequencies --    108.9567               176.2379               187.6818
 Red. masses --      5.0040                 6.1469                 5.0257
 Frc consts  --      0.0350                 0.1125                 0.1043
 IR Inten    --      0.0483                 0.9813                22.0108

                      7                      8                      9
                      A                      A                      A
 Frequencies --    222.4432               272.2665               272.6381
 Red. masses --      5.3506                 4.7784                 7.4497
 Frc consts  --      0.1560                 0.2087                 0.3263
 IR Inten    --      0.0239                 0.0846                20.8617

                     10                     11                     12
                      A                      A                      A
 Frequencies --    379.6142               403.5578               438.4864
 Red. masses --      4.7352                 7.3316                 3.2220
 Frc consts  --      0.4020                 0.7035                 0.3650
 IR Inten    --      0.1619                 8.0818                 4.4098

                     13                     14                     15
                      A                      A                      A
 Frequencies --    445.0729               481.9836               499.7245
 Red. masses --      5.1418                 4.7563                 3.1698
 Frc consts  --      0.6001                 0.6510                 0.4664
 IR Inten    --      5.7831                 0.0010                 0.1669

                     16                     17                     18
                      A                      A                      A
 Frequencies --    505.0922               534.6991               556.9886
 Red. masses --      8.7883                 8.1462                 3.9211
 Frc consts  --      1.3210                 1.3722                 0.7167
 IR Inten    --      0.1583                26.8309                 0.1698

                     19                     20                     21
                      A                      A                      A
 Frequencies --    577.5651               635.1246               704.9390
 Red. masses --      7.5900                 6.7682                 1.6453
 Frc consts  --      1.4917                 1.6086                 0.4817
 IR Inten    --      2.6230                29.9045                45.6234

                     22                     23                     24
                      A                      A                      A
 Frequencies --    712.1582               738.2690               740.6207
 Red. masses --      6.7137                 9.9636                 1.9757
 Frc consts  --      2.0062                 3.1996                 0.6385
 IR Inten    --      0.1222                21.2473                26.9994

                     25                     26                     27
                      A                      A                      A
 Frequencies --    755.8661               768.7065               814.5504
 Red. masses --      1.8935                 1.9764                 1.6963
 Frc consts  --      0.6374                 0.6881                 0.6631
 IR Inten    --     25.8402                55.7887                 0.1366

                     28                     29                     30
                      A                      A                      A
 Frequencies --    822.7177               861.9818               890.6904
 Red. masses --      6.1195                 1.4105                 5.6506
 Frc consts  --      2.4404                 0.6175                 2.6412
 IR Inten    --      9.9533                 0.9649               106.5106

                     31                     32                     33
                      A                      A                      A
 Frequencies --    909.6781               953.1762               960.3360
 Red. masses --      1.3598                 1.3462                 5.3413
 Frc consts  --      0.6630                 0.7206                 2.9023
 IR Inten    --      4.9611                 1.8296                15.3966

                     34                     35                     36
                      A                      A                      A
 Frequencies --    960.8635               999.7161              1033.0404
 Red. masses --      1.3763                 1.2979                 3.3608
 Frc consts  --      0.7487                 0.7643                 2.1131
 IR Inten    --      0.2488                 0.0004                 2.9407

                     37                     38                     39
                      A                      A                      A
 Frequencies --   1039.6051              1053.8065              1095.5661
 Red. masses --      2.2194                 1.8546                 4.1992
 Frc consts  --      1.4132                 1.2134                 2.9695
 IR Inten    --      0.2582                10.5217                44.5241

                     40                     41                     42
                      A                      A                      A
 Frequencies --   1139.5200              1158.5682              1175.3446
 Red. masses --      1.3999                 1.3947                 1.1655
 Frc consts  --      1.0710                 1.1030                 0.9486
 IR Inten    --     36.5597                17.2361                27.7536

                     43                     44                     45
                      A                      A                      A
 Frequencies --   1177.1372              1182.0789              1247.6209
 Red. masses --      1.0537                 1.1780                 1.9266
 Frc consts  --      0.8602                 0.9698                 1.7669
 IR Inten    --     65.3462                95.3938                99.9333

                     46                     47                     48
                      A                      A                      A
 Frequencies --   1259.5306              1289.8223              1368.5638
 Red. masses --      3.1382                 1.9494                 3.7161
 Frc consts  --      2.9333                 1.9108                 4.1008
 IR Inten    --     60.4569                11.3380                 2.4516

                     49                     50                     51
                      A                      A                      A
 Frequencies --   1374.3779              1403.7285              1423.1672
 Red. masses --      3.3412                 2.3332                 2.4880
 Frc consts  --      3.7184                 2.7088                 2.9690
 IR Inten    --    276.0685                 2.0541                77.8135

                     52                     53                     54
                      A                      A                      A
 Frequencies --   1448.5503              1479.2274              1524.1347
 Red. masses --      3.9583                 3.0090                 4.4864
 Frc consts  --      4.8936                 3.8791                 6.1404
 IR Inten    --    338.5552               158.0173               184.5564

                     55                     56                     57
                      A                      A                      A
 Frequencies --   1534.8926              1544.2073              1569.6781
 Red. masses --      4.3935                 4.3493                 5.6728
 Frc consts  --      6.0984                 6.1105                 8.2351
 IR Inten    --     80.9066                94.1725               506.3682

                     58                     59                     60
                      A                      A                      A
 Frequencies --   1615.3589              1647.8188              1658.3892
 Red. masses --      5.9662                 5.9293                 4.1042
 Frc consts  --      9.1725                 9.4858                 6.6505
 IR Inten    --    298.2795               814.4474               411.3228

                     61                     62                     63
                      A                      A                      A
 Frequencies --   1817.2828              3208.0200              3209.5635
 Red. masses --      1.1221                 1.0862                 1.0867
 Frc consts  --      2.1833                 6.5863                 6.5958
 IR Inten    --    120.3297                 9.3520                 9.3583

                     64                     65                     66
                      A                      A                      A
 Frequencies --   3219.1417              3220.5856              3228.3630
 Red. masses --      1.0900                 1.0888                 1.0938
 Frc consts  --      6.6550                 6.6537                 6.7168
 IR Inten    --      2.8496                 3.7924                15.4422

                     67                     68                     69
                      A                      A                      A
 Frequencies --   3230.6572              3236.9021              3240.3518
 Red. masses --      1.0952                 1.0991                 1.0983
 Frc consts  --      6.7346                 6.7851                 6.7945
 IR Inten    --     10.3807                34.1779                20.9411

 - Thermochemistry -
 -------------------
 Temperature   298.150 Kelvin.  Pressure   1.00000 Atm.
 Atom     1 has atomic number  6 and mass  12.00000

 Molecular mass:   227.04049 amu.
 Principal axes and moments of inertia in atomic units:
                           1         2         3
     Eigenvalues --  1300.556366308.574377609.13073
           X           -0.70394   0.71026   0.00000
           Y            0.71026   0.70394  -0.00001
           Z            0.00001   0.00001   1.00000
 This molecule is an asymmetric top.
 Rotational symmetry number  1.
 Warning -- assumption of classical behavior for rotation
           may cause significant error
 Rotational temperatures (Kelvin)      0.06660     0.01373     0.01138
 Rotational constants (GHZ):           1.38767     0.28608     0.23718
    1 imaginary frequencies ignored.
 Zero-point vibrational energy     481157.7 (Joules/Mol)
                                  114.99946 (Kcal/Mol)
 Warning -- explicit consideration of  18 degrees of freedom as
           vibrations may cause significant error
 Vibrational temperatures:     61.34    77.19   156.76   253.57   270.03
          (Kelvin)            320.05   391.73   392.27   546.18   580.63
                              630.88   640.36   693.47   718.99   726.72
                              769.31   801.38   830.99   913.80  1014.25
                             1024.64  1062.20  1065.59  1087.52  1106.00
                             1171.96  1183.71  1240.20  1281.50  1308.82
                             1371.41  1381.71  1382.47  1438.37  1486.31
                             1495.76  1516.19  1576.28  1639.52  1666.92
                             1691.06  1693.64  1700.75  1795.05  1812.18
                             1855.77  1969.06  1977.42  2019.65  2047.62
                             2084.14  2128.28  2192.89  2208.37  2221.77
                             2258.42  2324.14  2370.84  2386.05  2614.66
                             4615.63  4617.85  4631.63  4633.70  4644.89
                             4648.20  4657.18  4662.14

 Zero-point correction=                           0.183263 (Hartree/Particle)
 Thermal correction to Energy=                    0.195067
 Thermal correction to Enthalpy=                  0.196011
 Thermal correction to Gibbs Free Energy=         0.144336
 Sum of electronic and zero-point Energies=          -1028.508741
 Sum of electronic and thermal Energies=             -1028.496937
 Sum of electronic and thermal Enthalpies=           -1028.495993
 Sum of electronic and thermal Free Energies=        -1028.547668

                     E (Thermal)             CV                S
                      KCal/Mol        Cal/Mol-Kelvin    Cal/Mol-Kelvin
 Total                  122.406             47.655            108.759
 Electronic               0.000              0.000              0.000
 Translational            0.889              2.981             42.162
 Rotational               0.889              2.981             32.501
 Vibrational            120.629             41.693             34.096
 Vibration     1          0.595              1.980              5.133
 Vibration     2          0.596              1.976              4.678
 Vibration     3          0.606              1.942              3.287
 Vibration     4          0.628              1.872              2.368
 Vibration     5          0.632              1.857              2.251
 Vibration     6          0.648              1.807              1.939
 Vibration     7          0.675              1.724              1.582
 Vibration     8          0.676              1.724              1.579
 Vibration     9          0.750              1.514              1.041
 Vibration    10          0.769              1.462              0.950
 Vibration    11          0.799              1.386              0.831
 Vibration    12          0.804              1.372              0.811
 Vibration    13          0.838              1.290              0.705
 Vibration    14          0.855              1.251              0.659
 Vibration    15          0.860              1.239              0.646
 Vibration    16          0.890              1.173              0.577
 Vibration    17          0.912              1.124              0.530
 Vibration    18          0.934              1.080              0.490

 Optimization completed.
    -- Stationary point found.
 Normal termination of Gaussian 16 at Mon Jul 13 14:24:01 2020.
