 Gaussian 16, Revision C.01,
 Gaussian 16:  ES64L-G16RevC.01  3-Jul-2019

 ----------------------------------------------------------------------
 #p opt=addgic freq td wb97xd/cc-pvdz nosymm int=ultrafine scrf=(solven
 t=CarbonTetraChloride)
 ----------------------------------------------------------------------

 ------------------------------------------------
 NM 2D-scan of HBT TD-WB97XD pVDZ in CTC Relaxed.
 ------------------------------------------------
 Symbolic Z-matrix:
 Charge =  0 Multiplicity = 1

 SCF Done:  E(RwB97XD) =  -1028.81067826     A.U. after   15 cycles
 Total Energy, E(TD-HF/TD-DFT) =  -1028.68991487
 SCF Done:  E(RwB97XD) =  -1028.81084430     A.U. after   10 cycles
 Total Energy, E(TD-HF/TD-DFT) =  -1028.68997145
 SCF Done:  E(RwB97XD) =  -1028.81075989     A.U. after    9 cycles
 Total Energy, E(TD-HF/TD-DFT) =  -1028.68997795
 SCF Done:  E(RwB97XD) =  -1028.81055160     A.U. after   10 cycles
 Total Energy, E(TD-HF/TD-DFT) =  -1028.68998525
 Optimization completed.
    -- Stationary point found.
 Normal termination of Gaussian 16 at Mon Jul 13 14:43:29 2020.

 ----------------------------------------------------------------------
 #P Geom=AllCheck Guess=TCheck SCRF=Check GenChk RwB97XD TD(FC,Read)/CC
 -pVDZ Freq
 ----------------------------------------------------------------------

 Structure from the checkpoint file:  "config_6_13.chk"
 ------------------------------------------------
 NM 2D-scan of HBT TD-WB97XD pVDZ in CTC Relaxed.
 ------------------------------------------------
 Charge =  0 Multiplicity = 1

                          Input orientation:
 ---------------------------------------------------------------------
 Center     Atomic      Atomic             Coordinates (Angstroms)
 Number     Number       Type             X           Y           Z
 ---------------------------------------------------------------------
      1          6           0        1.590461   -3.256990   -0.000031
      2          6           0        0.999326   -1.998286   -0.000025
      3          6           0        1.758231   -0.790342   -0.000018
      4          6           0        3.166203   -0.894402   -0.000019
      5          6           0        3.748865   -2.155524   -0.000024
      6          6           0        2.979582   -3.332142   -0.000030
      7          1           0        0.976201   -4.158300   -0.000036
      8          1           0        3.777660    0.008534   -0.000014
      9          1           0        4.837615   -2.233456   -0.000024
     10          1           0        3.471595   -4.305479   -0.000034
     11          7           0        0.992804    0.338774   -0.000012
     12         16           0       -0.712482   -1.656664   -0.000026
     13          6           0       -1.339274    1.052388    0.000021
     14          6           0       -2.713641    0.769506    0.000033
     15          6           0       -0.900839    2.457622    0.000037
     16          6           0       -3.648520    1.808856    0.000034
     17          1           0       -3.056680   -0.266532    0.000034
     18          6           0       -1.880063    3.478267    0.000032
     19          6           0       -3.238573    3.156142    0.000029
     20          1           0       -4.712680    1.567836    0.000036
     21          1           0       -1.535663    4.513081    0.000038
     22          1           0       -3.986273    3.949655    0.000027
     23          6           0       -0.338995    0.056154   -0.000008
     24          8           0        0.367322    2.707116    0.000055
     25          1           0        0.955007    1.626892    0.000027
 ---------------------------------------------------------------------

 SCF Done:  E(RwB97XD) =  -1028.81055160     A.U. after    1 cycles

 Excitation energies and oscillator strengths:

 Excited state symmetry could not be determined.
 Excited State   1:      Singlet-?Sym    3.2808 eV  377.91 nm  f=0.5060  <S**2>=0.000
      59 -> 60         0.69320
 This state for optimization and/or second-order correction.
 Total Energy, E(TD-HF/TD-DFT) =  -1028.68998521
 Copying the excited state density for this state as the 1-particle RhoCI density.

 Excited state symmetry could not be determined.
 Excited State   2:      Singlet-?Sym    4.3655 eV  284.01 nm  f=0.3151  <S**2>=0.000
      57 -> 60         0.12393
      58 -> 60         0.66549

 Excited state symmetry could not be determined.
 Excited State   3:      Singlet-?Sym    4.6836 eV  264.72 nm  f=0.0000  <S**2>=0.000
      56 -> 60         0.68885
      56 -> 64        -0.10008

 Alpha  occ. eigenvalues --  -89.09507 -19.24992 -14.49283 -10.40513 -10.37193
 Alpha  occ. eigenvalues --  -10.36345 -10.35303 -10.32592 -10.32172 -10.31987
 Alpha  occ. eigenvalues --  -10.31854 -10.31783 -10.31623 -10.31508 -10.29945
 Alpha  occ. eigenvalues --  -10.29659  -8.11557  -6.06403  -6.06055  -6.05604
 Alpha  occ. eigenvalues --   -1.13842  -1.09389  -0.97263  -0.95666  -0.92668
 Alpha  occ. eigenvalues --   -0.88917  -0.85733  -0.83825  -0.82268  -0.75845
 Alpha  occ. eigenvalues --   -0.71443  -0.70981  -0.68684  -0.67800  -0.63594
 Alpha  occ. eigenvalues --   -0.60860  -0.59263  -0.57905  -0.55489  -0.54622
 Alpha  occ. eigenvalues --   -0.54345  -0.53483  -0.52870  -0.50845  -0.49839
 Alpha  occ. eigenvalues --   -0.49615  -0.47044  -0.46366  -0.45612  -0.44984
 Alpha  occ. eigenvalues --   -0.44224  -0.42983  -0.42219  -0.40634  -0.36566
 Alpha  occ. eigenvalues --   -0.35344  -0.32656  -0.31258  -0.27546
 Alpha virt. eigenvalues --   -0.01773   0.04552   0.06489   0.07182   0.08000
 Alpha virt. eigenvalues --    0.10714   0.14386   0.14982   0.16616   0.17844
 Alpha virt. eigenvalues --    0.18708   0.20849   0.21453   0.22091   0.22606

 Mulliken charges:
               1
     1  C    0.020174
     2  C   -0.226909
     3  C    0.258516
     4  C   -0.017839
     5  C    0.007299
     6  C   -0.000747
     7  H    0.020723
     8  H    0.024257
     9  H    0.022622
    10  H    0.022950
    11  N   -0.319180
    12  S    0.180421
    13  C   -0.098632
    14  C   -0.027474
    15  C    0.125354
    16  C   -0.023226
    17  H    0.014812
    18  C   -0.012372
    19  C    0.027926
    20  H    0.006851
    21  H    0.012101
    22  H    0.020043
    23  C    0.076637
    24  O   -0.347326
    25  H    0.233018
 Sum of Mulliken charges =  -0.00000

 Dipole moment (field-independent basis, Debye):
    X=              0.3024    Y=             -3.6809    Z=             -0.0001  Tot=              3.6933
 Quadrupole moment (field-independent basis, Debye-Ang):
   XX=            -83.0295   YY=            -91.8100   ZZ=           -104.2370
   XY=             -6.9739   XZ=             -0.0001   YZ=             -0.0001

  Exact polarizability:     362.227    -145.359     325.031      -0.002       0.003      63.236
 Approx polarizability:     273.916     -34.816     260.672      -0.000       0.001      82.260

 ******    1 imaginary frequencies (negative Signs) ******

                      1                      2                      3
                      A                      A                      A
 Frequencies --  -1308.2288                44.7854                61.5726
 Red. masses --      1.0643                 6.0236                 5.5619
 Frc consts  --      1.0732                 0.0071                 0.0124
 IR Inten    --   1630.7235                 1.3785                 0.1706

                      4                      5                      6
                      A                      A                      A
 Frequencies --    114.9233               141.0212               178.4090
 Red. masses --      5.5952                 5.6850                 6.2617
 Frc consts  --      0.0435                 0.0666                 0.1174
 IR Inten    --      0.0184                 3.0455                 0.7050

                      7                      8                      9
                      A                      A                      A
 Frequencies --    220.5889               272.0480               277.7429
 Red. masses --      5.3920                 4.6923                 7.4149
 Frc consts  --      0.1546                 0.2046                 0.3370
 IR Inten    --      0.0503                 0.0697                12.7985

                     10                     11                     12
                      A                      A                      A
 Frequencies --    370.5909               375.6700               415.2440
 Red. masses --      4.8767                 6.3476                11.4519
 Frc consts  --      0.3946                 0.5278                 1.1634
 IR Inten    --      0.2842                 3.7903                 4.6348

                     13                     14                     15
                      A                      A                      A
 Frequencies --    438.7307               472.7890               499.8169
 Red. masses --      3.2145                 4.8152                 3.1685
 Frc consts  --      0.3645                 0.6342                 0.4664
 IR Inten    --      4.3641                 0.2543                 0.4022

                     16                     17                     18
                      A                      A                      A
 Frequencies --    507.2182               543.3584               559.1071
 Red. masses --      8.8686                 8.4731                 3.8821
 Frc consts  --      1.3443                 1.4739                 0.7150
 IR Inten    --      2.0912                 5.9931                 0.2412

                     19                     20                     21
                      A                      A                      A
 Frequencies --    576.2393               604.5391               664.4339
 Red. masses --      7.6319                 7.0385                 6.8199
 Frc consts  --      1.4931                 1.5156                 1.7739
 IR Inten    --      7.0218                 9.3328                98.2484

                     22                     23                     24
                      A                      A                      A
 Frequencies --    699.1088               724.8667               742.4237
 Red. masses --      1.5948                 6.4217                 2.1713
 Frc consts  --      0.4593                 1.9880                 0.7051
 IR Inten    --     44.4967                10.7732                22.3231

                     25                     26                     27
                      A                      A                      A
 Frequencies --    750.3098               759.3636               767.0044
 Red. masses --      9.1656                 1.8574                 1.8373
 Frc consts  --      3.0401                 0.6311                 0.6368
 IR Inten    --     27.1671                17.8773                67.5246

                     28                     29                     30
                      A                      A                      A
 Frequencies --    814.7494               830.8341               864.7569
 Red. masses --      1.7408                 6.2776                 1.3983
 Frc consts  --      0.6809                 2.5531                 0.6161
 IR Inten    --      0.0377                 6.5561                 0.9944

                     31                     32                     33
                      A                      A                      A
 Frequencies --    905.5011               913.5138               954.1535
 Red. masses --      1.3726                 6.8186                 1.3494
 Frc consts  --      0.6631                 3.3526                 0.7238
 IR Inten    --      4.8370                27.6505                 1.9416

                     34                     35                     36
                      A                      A                      A
 Frequencies --    957.5190               992.9855              1000.6603
 Red. masses --      1.3818                 7.6187                 1.2972
 Frc consts  --      0.7464                 4.4261                 0.7653
 IR Inten    --      0.3431                12.0953                 0.0009

                     37                     38                     39
                      A                      A                      A
 Frequencies --   1041.5649              1049.5778              1092.7972
 Red. masses --      2.0950                 2.0559                 3.9719
 Frc consts  --      1.3391                 1.3344                 2.7947
 IR Inten    --      2.7740                 2.4575                65.3872

                     40                     41                     42
                      A                      A                      A
 Frequencies --   1132.7628              1153.1058              1171.5860
 Red. masses --      1.4645                 1.3739                 1.1675
 Frc consts  --      1.1072                 1.0763                 0.9442
 IR Inten    --     26.2806                22.2252                74.2932

                     43                     44                     45
                      A                      A                      A
 Frequencies --   1178.3474              1233.4033              1254.1837
 Red. masses --      1.1819                 1.0500                 1.8316
 Frc consts  --      0.9669                 0.9411                 1.6975
 IR Inten    --     24.7256                66.7737               105.2236

                     46                     47                     48
                      A                      A                      A
 Frequencies --   1267.3268              1299.8924              1347.6959
 Red. masses --      2.5189                 2.3918                 4.0439
 Frc consts  --      2.3836                 2.3812                 4.3274
 IR Inten    --     28.1135                13.3134                52.1476

                     49                     50                     51
                      A                      A                      A
 Frequencies --   1365.5434              1386.2122              1405.2491
 Red. masses --      5.9108                 2.5160                 2.7096
 Frc consts  --      6.4939                 2.8485                 3.1526
 IR Inten    --    313.3437                42.7190                38.3777

                     52                     53                     54
                      A                      A                      A
 Frequencies --   1444.9159              1476.6103              1506.7362
 Red. masses --      2.9368                 3.2360                 3.6026
 Frc consts  --      3.6125                 4.1571                 4.8188
 IR Inten    --    331.6329                42.0903                19.2866

                     55                     56                     57
                      A                      A                      A
 Frequencies --   1519.6127              1547.9582              1569.6077
 Red. masses --      4.8207                 4.9547                 5.0075
 Frc consts  --      6.5588                 6.9949                 7.2686
 IR Inten    --    397.7414                66.6379               209.2498

                     58                     59                     60
                      A                      A                      A
 Frequencies --   1620.3834              1637.5537              1654.3435
 Red. masses --      6.0177                 6.1109                 6.3778
 Frc consts  --      9.3092                 9.6548                10.2843
 IR Inten    --     85.1231              1002.1651               113.0280

                     61                     62                     63
                      A                      A                      A
 Frequencies --   1840.4484              3207.8356              3209.0874
 Red. masses --      1.0978                 1.0861                 1.0869
 Frc consts  --      2.1909                 6.5847                 6.5946
 IR Inten    --    145.6580                 7.2317                15.4228

                     64                     65                     66
                      A                      A                      A
 Frequencies --   3217.7921              3220.2319              3228.3873
 Red. masses --      1.0902                 1.0887                 1.0936
 Frc consts  --      6.6509                 6.6519                 6.7152
 IR Inten    --      2.6847                 5.7935                16.0715

                     67                     68                     69
                      A                      A                      A
 Frequencies --   3228.8445              3235.9082              3240.5955
 Red. masses --      1.0952                 1.0994                 1.0982
 Frc consts  --      6.7271                 6.7824                 6.7949
 IR Inten    --      9.1576                25.4564                18.5651

 - Thermochemistry -
 -------------------
 Temperature   298.150 Kelvin.  Pressure   1.00000 Atm.
 Atom     1 has atomic number  6 and mass  12.00000

 Molecular mass:   227.04049 amu.
 Principal axes and moments of inertia in atomic units:
                           1         2         3
     Eigenvalues --  1290.128936300.825687590.95461
           X           -0.70482   0.70938   0.00000
           Y            0.70938   0.70482  -0.00001
           Z            0.00001   0.00001   1.00000
 This molecule is an asymmetric top.
 Rotational symmetry number  1.
 Warning -- assumption of classical behavior for rotation
           may cause significant error
 Rotational temperatures (Kelvin)      0.06714     0.01375     0.01141
 Rotational constants (GHZ):           1.39888     0.28643     0.23775
    1 imaginary frequencies ignored.
 Zero-point vibrational energy     478522.3 (Joules/Mol)
                                  114.36957 (Kcal/Mol)
 Warning -- explicit consideration of  19 degrees of freedom as
           vibrations may cause significant error
 Vibrational temperatures:     64.44    88.59   165.35   202.90   256.69
          (Kelvin)            317.38   391.42   399.61   533.20   540.51
                              597.44   631.24   680.24   719.13   729.77
                              781.77   804.43   829.08   869.80   955.97
                             1005.86  1042.92  1068.18  1079.53  1092.55
                             1103.55  1172.24  1195.39  1244.19  1302.81
                             1314.34  1372.81  1377.66  1428.68  1439.73
                             1498.58  1510.11  1572.29  1629.79  1659.06
                             1685.65  1695.38  1774.59  1804.49  1823.40
                             1870.26  1939.03  1964.71  1994.45  2021.84
                             2078.91  2124.51  2167.86  2186.38  2227.17
                             2258.32  2331.37  2356.07  2380.23  2647.99
                             4615.36  4617.16  4629.69  4633.20  4644.93
                             4645.59  4655.75  4662.49

 Zero-point correction=                           0.182260 (Hartree/Particle)
 Thermal correction to Energy=                    0.194258
 Thermal correction to Enthalpy=                  0.195202
 Thermal correction to Gibbs Free Energy=         0.143280
 Sum of electronic and zero-point Energies=          -1028.507726
 Sum of electronic and thermal Energies=             -1028.495728
 Sum of electronic and thermal Enthalpies=           -1028.494783
 Sum of electronic and thermal Free Energies=        -1028.546706

                     E (Thermal)             CV                S
                      KCal/Mol        Cal/Mol-Kelvin    Cal/Mol-Kelvin
 Total                  121.899             48.334            109.279
 Electronic               0.000              0.000              0.000
 Translational            0.889              2.981             42.162
 Rotational               0.889              2.981             32.490
 Vibrational            120.121             42.373             34.628
 Vibration     1          0.595              1.979              5.035
 Vibration     2          0.597              1.973              4.406
 Vibration     3          0.608              1.937              3.184
 Vibration     4          0.615              1.912              2.790
 Vibration     5          0.629              1.869              2.345
 Vibration     6          0.647              1.810              1.954
 Vibration     7          0.675              1.725              1.583
 Vibration     8          0.679              1.715              1.548
 Vibration     9          0.743              1.533              1.077
 Vibration    10          0.747              1.522              1.057
 Vibration    11          0.779              1.437              0.908
 Vibration    12          0.799              1.386              0.831
 Vibration    13          0.830              1.310              0.730
 Vibration    14          0.855              1.250              0.659
 Vibration    15          0.862              1.234              0.640
 Vibration    16          0.898              1.154              0.558
 Vibration    17          0.915              1.120              0.526
 Vibration    18          0.933              1.083              0.492
 Vibration    19          0.963              1.022              0.442

 Optimization completed.
    -- Stationary point found.
 Normal termination of Gaussian 16 at Mon Jul 13 15:01:56 2020.
