 Gaussian 16, Revision C.01,
 Gaussian 16:  ES64L-G16RevC.01  3-Jul-2019

 ----------------------------------------------------------------------
 #p opt=addgic freq td wb97xd/cc-pvdz nosymm int=ultrafine scrf=(solven
 t=CarbonTetraChloride)
 ----------------------------------------------------------------------

 ------------------------------------------------
 NM 2D-scan of HBT TD-WB97XD pVDZ in CTC Relaxed.
 ------------------------------------------------
 Symbolic Z-matrix:
 Charge =  0 Multiplicity = 1

 SCF Done:  E(RwB97XD) =  -1028.60299074     A.U. after   15 cycles
 Total Energy, E(TD-HF/TD-DFT) =  -1028.47178767
 SCF Done:  E(RwB97XD) =  -1028.77445210     A.U. after   13 cycles
 Total Energy, E(TD-HF/TD-DFT) =  -1028.64513495
 SCF Done:  E(RwB97XD) =  -1028.79208587     A.U. after   15 cycles
 Total Energy, E(TD-HF/TD-DFT) =  -1028.66729150
 SCF Done:  E(RwB97XD) =  -1028.80802334     A.U. after   13 cycles
 Total Energy, E(TD-HF/TD-DFT) =  -1028.68187396
 SCF Done:  E(RwB97XD) =  -1028.80923957     A.U. after   12 cycles
 Total Energy, E(TD-HF/TD-DFT) =  -1028.68235742
 SCF Done:  E(RwB97XD) =  -1028.80929033     A.U. after   10 cycles
 Total Energy, E(TD-HF/TD-DFT) =  -1028.68241955
 SCF Done:  E(RwB97XD) =  -1028.80937429     A.U. after    9 cycles
 Total Energy, E(TD-HF/TD-DFT) =  -1028.68242690
 Optimization completed.
    -- Stationary point found.
 Normal termination of Gaussian 16 at Mon Jul 13 17:54:53 2020.

 ----------------------------------------------------------------------
 #P Geom=AllCheck Guess=TCheck SCRF=Check GenChk RwB97XD TD(FC,Read)/CC
 -pVDZ Freq
 ----------------------------------------------------------------------

 Structure from the checkpoint file:  "config_2_3.chk"
 ------------------------------------------------
 NM 2D-scan of HBT TD-WB97XD pVDZ in CTC Relaxed.
 ------------------------------------------------
 Charge =  0 Multiplicity = 1

                          Input orientation:
 ---------------------------------------------------------------------
 Center     Atomic      Atomic             Coordinates (Angstroms)
 Number     Number       Type             X           Y           Z
 ---------------------------------------------------------------------
      1          6           0        1.738690   -3.312422   -0.000030
      2          6           0        0.967570   -2.146451   -0.000016
      3          6           0        1.632160   -0.870407   -0.000003
      4          6           0        3.050079   -0.785127    0.000001
      5          6           0        3.786344   -1.942284   -0.000012
      6          6           0        3.135632   -3.198598   -0.000029
      7          1           0        1.274189   -4.299531   -0.000040
      8          1           0        3.507566    0.204720    0.000013
      9          1           0        4.876882   -1.900436   -0.000011
     10          1           0        3.736994   -4.109293   -0.000040
     11          7           0        0.874060    0.214373    0.000003
     12         16           0       -0.779198   -1.878903   -0.000012
     13          6           0       -1.379864    1.016264   -0.000009
     14          6           0       -2.808501    0.896670   -0.000020
     15          6           0       -0.889830    2.426644    0.000013
     16          6           0       -3.638559    2.004313    0.000025
     17          1           0       -3.248104   -0.102472   -0.000055
     18          6           0       -1.764428    3.515610    0.000069
     19          6           0       -3.131162    3.327790    0.000081
     20          1           0       -4.719269    1.852657    0.000021
     21          1           0       -1.307658    4.505524    0.000094
     22          1           0       -3.808861    4.181648    0.000123
     23          6           0       -0.455084   -0.058618   -0.000007
     24          8           0        0.384737    2.799852   -0.000023
     25          1           0        0.941819    1.993507   -0.000037
 ---------------------------------------------------------------------

 SCF Done:  E(RwB97XD) =  -1028.80937429     A.U. after    1 cycles

 Excitation energies and oscillator strengths:

 Excited state symmetry could not be determined.
 Excited State   1:      Singlet-?Sym    3.4544 eV  358.92 nm  f=0.7283  <S**2>=0.000
      59 -> 60         0.69030
 This state for optimization and/or second-order correction.
 Total Energy, E(TD-HF/TD-DFT) =  -1028.68242688
 Copying the excited state density for this state as the 1-particle RhoCI density.

 Excited state symmetry could not be determined.
 Excited State   2:      Singlet-?Sym    4.3757 eV  283.35 nm  f=0.1990  <S**2>=0.000
      57 -> 60        -0.26793
      58 -> 60        -0.60188
      59 -> 63         0.16355

 Excited state symmetry could not be determined.
 Excited State   3:      Singlet-?Sym    4.5305 eV  273.66 nm  f=0.0518  <S**2>=0.000
      57 -> 60         0.55996
      57 -> 64        -0.13685
      58 -> 60        -0.25401
      58 -> 61        -0.11431
      59 -> 61         0.24641

 Alpha  occ. eigenvalues --  -89.09188 -19.28997 -14.46689 -10.40003 -10.38418
 Alpha  occ. eigenvalues --  -10.35002 -10.34582 -10.33412 -10.32371 -10.32314
 Alpha  occ. eigenvalues --  -10.31858 -10.31441 -10.31194 -10.31129 -10.30507
 Alpha  occ. eigenvalues --  -10.30196  -8.10963  -6.05833  -6.05498  -6.05008
 Alpha  occ. eigenvalues --   -1.17479  -1.08102  -0.96566  -0.95461  -0.91119
 Alpha  occ. eigenvalues --   -0.88749  -0.84993  -0.84220  -0.82213  -0.76016
 Alpha  occ. eigenvalues --   -0.71044  -0.70125  -0.69088  -0.68141  -0.63225
 Alpha  occ. eigenvalues --   -0.60020  -0.58876  -0.58360  -0.55847  -0.54379
 Alpha  occ. eigenvalues --   -0.53387  -0.53032  -0.52547  -0.50938  -0.50432
 Alpha  occ. eigenvalues --   -0.49028  -0.48091  -0.45766  -0.45444  -0.44656
 Alpha  occ. eigenvalues --   -0.43607  -0.42873  -0.42138  -0.39813  -0.37443
 Alpha  occ. eigenvalues --   -0.36386  -0.32110  -0.31502  -0.27836
 Alpha virt. eigenvalues --   -0.01909   0.05216   0.06829   0.06924   0.07103
 Alpha virt. eigenvalues --    0.11287   0.12370   0.15089   0.15729   0.17688
 Alpha virt. eigenvalues --    0.18576   0.20496   0.21688   0.22253   0.22762

 Mulliken charges:
               1
     1  C    0.002927
     2  C   -0.215731
     3  C    0.228307
     4  C   -0.014912
     5  C    0.010406
     6  C   -0.010888
     7  H    0.019838
     8  H    0.014440
     9  H    0.017736
    10  H    0.020421
    11  N   -0.336216
    12  S    0.142236
    13  C   -0.093574
    14  C   -0.013301
    15  C    0.082383
    16  C   -0.012779
    17  H    0.011243
    18  C    0.020220
    19  C    0.019941
    20  H    0.012391
    21  H    0.019650
    22  H    0.022236
    23  C    0.072262
    24  O   -0.179538
    25  H    0.160303
 Sum of Mulliken charges =  -0.00000

 Dipole moment (field-independent basis, Debye):
    X=             -0.2619    Y=             -1.4895    Z=              0.0000  Tot=              1.5124
 Quadrupole moment (field-independent basis, Debye-Ang):
   XX=            -83.1149   YY=            -88.8386   ZZ=           -104.6077
   XY=             -6.6767   XZ=             -0.0001   YZ=              0.0004

  Exact polarizability:     410.528    -199.931     400.454      -0.002       0.004      63.654
 Approx polarizability:     282.880     -37.398     265.779      -0.001       0.003      82.570

                      1                      2                      3
                      A                      A                      A
 Frequencies --     24.3075                64.5965               106.7984
 Red. masses --      5.8733                 5.9603                 5.6193
 Frc consts  --      0.0020                 0.0147                 0.0378
 IR Inten    --      1.1066                 0.0169                 2.1229

                      4                      5                      6
                      A                      A                      A
 Frequencies --    107.4248               182.9101               224.3956
 Red. masses --      4.5725                 6.7428                 5.4329
 Frc consts  --      0.0311                 0.1329                 0.1612
 IR Inten    --      0.4717                 0.7039                 0.0001

                      7                      8                      9
                      A                      A                      A
 Frequencies --    255.5087               265.2729               278.5216
 Red. masses --      8.4294                 4.7892                 6.3623
 Frc consts  --      0.3242                 0.1986                 0.2908
 IR Inten    --     14.5711                 0.2665                13.4873

                     10                     11                     12
                      A                      A                      A
 Frequencies --    385.1379               397.0664               437.1269
 Red. masses --      8.4918                 4.7000                 3.2771
 Frc consts  --      0.7421                 0.4366                 0.3689
 IR Inten    --     13.4525                 0.1895                 4.6892

                     13                     14                     15
                      A                      A                      A
 Frequencies --    478.7785               493.8435               496.5754
 Red. masses --      4.6405                 4.4293                 9.1603
 Frc consts  --      0.6267                 0.6364                 1.3309
 IR Inten    --     21.9424                 0.0569                 0.4373

                     16                     17                     18
                      A                      A                      A
 Frequencies --    505.6427               523.6184               544.8365
 Red. masses --      3.1282                 8.1609                 3.8768
 Frc consts  --      0.4712                 1.3183                 0.6780
 IR Inten    --      0.4437                24.7615                 0.5121

                     19                     20                     21
                      A                      A                      A
 Frequencies --    578.3827               632.0578               651.6012
 Red. masses --      7.7916                 7.4588                 7.4616
 Frc consts  --      1.5357                 1.7556                 1.8666
 IR Inten    --     81.5168                55.0152                 4.0862

                     22                     23                     24
                      A                      A                      A
 Frequencies --    699.7492               711.3166               730.8425
 Red. masses --      6.8373                 1.6985                 1.8792
 Frc consts  --      1.9725                 0.5063                 0.5914
 IR Inten    --      8.9375                67.3322                31.0472

                     25                     26                     27
                      A                      A                      A
 Frequencies --    748.0654               770.2698               779.7430
 Red. masses --      1.7749                 1.9030                 1.3142
 Frc consts  --      0.5852                 0.6652                 0.4708
 IR Inten    --     34.1313                27.6133                69.9812

                     28                     29                     30
                      A                      A                      A
 Frequencies --    792.6202               831.8689               856.8728
 Red. masses --      6.8200                 1.4831                 1.4394
 Frc consts  --      2.5244                 0.6047                 0.6227
 IR Inten    --     19.6125                 0.5370                 2.1598

                     31                     32                     33
                      A                      A                      A
 Frequencies --    885.6135               929.5749               939.2586
 Red. masses --      6.3291                 1.3414                 7.0582
 Frc consts  --      2.9247                 0.6829                 3.6687
 IR Inten    --     48.7115                 2.7315                 9.8096

                     34                     35                     36
                      A                      A                      A
 Frequencies --    951.7201               969.2727               998.4277
 Red. masses --      1.3451                 1.3418                 1.3017
 Frc consts  --      0.7178                 0.7427                 0.7645
 IR Inten    --      1.9317                 0.0221                 0.0138

                     37                     38                     39
                      A                      A                      A
 Frequencies --   1034.2101              1039.3456              1062.9964
 Red. masses --      2.1666                 2.2860                 5.1047
 Frc consts  --      1.3653                 1.4549                 3.3985
 IR Inten    --      1.8250                 4.4910                25.2684

                     40                     41                     42
                      A                      A                      A
 Frequencies --   1132.4459              1146.0907              1173.9365
 Red. masses --      1.5526                 1.2954                 1.1696
 Frc consts  --      1.1731                 1.0025                 0.9497
 IR Inten    --     32.3939                15.7509                28.0801

                     43                     44                     45
                      A                      A                      A
 Frequencies --   1177.4568              1214.3549              1228.1016
 Red. masses --      1.1670                 3.4044                 1.7917
 Frc consts  --      0.9533                 2.9579                 1.5922
 IR Inten    --      3.5099               190.0194                72.1867

                     46                     47                     48
                      A                      A                      A
 Frequencies --   1262.8201              1273.3237              1355.8104
 Red. masses --      2.5011                 1.6202                 2.8258
 Frc consts  --      2.3500                 1.5477                 3.0605
 IR Inten    --    242.0507                 0.4678                96.6720

                     49                     50                     51
                      A                      A                      A
 Frequencies --   1365.8176              1399.2689              1421.1844
 Red. masses --      5.2996                 2.0211                 2.2689
 Frc consts  --      5.8247                 2.3315                 2.7000
 IR Inten    --     20.8197               129.1751               237.8930

                     52                     53                     54
                      A                      A                      A
 Frequencies --   1458.1066              1470.9455              1521.0623
 Red. masses --      2.0782                 3.0617                 5.5797
 Frc consts  --      2.6033                 3.9030                 7.6060
 IR Inten    --     79.3772                27.6269               125.4187

                     55                     56                     57
                      A                      A                      A
 Frequencies --   1532.2461              1544.5012              1567.0847
 Red. masses --      6.3834                 5.0094                 3.6737
 Frc consts  --      8.8300                 7.0407                 5.3155
 IR Inten    --    613.7658                65.8854                70.6250

                     58                     59                     60
                      A                      A                      A
 Frequencies --   1596.4666              1639.3150              1655.2430
 Red. masses --      5.5388                 5.5418                 6.0297
 Frc consts  --      8.3174                 8.7746                 9.7335
 IR Inten    --     76.2517               368.0374               200.3480

                     61                     62                     63
                      A                      A                      A
 Frequencies --   3202.7861              3207.2972              3215.6096
 Red. masses --      1.0868                 1.0857                 1.0897
 Frc consts  --      6.5684                 6.5803                 6.6386
 IR Inten    --      2.8553                 5.8771                 3.9182

                     64                     65                     66
                      A                      A                      A
 Frequencies --   3217.3884              3226.0178              3226.5111
 Red. masses --      1.0898                 1.0930                 1.0952
 Frc consts  --      6.6467                 6.7021                 6.7175
 IR Inten    --      3.1483                20.8819                14.0393

                     67                     68                     69
                      A                      A                      A
 Frequencies --   3234.5683              3239.2090              3444.3651
 Red. masses --      1.0998                 1.0993                 1.0675
 Frc consts  --      6.7797                 6.7956                 7.4618
 IR Inten    --     39.8768                25.1521                10.4378

 - Thermochemistry -
 -------------------
 Temperature   298.150 Kelvin.  Pressure   1.00000 Atm.
 Atom     1 has atomic number  6 and mass  12.00000

 Molecular mass:   227.04049 amu.
 Principal axes and moments of inertia in atomic units:
                           1         2         3
     Eigenvalues --  1386.347196387.076597773.42378
           X           -0.69229   0.72162   0.00000
           Y            0.72162   0.69229  -0.00001
           Z            0.00001   0.00000   1.00000
 This molecule is an asymmetric top.
 Rotational symmetry number  1.
 Warning -- assumption of classical behavior for rotation
           may cause significant error
 Rotational temperatures (Kelvin)      0.06248     0.01356     0.01114
 Rotational constants (GHZ):           1.30180     0.28256     0.23217
 Zero-point vibrational energy     488767.3 (Joules/Mol)
                                  116.81818 (Kcal/Mol)
 Warning -- explicit consideration of  19 degrees of freedom as
           vibrations may cause significant error
 Vibrational temperatures:     34.97    92.94   153.66   154.56   263.17
          (Kelvin)            322.86   367.62   381.67   400.73   554.13
                              571.29   628.93   688.86   710.53   714.46
                              727.51   753.37   783.90   832.16   909.39
                              937.51  1006.78  1023.43  1051.52  1076.30
                             1108.25  1121.88  1140.40  1196.87  1232.85
                             1274.20  1337.45  1351.38  1369.31  1394.57
                             1436.51  1488.00  1495.39  1529.41  1629.34
                             1648.97  1689.03  1694.10  1747.19  1766.96
                             1816.92  1832.03  1950.71  1965.11  2013.24
                             2044.77  2097.89  2116.36  2188.47  2204.56
                             2222.19  2254.69  2296.96  2358.61  2381.53
                             4608.09  4614.59  4626.54  4629.10  4641.52
                             4642.23  4653.82  4660.50  4955.67

 Zero-point correction=                           0.186162 (Hartree/Particle)
 Thermal correction to Energy=                    0.198684
 Thermal correction to Enthalpy=                  0.199629
 Thermal correction to Gibbs Free Energy=         0.146146
 Sum of electronic and zero-point Energies=          -1028.496265
 Sum of electronic and thermal Energies=             -1028.483743
 Sum of electronic and thermal Enthalpies=           -1028.482798
 Sum of electronic and thermal Free Energies=        -1028.536281

                     E (Thermal)             CV                S
                      KCal/Mol        Cal/Mol-Kelvin    Cal/Mol-Kelvin
 Total                  124.676             50.086            112.564
 Electronic               0.000              0.000              0.000
 Translational            0.889              2.981             42.162
 Rotational               0.889              2.981             32.598
 Vibrational            122.899             44.125             37.804
 Vibration     1          0.593              1.985              6.247
 Vibration     2          0.597              1.971              4.312
 Vibration     3          0.606              1.944              3.326
 Vibration     4          0.606              1.943              3.315
 Vibration     5          0.630              1.863              2.299
 Vibration     6          0.649              1.804              1.923
 Vibration     7          0.666              1.753              1.692
 Vibration     8          0.671              1.737              1.627
 Vibration     9          0.679              1.713              1.543
 Vibration    10          0.754              1.502              1.019
 Vibration    11          0.764              1.476              0.973
 Vibration    12          0.797              1.389              0.836
 Vibration    13          0.835              1.297              0.713
 Vibration    14          0.849              1.264              0.674
 Vibration    15          0.852              1.258              0.667
 Vibration    16          0.861              1.237              0.644
 Vibration    17          0.879              1.198              0.602
 Vibration    18          0.900              1.151              0.555
 Vibration    19          0.935              1.078              0.488

 Optimization completed.
    -- Stationary point found.
 Normal termination of Gaussian 16 at Mon Jul 13 18:12:45 2020.
