 Gaussian 16, Revision C.01,
 Gaussian 16:  ES64L-G16RevC.01  3-Jul-2019

 ----------------------------------------------------------------------
 #p opt=addgic freq td wb97xd/cc-pvdz nosymm int=ultrafine scrf=(solven
 t=CarbonTetraChloride)
 ----------------------------------------------------------------------

 ------------------------------------------------
 NM 2D-scan of HBT TD-WB97XD pVDZ in CTC Relaxed.
 ------------------------------------------------
 Symbolic Z-matrix:
 Charge =  0 Multiplicity = 1

 SCF Done:  E(RwB97XD) =  -1028.80145676     A.U. after   16 cycles
 Total Energy, E(TD-HF/TD-DFT) =  -1028.69008358
 SCF Done:  E(RwB97XD) =  -1028.79818755     A.U. after   14 cycles
 Total Energy, E(TD-HF/TD-DFT) =  -1028.69465228
 SCF Done:  E(RwB97XD) =  -1028.80432794     A.U. after   13 cycles
 Total Energy, E(TD-HF/TD-DFT) =  -1028.69758415
 SCF Done:  E(RwB97XD) =  -1028.80494941     A.U. after   11 cycles
 Total Energy, E(TD-HF/TD-DFT) =  -1028.69764906
 SCF Done:  E(RwB97XD) =  -1028.80498157     A.U. after    9 cycles
 Total Energy, E(TD-HF/TD-DFT) =  -1028.69765249
 Optimization completed.
    -- Stationary point found.
 Normal termination of Gaussian 16 at Mon Jul 13 15:47:15 2020.

 ----------------------------------------------------------------------
 #P Geom=AllCheck Guess=TCheck SCRF=Check GenChk RwB97XD TD(FC,Read)/CC
 -pVDZ Freq
 ----------------------------------------------------------------------

 Structure from the checkpoint file:  "config_8_15.chk"
 ------------------------------------------------
 NM 2D-scan of HBT TD-WB97XD pVDZ in CTC Relaxed.
 ------------------------------------------------
 Charge =  0 Multiplicity = 1

                          Input orientation:
 ---------------------------------------------------------------------
 Center     Atomic      Atomic             Coordinates (Angstroms)
 Number     Number       Type             X           Y           Z
 ---------------------------------------------------------------------
      1          6           0        1.574186   -3.284105   -0.000109
      2          6           0        0.992005   -2.019014   -0.000047
      3          6           0        1.773696   -0.831595    0.000029
      4          6           0        3.174206   -0.937061    0.000052
      5          6           0        3.747211   -2.202616   -0.000013
      6          6           0        2.964343   -3.368202   -0.000093
      7          1           0        0.955328   -4.182215   -0.000162
      8          1           0        3.789388   -0.036911    0.000118
      9          1           0        4.834856   -2.290453    0.000003
     10          1           0        3.446379   -4.346470   -0.000138
     11          7           0        1.018287    0.313731    0.000086
     12         16           0       -0.715819   -1.637573   -0.000027
     13          6           0       -1.321814    1.089885    0.000049
     14          6           0       -2.683349    0.774627    0.000088
     15          6           0       -0.914776    2.512737   -0.000005
     16          6           0       -3.662547    1.784933    0.000086
     17          1           0       -3.004355   -0.269506    0.000131
     18          6           0       -1.943291    3.492246   -0.000046
     19          6           0       -3.293548    3.134453    0.000017
     20          1           0       -4.716488    1.503665    0.000124
     21          1           0       -1.626672    4.536355   -0.000128
     22          1           0       -4.061575    3.908925   -0.000007
     23          6           0       -0.322937    0.076950    0.000038
     24          8           0        0.319136    2.836920   -0.000171
     25          1           0        1.186040    1.382415    0.000225
 ---------------------------------------------------------------------

 SCF Done:  E(RwB97XD) =  -1028.80498157     A.U. after    1 cycles

 Excitation energies and oscillator strengths:

 Excited state symmetry could not be determined.
 Excited State   1:      Singlet-?Sym    2.9206 eV  424.52 nm  f=0.4420  <S**2>=0.000
      59 -> 60         0.69659
 This state for optimization and/or second-order correction.
 Total Energy, E(TD-HF/TD-DFT) =  -1028.69765244
 Copying the excited state density for this state as the 1-particle RhoCI density.

 Excited state symmetry could not be determined.
 Excited State   2:      Singlet-?Sym    3.7699 eV  328.88 nm  f=0.0000  <S**2>=0.000
      57 -> 60         0.68394
      57 -> 62         0.11615
      57 -> 64         0.11639

 Excited state symmetry could not be determined.
 Excited State   3:      Singlet-?Sym    4.2904 eV  288.98 nm  f=0.3546  <S**2>=0.000
      58 -> 60         0.68192

 Alpha  occ. eigenvalues --  -89.10255 -19.21490 -14.52520 -10.41763 -10.37691
 Alpha  occ. eigenvalues --  -10.36205 -10.35985 -10.33285 -10.32894 -10.32467
 Alpha  occ. eigenvalues --  -10.32327 -10.31598 -10.31004 -10.30975 -10.29346
 Alpha  occ. eigenvalues --  -10.28568  -8.12276  -6.07142  -6.06781  -6.06296
 Alpha  occ. eigenvalues --   -1.12471  -1.09063  -0.98233  -0.95509  -0.93239
 Alpha  occ. eigenvalues --   -0.89087  -0.86646  -0.83679  -0.81488  -0.75879
 Alpha  occ. eigenvalues --   -0.72653  -0.72114  -0.68594  -0.67628  -0.64945
 Alpha  occ. eigenvalues --   -0.61006  -0.59633  -0.56799  -0.55693  -0.55385
 Alpha  occ. eigenvalues --   -0.54950  -0.53884  -0.53055  -0.50465  -0.49146
 Alpha  occ. eigenvalues --   -0.48791  -0.48396  -0.46884  -0.45425  -0.44953
 Alpha  occ. eigenvalues --   -0.44163  -0.43057  -0.42152  -0.40221  -0.36781
 Alpha  occ. eigenvalues --   -0.33529  -0.32169  -0.31363  -0.26171
 Alpha virt. eigenvalues --   -0.02033   0.03830   0.05686   0.06534   0.09092
 Alpha virt. eigenvalues --    0.10670   0.13795   0.14780   0.16299   0.17441
 Alpha virt. eigenvalues --    0.18440   0.20164   0.20651   0.21317   0.22579

 Mulliken charges:
               1
     1  C    0.019703
     2  C   -0.230506
     3  C    0.260849
     4  C   -0.011805
     5  C    0.010192
     6  C    0.001526
     7  H    0.025288
     8  H    0.030326
     9  H    0.026723
    10  H    0.026377
    11  N   -0.177152
    12  S    0.198567
    13  C   -0.088467
    14  C   -0.033728
    15  C    0.116034
    16  C   -0.031027
    17  H    0.012606
    18  C   -0.021605
    19  C    0.031944
    20  H    0.002532
    21  H    0.003503
    22  H    0.015564
    23  C    0.056822
    24  O   -0.416929
    25  H    0.172663
 Sum of Mulliken charges =  -0.00000

 Dipole moment (field-independent basis, Debye):
    X=              1.5493    Y=             -5.5279    Z=              0.0006  Tot=              5.7409
 Quadrupole moment (field-independent basis, Debye-Ang):
   XX=            -82.1099   YY=            -95.9259   ZZ=           -104.2310
   XY=             -6.6685   XZ=              0.0006   YZ=              0.0017

  Exact polarizability:     347.147    -123.294     300.868      -0.003       0.002      63.208
 Approx polarizability:     272.581     -35.397     265.134      -0.002       0.001      82.034

                      1                      2                      3
                      A                      A                      A
 Frequencies --     33.5721                55.5677               112.5170
 Red. masses --      6.5305                 4.7550                 5.7318
 Frc consts  --      0.0043                 0.0087                 0.0428
 IR Inten    --      1.7239                 0.5490                15.5834

                      4                      5                      6
                      A                      A                      A
 Frequencies --    118.4240               183.6493               220.3049
 Red. masses --      5.9316                 5.9274                 5.5211
 Frc consts  --      0.0490                 0.1178                 0.1579
 IR Inten    --      0.9247                 0.0858                 0.1848

                      7                      8                      9
                      A                      A                      A
 Frequencies --    261.3537               270.4428               298.6074
 Red. masses --      7.9943                 4.6188                 6.9149
 Frc consts  --      0.3217                 0.1990                 0.3633
 IR Inten    --      7.9883                 0.1831                 9.2555

                     10                     11                     12
                      A                      A                      A
 Frequencies --    357.2961               398.6861               435.2788
 Red. masses --      4.9185                 9.0011                 3.3749
 Frc consts  --      0.3699                 0.8430                 0.3767
 IR Inten    --      0.9670                 4.9069                 3.0625

                     13                     14                     15
                      A                      A                      A
 Frequencies --    459.1457               506.4187               508.5445
 Red. masses --      4.4877                 8.8255                 3.2013
 Frc consts  --      0.5574                 1.3336                 0.4878
 IR Inten    --      2.6784                 9.4673                 0.4017

                     16                     17                     18
                      A                      A                      A
 Frequencies --    543.4499               553.4683               558.7373
 Red. masses --      8.6497                 6.1414                 3.8645
 Frc consts  --      1.5051                 1.1084                 0.7108
 IR Inten    --      4.0762                53.3928                 0.4482

                     19                     20                     21
                      A                      A                      A
 Frequencies --    568.9847               623.7291               696.1862
 Red. masses --      7.1973                 5.7772                 1.5384
 Frc consts  --      1.3728                 1.3242                 0.4393
 IR Inten    --     12.7332                80.1886                39.9735

                     22                     23                     24
                      A                      A                      A
 Frequencies --    714.1970               719.7093               743.2121
 Red. masses --      8.1859                 5.9885                 2.6882
 Frc consts  --      2.4601                 1.8276                 0.8749
 IR Inten    --      3.4659                 2.6225                14.4715

                     25                     26                     27
                      A                      A                      A
 Frequencies --    760.1644               767.2166               824.1431
 Red. masses --      1.7101                 1.6482                 6.2744
 Frc consts  --      0.5822                 0.5716                 2.5109
 IR Inten    --      3.6988                86.9301                14.7594

                     28                     29                     30
                      A                      A                      A
 Frequencies --    829.4877               849.8522               869.7201
 Red. masses --      1.8480                 3.9288                 1.3787
 Frc consts  --      0.7492                 1.6718                 0.6145
 IR Inten    --      0.2103                22.3483                 0.9680

                     31                     32                     33
                      A                      A                      A
 Frequencies --    902.4122               952.9678               954.9110
 Red. masses --      1.4202                 1.3640                 5.4735
 Frc consts  --      0.6814                 0.7299                 2.9406
 IR Inten    --      6.0353                 0.0386                 5.3857

                     34                     35                     36
                      A                      A                      A
 Frequencies --    958.0937              1003.3432              1005.9761
 Red. masses --      1.3509                 1.2268                 1.1197
 Frc consts  --      0.7306                 0.7277                 0.6676
 IR Inten    --      2.8347                19.8492                54.1967

                     37                     38                     39
                      A                      A                      A
 Frequencies --   1049.8792              1052.1074              1086.5804
 Red. masses --      2.0931                 2.0777                 4.0961
 Frc consts  --      1.3593                 1.3551                 2.8493
 IR Inten    --      2.7093                 9.6063                 5.2369

                     40                     41                     42
                      A                      A                      A
 Frequencies --   1121.7516              1154.0291              1165.5014
 Red. masses --      1.5153                 1.3592                 1.2303
 Frc consts  --      1.1234                 1.0665                 0.9846
 IR Inten    --     29.8923                36.7618                62.9576

                     43                     44                     45
                      A                      A                      A
 Frequencies --   1176.2983              1205.7466              1256.4536
 Red. masses --      1.1614                 1.6933                 1.8635
 Frc consts  --      0.9469                 1.4504                 1.7333
 IR Inten    --     54.1012               124.8992                75.7783

                     46                     47                     48
                      A                      A                      A
 Frequencies --   1265.3626              1307.7041              1344.6647
 Red. masses --      2.3952                 1.9691                 5.3703
 Frc consts  --      2.2596                 1.9840                 5.7210
 IR Inten    --     31.5548                13.4398                 5.3454

                     49                     50                     51
                      A                      A                      A
 Frequencies --   1357.7878              1390.2010              1403.1471
 Red. masses --      6.7263                 3.0056                 2.1778
 Frc consts  --      7.3062                 3.4224                 2.5262
 IR Inten    --    182.7678                33.8010                 3.8671

                     52                     53                     54
                      A                      A                      A
 Frequencies --   1435.4591              1482.6212              1495.8848
 Red. masses --      3.0912                 2.8577                 3.2416
 Frc consts  --      3.7528                 3.7011                 4.2737
 IR Inten    --    415.3835                 4.3321                45.7473

                     55                     56                     57
                      A                      A                      A
 Frequencies --   1527.2333              1551.4164              1572.7413
 Red. masses --      3.7438                 5.6153                 4.1054
 Frc consts  --      5.1449                 7.9630                 5.9830
 IR Inten    --     67.0055               168.8251                72.9385

                     58                     59                     60
                      A                      A                      A
 Frequencies --   1616.9062              1635.1975              1663.5432
 Red. masses --      6.1236                 6.1830                 6.7086
 Frc consts  --      9.4325                 9.7407                10.9383
 IR Inten    --    264.5596                96.9922               111.9769

                     61                     62                     63
                      A                      A                      A
 Frequencies --   2730.2335              3201.0807              3211.0374
 Red. masses --      1.0950                 1.0877                 1.0861
 Frc consts  --      4.8091                 6.5669                 6.5978
 IR Inten    --   1050.1996                26.3881                 3.4711

                     64                     65                     66
                      A                      A                      A
 Frequencies --   3214.3686              3220.6225              3225.6275
 Red. masses --      1.0870                 1.0903                 1.0928
 Frc consts  --      6.6173                 6.6633                 6.6994
 IR Inten    --      4.4746                 3.3537                16.0454

                     67                     68                     69
                      A                      A                      A
 Frequencies --   3230.7313              3237.1090              3237.6077
 Red. masses --      1.0956                 1.0988                 1.0996
 Frc consts  --      6.7379                 6.7841                 6.7908
 IR Inten    --      7.5139                32.0812                 5.7608

 - Thermochemistry -
 -------------------
 Temperature   298.150 Kelvin.  Pressure   1.00000 Atm.
 Atom     1 has atomic number  6 and mass  12.00000

 Molecular mass:   227.04049 amu.
 Principal axes and moments of inertia in atomic units:
                           1         2         3
     Eigenvalues --  1295.631096398.078547693.70962
           X           -0.70100   0.71316   0.00001
           Y            0.71316   0.70100   0.00000
           Z            0.00001  -0.00001   1.00000
 This molecule is an asymmetric top.
 Rotational symmetry number  1.
 Warning -- assumption of classical behavior for rotation
           may cause significant error
 Rotational temperatures (Kelvin)      0.06685     0.01354     0.01126
 Rotational constants (GHZ):           1.39294     0.28208     0.23457
 Zero-point vibrational energy     487157.7 (Joules/Mol)
                                  116.43348 (Kcal/Mol)
 Warning -- explicit consideration of  19 degrees of freedom as
           vibrations may cause significant error
 Vibrational temperatures:     48.30    79.95   161.89   170.39   264.23
          (Kelvin)            316.97   376.03   389.11   429.63   514.07
                              573.62   626.27   660.61   728.62   731.68
                              781.90   796.32   803.90   818.64   897.41
                             1001.66  1027.57  1035.50  1069.32  1093.71
                             1103.85  1185.76  1193.45  1222.75  1251.33
                             1298.37  1371.11  1373.90  1378.48  1443.59
                             1447.38  1510.54  1513.75  1563.35  1613.95
                             1660.39  1676.90  1692.43  1734.80  1807.76
                             1820.57  1881.49  1934.67  1953.55  2000.19
                             2018.82  2065.31  2133.16  2152.24  2197.35
                             2232.14  2262.82  2326.37  2352.68  2393.47
                             3928.20  4605.64  4619.97  4624.76  4633.76
                             4640.96  4648.30  4657.48  4658.20

 Zero-point correction=                           0.185549 (Hartree/Particle)
 Thermal correction to Energy=                    0.197895
 Thermal correction to Enthalpy=                  0.198839
 Thermal correction to Gibbs Free Energy=         0.145911
 Sum of electronic and zero-point Energies=          -1028.512104
 Sum of electronic and thermal Energies=             -1028.499758
 Sum of electronic and thermal Enthalpies=           -1028.498813
 Sum of electronic and thermal Free Energies=        -1028.551741

                     E (Thermal)             CV                S
                      KCal/Mol        Cal/Mol-Kelvin    Cal/Mol-Kelvin
 Total                  124.181             49.407            111.396
 Electronic               0.000              0.000              0.000
 Translational            0.889              2.981             42.162
 Rotational               0.889              2.981             32.522
 Vibrational            122.403             43.445             36.711
 Vibration     1          0.594              1.983              5.606
 Vibration     2          0.596              1.975              4.609
 Vibration     3          0.607              1.939              3.225
 Vibration     4          0.609              1.934              3.126
 Vibration     5          0.631              1.862              2.291
 Vibration     6          0.647              1.810              1.957
 Vibration     7          0.669              1.743              1.653
 Vibration     8          0.674              1.728              1.593
 Vibration     9          0.692              1.676              1.425
 Vibration    10          0.732              1.560              1.134
 Vibration    11          0.765              1.473              0.967
 Vibration    12          0.796              1.393              0.842
 Vibration    13          0.817              1.341              0.769
 Vibration    14          0.862              1.236              0.642
 Vibration    15          0.864              1.231              0.637
 Vibration    16          0.899              1.154              0.558
 Vibration    17          0.909              1.132              0.537
 Vibration    18          0.914              1.121              0.526
 Vibration    19          0.925              1.098              0.506

 Optimization completed.
    -- Stationary point found.
 Normal termination of Gaussian 16 at Mon Jul 13 16:05:24 2020.
