 Gaussian 16, Revision C.01,
 Gaussian 16:  ES64L-G16RevC.01  3-Jul-2019

 ----------------------------------------------------------------------
 #p opt=addgic freq td wb97xd/cc-pvdz nosymm int=ultrafine scrf=(solven
 t=CarbonTetraChloride)
 ----------------------------------------------------------------------

 ------------------------------------------------
 NM 2D-scan of HBT TD-WB97XD pVDZ in CTC Relaxed.
 ------------------------------------------------
 Symbolic Z-matrix:
 Charge =  0 Multiplicity = 1

 SCF Done:  E(RwB97XD) =  -1028.36118995     A.U. after   15 cycles
 Total Energy, E(TD-HF/TD-DFT) =  -1028.22982805
 SCF Done:  E(RwB97XD) =  -1028.70441761     A.U. after   12 cycles
 Total Energy, E(TD-HF/TD-DFT) =  -1028.57468173
 SCF Done:  E(RwB97XD) =  -1028.80266300     A.U. after   15 cycles
 Total Energy, E(TD-HF/TD-DFT) =  -1028.67685296
 SCF Done:  E(RwB97XD) =  -1028.80805212     A.U. after   13 cycles
 Total Energy, E(TD-HF/TD-DFT) =  -1028.68137254
 SCF Done:  E(RwB97XD) =  -1028.80866112     A.U. after   11 cycles
 Total Energy, E(TD-HF/TD-DFT) =  -1028.68165201
 SCF Done:  E(RwB97XD) =  -1028.80884704     A.U. after   10 cycles
 Total Energy, E(TD-HF/TD-DFT) =  -1028.68167361
 SCF Done:  E(RwB97XD) =  -1028.80888192     A.U. after    9 cycles
 Total Energy, E(TD-HF/TD-DFT) =  -1028.68167650
 Optimization completed.
    -- Stationary point found.
 Normal termination of Gaussian 16 at Mon Jul 13 20:29:16 2020.

 ----------------------------------------------------------------------
 #P Geom=AllCheck Guess=TCheck SCRF=Check GenChk RwB97XD TD(FC,Read)/CC
 -pVDZ Freq
 ----------------------------------------------------------------------

 Structure from the checkpoint file:  "config_1_5.chk"
 ------------------------------------------------
 NM 2D-scan of HBT TD-WB97XD pVDZ in CTC Relaxed.
 ------------------------------------------------
 Charge =  0 Multiplicity = 1

                          Input orientation:
 ---------------------------------------------------------------------
 Center     Atomic      Atomic             Coordinates (Angstroms)
 Number     Number       Type             X           Y           Z
 ---------------------------------------------------------------------
      1          6           0        1.712151   -3.322493   -0.000020
      2          6           0        0.959350   -2.144505   -0.000017
      3          6           0        1.642760   -0.875069   -0.000014
      4          6           0        3.063143   -0.814874   -0.000009
      5          6           0        3.780355   -1.983265   -0.000012
      6          6           0        3.110053   -3.230389   -0.000019
      7          1           0        1.231906   -4.302082   -0.000023
      8          1           0        3.536356    0.167502   -0.000005
      9          1           0        4.871416   -1.958956   -0.000010
     10          1           0        3.697594   -4.150102   -0.000021
     11          7           0        0.905396    0.223917   -0.000013
     12         16           0       -0.780059   -1.855142   -0.000016
     13          6           0       -1.357324    1.031528   -0.000017
     14          6           0       -2.786003    0.879059   -0.000026
     15          6           0       -0.899877    2.450413    0.000010
     16          6           0       -3.641314    1.963977    0.000026
     17          1           0       -3.200541   -0.130824   -0.000066
     18          6           0       -1.799987    3.516499    0.000075
     19          6           0       -3.161925    3.297940    0.000088
     20          1           0       -4.718230    1.787980    0.000023
     21          1           0       -1.367393    4.517238    0.000105
     22          1           0       -3.857244    4.137627    0.000136
     23          6           0       -0.426918   -0.034800   -0.000018
     24          8           0        0.365748    2.868568   -0.000021
     25          1           0        0.961231    2.099994   -0.000030
 ---------------------------------------------------------------------

 SCF Done:  E(RwB97XD) =  -1028.80888192     A.U. after    1 cycles

 Excitation energies and oscillator strengths:

 Excited state symmetry could not be determined.
 Excited State   1:      Singlet-?Sym    3.4614 eV  358.19 nm  f=0.7545  <S**2>=0.000
      59 -> 60        -0.69042
 This state for optimization and/or second-order correction.
 Total Energy, E(TD-HF/TD-DFT) =  -1028.68167650
 Copying the excited state density for this state as the 1-particle RhoCI density.

 Excited state symmetry could not be determined.
 Excited State   2:      Singlet-?Sym    4.3769 eV  283.27 nm  f=0.1590  <S**2>=0.000
      57 -> 60        -0.34467
      58 -> 60        -0.55940
      58 -> 64        -0.10471
      59 -> 62         0.16387

 Excited state symmetry could not be determined.
 Excited State   3:      Singlet-?Sym    4.5115 eV  274.82 nm  f=0.0669  <S**2>=0.000
      57 -> 60         0.52291
      57 -> 64        -0.13422
      58 -> 60        -0.32959
      58 -> 61        -0.10324
      59 -> 61         0.23976

 Alpha  occ. eigenvalues --  -89.09059 -19.29346 -14.46668 -10.39893 -10.38534
 Alpha  occ. eigenvalues --  -10.34929 -10.34522 -10.33475 -10.32403 -10.32237
 Alpha  occ. eigenvalues --  -10.31898 -10.31389 -10.31125 -10.31058 -10.30573
 Alpha  occ. eigenvalues --  -10.30273  -8.10839  -6.05706  -6.05374  -6.04886
 Alpha  occ. eigenvalues --   -1.17595  -1.07955  -0.96595  -0.95449  -0.91087
 Alpha  occ. eigenvalues --   -0.88728  -0.85124  -0.84179  -0.82145  -0.76035
 Alpha  occ. eigenvalues --   -0.71132  -0.70094  -0.69113  -0.68114  -0.63266
 Alpha  occ. eigenvalues --   -0.59899  -0.58919  -0.58299  -0.55929  -0.54395
 Alpha  occ. eigenvalues --   -0.53282  -0.53071  -0.52517  -0.50817  -0.50485
 Alpha  occ. eigenvalues --   -0.48906  -0.48115  -0.45759  -0.45413  -0.44672
 Alpha  occ. eigenvalues --   -0.43641  -0.42901  -0.42034  -0.39762  -0.37542
 Alpha  occ. eigenvalues --   -0.36371  -0.32018  -0.31595  -0.27831
 Alpha virt. eigenvalues --   -0.01930   0.05288   0.06827   0.06830   0.07112
 Alpha virt. eigenvalues --    0.11381   0.12534   0.15090   0.15757   0.17594
 Alpha virt. eigenvalues --    0.18548   0.20313   0.21679   0.22241   0.22809

 Mulliken charges:
               1
     1  C    0.003406
     2  C   -0.211014
     3  C    0.216964
     4  C   -0.014379
     5  C    0.009976
     6  C   -0.011246
     7  H    0.019332
     8  H    0.012996
     9  H    0.017200
    10  H    0.020064
    11  N   -0.327075
    12  S    0.137877
    13  C   -0.084042
    14  C   -0.013958
    15  C    0.076678
    16  C   -0.010212
    17  H    0.012768
    18  C    0.022710
    19  C    0.019088
    20  H    0.012718
    21  H    0.020328
    22  H    0.022543
    23  C    0.066238
    24  O   -0.175284
    25  H    0.156322
 Sum of Mulliken charges =  -0.00000

 Dipole moment (field-independent basis, Debye):
    X=             -0.3393    Y=             -1.3291    Z=              0.0000  Tot=              1.3717
 Quadrupole moment (field-independent basis, Debye-Ang):
   XX=            -83.0447   YY=            -88.7761   ZZ=           -104.6191
   XY=             -6.5419   XZ=             -0.0001   YZ=              0.0004

  Exact polarizability:     411.973    -203.046     406.394      -0.002       0.004      63.659
 Approx polarizability:     283.442     -37.773     266.329      -0.001       0.003      82.555

                      1                      2                      3
                      A                      A                      A
 Frequencies --     20.2328                70.0313               100.1964
 Red. masses --      5.8508                 5.6821                 5.5910
 Frc consts  --      0.0014                 0.0164                 0.0331
 IR Inten    --      0.9391                 0.0054                 1.8858

                      4                      5                      6
                      A                      A                      A
 Frequencies --    107.0267               183.9224               224.8153
 Red. masses --      4.6321                 6.8711                 5.4956
 Frc consts  --      0.0313                 0.1369                 0.1637
 IR Inten    --      0.5511                 0.6160                 0.0002

                      7                      8                      9
                      A                      A                      A
 Frequencies --    245.4186               265.3507               273.5641
 Red. masses --      8.2421                 4.7743                 6.3989
 Frc consts  --      0.2925                 0.1981                 0.2821
 IR Inten    --     10.0784                 0.2560                16.7549

                     10                     11                     12
                      A                      A                      A
 Frequencies --    385.0757               398.5964               437.4950
 Red. masses --      8.3768                 4.6636                 3.3021
 Frc consts  --      0.7318                 0.4366                 0.3724
 IR Inten    --     13.6691                 0.1409                 4.6193

                     13                     14                     15
                      A                      A                      A
 Frequencies --    471.3840               494.1018               495.2739
 Red. masses --      4.6386                 4.3125                 9.2553
 Frc consts  --      0.6073                 0.6203                 1.3376
 IR Inten    --     15.5874                 0.0402                 1.2107

                     16                     17                     18
                      A                      A                      A
 Frequencies --    508.3050               523.0414               542.7305
 Red. masses --      3.1170                 8.2706                 3.7403
 Frc consts  --      0.4745                 1.3331                 0.6491
 IR Inten    --      0.7786                25.3844                 1.5039

                     19                     20                     21
                      A                      A                      A
 Frequencies --    578.5153               630.9882               647.1991
 Red. masses --      7.8093                 7.7771                 7.0890
 Frc consts  --      1.5399                 1.8243                 1.7495
 IR Inten    --     92.6530                52.1908                 1.8788

                     22                     23                     24
                      A                      A                      A
 Frequencies --    674.6397               699.0542               730.5225
 Red. masses --      1.1512                 6.7225                 1.9064
 Frc consts  --      0.3087                 1.9356                 0.5994
 IR Inten    --    118.2168                 8.3494                26.4260

                     25                     26                     27
                      A                      A                      A
 Frequencies --    736.4174               745.8506               772.3558
 Red. masses --      2.3519                 1.5113                 2.0448
 Frc consts  --      0.7515                 0.4953                 0.7187
 IR Inten    --      0.7526                29.2786                59.9936

                     28                     29                     30
                      A                      A                      A
 Frequencies --    791.4046               831.1061               857.6450
 Red. masses --      6.8442                 1.5296                 1.4388
 Frc consts  --      2.5256                 0.6225                 0.6235
 IR Inten    --     20.7414                 0.0272                 1.5581

                     31                     32                     33
                      A                      A                      A
 Frequencies --    882.8808               931.5940               935.3971
 Red. masses --      6.3056                 1.3414                 7.0691
 Frc consts  --      2.8959                 0.6859                 3.6443
 IR Inten    --     53.1525                 3.0437                 9.0776

                     34                     35                     36
                      A                      A                      A
 Frequencies --    952.7821               971.3179               999.3488
 Red. masses --      1.3440                 1.3367                 1.3020
 Frc consts  --      0.7188                 0.7430                 0.7661
 IR Inten    --      1.9513                 0.0003                 0.0204

                     37                     38                     39
                      A                      A                      A
 Frequencies --   1033.4062              1040.4124              1064.1576
 Red. masses --      2.1511                 2.2831                 5.2779
 Frc consts  --      1.3535                 1.4561                 3.5215
 IR Inten    --      1.6403                 6.4393                21.9891

                     40                     41                     42
                      A                      A                      A
 Frequencies --   1132.0448              1146.3785              1174.2328
 Red. masses --      1.5850                 1.2919                 1.1750
 Frc consts  --      1.1968                 1.0003                 0.9545
 IR Inten    --     22.8295                16.0509                36.1694

                     43                     44                     45
                      A                      A                      A
 Frequencies --   1178.1102              1208.4769              1220.6038
 Red. masses --      1.1679                 2.8349                 1.7673
 Frc consts  --      0.9550                 2.4393                 1.5514
 IR Inten    --      1.2825               192.6933                65.8941

                     46                     47                     48
                      A                      A                      A
 Frequencies --   1253.0568              1272.3433              1351.2634
 Red. masses --      2.5034                 1.6285                 2.8242
 Frc consts  --      2.3159                 1.5532                 3.0382
 IR Inten    --    211.3336                 2.9848               105.8533

                     49                     50                     51
                      A                      A                      A
 Frequencies --   1363.8146              1391.1226              1415.4075
 Red. masses --      5.2799                 2.0401                 2.2428
 Frc consts  --      5.7861                 2.3261                 2.6473
 IR Inten    --     21.4880               273.0221               128.0102

                     52                     53                     54
                      A                      A                      A
 Frequencies --   1452.4254              1469.4046              1522.4742
 Red. masses --      2.1874                 3.0618                 5.3335
 Frc consts  --      2.7187                 3.8950                 7.2839
 IR Inten    --     51.4425                23.3825                75.8348

                     55                     56                     57
                      A                      A                      A
 Frequencies --   1539.2811              1541.9715              1567.9611
 Red. masses --      5.9694                 4.9792                 4.3892
 Frc consts  --      8.3333                 6.9752                 6.3578
 IR Inten    --    463.3326               146.0385                28.4565

                     58                     59                     60
                      A                      A                      A
 Frequencies --   1593.0577              1642.5409              1655.2541
 Red. masses --      5.7079                 5.5640                 5.9516
 Frc consts  --      8.5348                 8.8444                 9.6076
 IR Inten    --    106.8228               304.4000               234.6828

                     61                     62                     63
                      A                      A                      A
 Frequencies --   3202.8822              3207.4883              3215.9594
 Red. masses --      1.0870                 1.0858                 1.0898
 Frc consts  --      6.5699                 6.5817                 6.6407
 IR Inten    --      1.8344                 6.8120                 4.0526

                     64                     65                     66
                      A                      A                      A
 Frequencies --   3217.6060              3226.2810              3227.3278
 Red. masses --      1.0889                 1.0937                 1.0951
 Frc consts  --      6.6421                 6.7075                 6.7205
 IR Inten    --      1.7054                19.4294                14.0178

                     67                     68                     69
                      A                      A                      A
 Frequencies --   3235.0513              3238.8819              3600.4977
 Red. masses --      1.0997                 1.0994                 1.0672
 Frc consts  --      6.7810                 6.7949                 8.1510
 IR Inten    --     41.3893                27.5898                 0.2298

 - Thermochemistry -
 -------------------
 Temperature   298.150 Kelvin.  Pressure   1.00000 Atm.
 Atom     1 has atomic number  6 and mass  12.00000

 Molecular mass:   227.04049 amu.
 Principal axes and moments of inertia in atomic units:
                           1         2         3
     Eigenvalues --  1388.089896409.732737797.82261
           X           -0.69057   0.72326   0.00000
           Y            0.72326   0.69057  -0.00001
           Z            0.00001   0.00000   1.00000
 This molecule is an asymmetric top.
 Rotational symmetry number  1.
 Warning -- assumption of classical behavior for rotation
           may cause significant error
 Rotational temperatures (Kelvin)      0.06240     0.01351     0.01111
 Rotational constants (GHZ):           1.30016     0.28156     0.23144
 Zero-point vibrational energy     488774.8 (Joules/Mol)
                                  116.81997 (Kcal/Mol)
 Warning -- explicit consideration of  19 degrees of freedom as
           vibrations may cause significant error
 Vibrational temperatures:     29.11   100.76   144.16   153.99   264.62
          (Kelvin)            323.46   353.10   381.78   393.60   554.04
                              573.49   629.46   678.22   710.90   712.59
                              731.34   752.54   780.87   832.35   907.85
                              931.18   970.66  1005.78  1051.06  1059.54
                             1073.11  1111.25  1138.65  1195.78  1233.96
                             1270.27  1340.36  1345.83  1370.84  1397.51
                             1437.84  1486.84  1496.92  1531.09  1628.76
                             1649.38  1689.46  1695.04  1738.73  1756.18
                             1802.87  1830.62  1944.17  1962.23  2001.52
                             2036.46  2089.72  2114.15  2190.50  2214.68
                             2218.55  2255.95  2292.05  2363.25  2381.54
                             4608.23  4614.86  4627.05  4629.42  4641.90
                             4643.40  4654.52  4660.03  5180.31

 Zero-point correction=                           0.186164 (Hartree/Particle)
 Thermal correction to Energy=                    0.198757
 Thermal correction to Enthalpy=                  0.199701
 Thermal correction to Gibbs Free Energy=         0.145957
 Sum of electronic and zero-point Energies=          -1028.495512
 Sum of electronic and thermal Energies=             -1028.482920
 Sum of electronic and thermal Enthalpies=           -1028.481976
 Sum of electronic and thermal Free Energies=        -1028.535720

                     E (Thermal)             CV                S
                      KCal/Mol        Cal/Mol-Kelvin    Cal/Mol-Kelvin
 Total                  124.722             50.313            113.114
 Electronic               0.000              0.000              0.000
 Translational            0.889              2.981             42.162
 Rotational               0.889              2.981             32.606
 Vibrational            122.944             44.351             38.346
 Vibration     1          0.593              1.986              6.611
 Vibration     2          0.598              1.968              4.152
 Vibration     3          0.604              1.949              3.450
 Vibration     4          0.606              1.944              3.322
 Vibration     5          0.631              1.862              2.288
 Vibration     6          0.649              1.803              1.920
 Vibration     7          0.660              1.770              1.763
 Vibration     8          0.671              1.737              1.626
 Vibration     9          0.676              1.722              1.574
 Vibration    10          0.754              1.502              1.019
 Vibration    11          0.765              1.473              0.968
 Vibration    12          0.798              1.388              0.835
 Vibration    13          0.828              1.314              0.734
 Vibration    14          0.850              1.263              0.673
 Vibration    15          0.851              1.261              0.670
 Vibration    16          0.863              1.232              0.638
 Vibration    17          0.878              1.199              0.603
 Vibration    18          0.898              1.156              0.559
 Vibration    19          0.935              1.078              0.488

 Optimization completed.
    -- Stationary point found.
 Normal termination of Gaussian 16 at Mon Jul 13 20:46:35 2020.
