 Gaussian 16, Revision C.01,
 Gaussian 16:  ES64L-G16RevC.01  3-Jul-2019

 ----------------------------------------------------------------------
 #p opt=addgic freq td wb97xd/cc-pvdz nosymm int=ultrafine scrf=(solven
 t=CarbonTetraChloride)
 ----------------------------------------------------------------------

 ------------------------------------------------
 NM 2D-scan of HBT TD-WB97XD pVDZ in CTC Relaxed.
 ------------------------------------------------
 Symbolic Z-matrix:
 Charge =  0 Multiplicity = 1

 SCF Done:  E(RwB97XD) =  -1028.80276337     A.U. after   16 cycles
 Total Energy, E(TD-HF/TD-DFT) =  -1028.69257023
 SCF Done:  E(RwB97XD) =  -1028.79608124     A.U. after   14 cycles
 Total Energy, E(TD-HF/TD-DFT) =  -1028.69316106
 SCF Done:  E(RwB97XD) =  -1028.80535817     A.U. after   13 cycles
 Total Energy, E(TD-HF/TD-DFT) =  -1028.69808413
 SCF Done:  E(RwB97XD) =  -1028.80590171     A.U. after   11 cycles
 Total Energy, E(TD-HF/TD-DFT) =  -1028.69814721
 SCF Done:  E(RwB97XD) =  -1028.80586536     A.U. after    9 cycles
 Total Energy, E(TD-HF/TD-DFT) =  -1028.69814973
 Optimization completed.
    -- Stationary point found.
 Normal termination of Gaussian 16 at Mon Jul 13 16:24:55 2020.

 ----------------------------------------------------------------------
 #P Geom=AllCheck Guess=TCheck SCRF=Check GenChk RwB97XD TD(FC,Read)/CC
 -pVDZ Freq
 ----------------------------------------------------------------------

 Structure from the checkpoint file:  "config_9_5.chk"
 ------------------------------------------------
 NM 2D-scan of HBT TD-WB97XD pVDZ in CTC Relaxed.
 ------------------------------------------------
 Charge =  0 Multiplicity = 1

                          Input orientation:
 ---------------------------------------------------------------------
 Center     Atomic      Atomic             Coordinates (Angstroms)
 Number     Number       Type             X           Y           Z
 ---------------------------------------------------------------------
      1          6           0        1.716914   -3.283836   -0.000037
      2          6           0        1.007158   -2.084014   -0.000023
      3          6           0        1.699191   -0.851806   -0.000011
      4          6           0        3.101042   -0.803879   -0.000007
      5          6           0        3.794381   -2.003154   -0.000021
      6          6           0        3.113507   -3.230735   -0.000037
      7          1           0        1.198995   -4.243564   -0.000047
      8          1           0        3.612445    0.159015    0.000005
      9          1           0        4.885417   -1.992448   -0.000019
     10          1           0        3.681212   -4.161996   -0.000048
     11          7           0        0.871365    0.218250   -0.000001
     12         16           0       -0.741744   -1.797112   -0.000016
     13          6           0       -1.401837    1.039048    0.000013
     14          6           0       -2.786584    0.879876    0.000006
     15          6           0       -0.864235    2.433659    0.000030
     16          6           0       -3.662761    1.992638    0.000030
     17          1           0       -3.215826   -0.124950   -0.000016
     18          6           0       -1.794762    3.510924    0.000047
     19          6           0       -3.172780    3.300674    0.000053
     20          1           0       -4.738743    1.811957    0.000027
     21          1           0       -1.363645    4.513230    0.000055
     22          1           0       -3.860461    4.147099    0.000069
     23          6           0       -0.460555   -0.045837   -0.000003
     24          8           0        0.381927    2.678199   -0.000005
     25          1           0        1.071054    1.264384    0.000036
 ---------------------------------------------------------------------

 SCF Done:  E(RwB97XD) =  -1028.80586536     A.U. after    1 cycles

 Excitation energies and oscillator strengths:

 Excited state symmetry could not be determined.
 Excited State   1:      Singlet-?Sym    2.9311 eV  423.00 nm  f=0.4402  <S**2>=0.000
      59 -> 60         0.69587
 This state for optimization and/or second-order correction.
 Total Energy, E(TD-HF/TD-DFT) =  -1028.69814979
 Copying the excited state density for this state as the 1-particle RhoCI density.

 Excited state symmetry could not be determined.
 Excited State   2:      Singlet-?Sym    3.8236 eV  324.26 nm  f=0.0000  <S**2>=0.000
      57 -> 60         0.68397
      57 -> 62         0.11632
      57 -> 64         0.11734

 Excited state symmetry could not be determined.
 Excited State   3:      Singlet-?Sym    4.3354 eV  285.98 nm  f=0.4381  <S**2>=0.000
      58 -> 60         0.67940

 Alpha  occ. eigenvalues --  -89.10670 -19.21713 -14.51613 -10.42041 -10.37168
 Alpha  occ. eigenvalues --  -10.36314 -10.36223 -10.33440 -10.32775 -10.32490
 Alpha  occ. eigenvalues --  -10.32356 -10.31615 -10.31493 -10.30828 -10.29283
 Alpha  occ. eigenvalues --  -10.28459  -8.12577  -6.07460  -6.07090  -6.06596
 Alpha  occ. eigenvalues --   -1.12928  -1.09701  -0.98192  -0.95032  -0.93109
 Alpha  occ. eigenvalues --   -0.89166  -0.86369  -0.83977  -0.81273  -0.76034
 Alpha  occ. eigenvalues --   -0.72752  -0.71743  -0.68845  -0.67682  -0.64793
 Alpha  occ. eigenvalues --   -0.60931  -0.59664  -0.56803  -0.55753  -0.55421
 Alpha  occ. eigenvalues --   -0.54865  -0.53624  -0.53042  -0.50914  -0.49297
 Alpha  occ. eigenvalues --   -0.48845  -0.48219  -0.46840  -0.45413  -0.44920
 Alpha  occ. eigenvalues --   -0.44339  -0.43004  -0.42008  -0.40387  -0.36805
 Alpha  occ. eigenvalues --   -0.33560  -0.32357  -0.31404  -0.26128
 Alpha virt. eigenvalues --   -0.02065   0.03802   0.06029   0.06254   0.09053
 Alpha virt. eigenvalues --    0.10554   0.12435   0.14646   0.16076   0.17363
 Alpha virt. eigenvalues --    0.18897   0.20217   0.21061   0.21433   0.23008

 Mulliken charges:
               1
     1  C    0.013040
     2  C   -0.244144
     3  C    0.268600
     4  C   -0.010841
     5  C    0.013761
     6  C   -0.001064
     7  H    0.026397
     8  H    0.032027
     9  H    0.027053
    10  H    0.026490
    11  N   -0.147871
    12  S    0.198015
    13  C   -0.117148
    14  C   -0.021784
    15  C    0.121433
    16  C   -0.036281
    17  H    0.003018
    18  C   -0.019027
    19  C    0.032777
    20  H    0.003017
    21  H    0.002871
    22  H    0.014883
    23  C    0.061361
    24  O   -0.407689
    25  H    0.161106
 Sum of Mulliken charges =  -0.00000

 Dipole moment (field-independent basis, Debye):
    X=              1.5912    Y=             -5.2567    Z=              0.0000  Tot=              5.4922
 Quadrupole moment (field-independent basis, Debye-Ang):
   XX=            -82.6424   YY=            -94.5470   ZZ=           -104.2851
   XY=             -6.7679   XZ=              0.0000   YZ=              0.0004

  Exact polarizability:     350.102    -124.945     302.575      -0.002       0.003      63.335
 Approx polarizability:     274.477     -36.881     266.729      -0.001       0.002      82.170

 ******    1 imaginary frequencies (negative Signs) ******

                      1                      2                      3
                      A                      A                      A
 Frequencies --    -45.0207                39.4184               108.2429
 Red. masses --      6.7998                 6.4185                 4.8313
 Frc consts  --      0.0081                 0.0059                 0.0334
 IR Inten    --      1.0968                 1.8391                 0.1385

                      4                      5                      6
                      A                      A                      A
 Frequencies --    117.4157               176.4158               221.8885
 Red. masses --      5.7406                 5.4069                 5.3679
 Frc consts  --      0.0466                 0.0991                 0.1557
 IR Inten    --      9.9574                 0.1435                 0.2133

                      7                      8                      9
                      A                      A                      A
 Frequencies --    265.0479               269.4145               320.3768
 Red. masses --      7.7282                 4.6571                 7.0369
 Frc consts  --      0.3199                 0.1992                 0.4256
 IR Inten    --      1.4426                 0.4626                12.6274

                     10                     11                     12
                      A                      A                      A
 Frequencies --    357.4032               392.0112               434.5644
 Red. masses --      5.0046                 9.5449                 3.3201
 Frc consts  --      0.3766                 0.8642                 0.3694
 IR Inten    --      1.0129                 3.6095                 4.4472

                     13                     14                     15
                      A                      A                      A
 Frequencies --    458.6342               504.3123               505.0812
 Red. masses --      4.6669                 8.7305                 3.1785
 Frc consts  --      0.5784                 1.3082                 0.4777
 IR Inten    --      1.8403                 6.7439                 0.5511

                     16                     17                     18
                      A                      A                      A
 Frequencies --    540.0400               556.4072               565.8124
 Red. masses --      8.7143                 3.8436                 6.5832
 Frc consts  --      1.4974                 0.7011                 1.2417
 IR Inten    --      3.7938                 0.6668                18.7241

                     19                     20                     21
                      A                      A                      A
 Frequencies --    573.5118               634.7523               691.5703
 Red. masses --      7.6228                 5.9326                 1.5851
 Frc consts  --      1.4772                 1.4083                 0.4467
 IR Inten    --     39.2560                96.4451                36.4748

                     22                     23                     24
                      A                      A                      A
 Frequencies --    701.0474               715.6133               741.9817
 Red. masses --      7.1854                 7.1742                 2.5827
 Frc consts  --      2.0806                 2.1646                 0.8377
 IR Inten    --      1.2431                 6.7436                13.5475

                     25                     26                     27
                      A                      A                      A
 Frequencies --    763.7831               767.9430               811.2452
 Red. masses --      1.7502                 1.6926                 6.4555
 Frc consts  --      0.6016                 0.5881                 2.5031
 IR Inten    --      0.9996                88.4668                14.8877

                     28                     29                     30
                      A                      A                      A
 Frequencies --    838.6732               865.3659               875.5284
 Red. masses --      1.7009                 1.3869                 4.4302
 Frc consts  --      0.7049                 0.6119                 2.0008
 IR Inten    --      0.0218                 0.5317                17.6659

                     31                     32                     33
                      A                      A                      A
 Frequencies --    907.5062               952.1956               953.7658
 Red. masses --      1.4172                 5.6248                 1.3659
 Frc consts  --      0.6877                 3.0048                 0.7321
 IR Inten    --      6.4532                 3.7809                 0.1852

                     34                     35                     36
                      A                      A                      A
 Frequencies --    957.4400              1001.6337              1005.2746
 Red. masses --      1.3475                 1.1570                 1.1880
 Frc consts  --      0.7278                 0.6839                 0.7073
 IR Inten    --      1.4852                41.0628                30.0098

                     37                     38                     39
                      A                      A                      A
 Frequencies --   1045.8493              1051.9149              1078.9869
 Red. masses --      2.1998                 2.2153                 4.0743
 Frc consts  --      1.4177                 1.4442                 2.7947
 IR Inten    --      0.7792                 8.4640                 2.2493

                     40                     41                     42
                      A                      A                      A
 Frequencies --   1116.0500              1151.8887              1162.1630
 Red. masses --      1.5308                 1.3227                 1.2039
 Frc consts  --      1.1234                 1.0340                 0.9580
 IR Inten    --     43.8075                14.9082                69.7187

                     43                     44                     45
                      A                      A                      A
 Frequencies --   1179.3439              1226.0298              1257.4667
 Red. masses --      1.1380                 1.9995                 2.2972
 Frc consts  --      0.9326                 1.7708                 2.1402
 IR Inten    --     30.7709                97.8372                41.7877

                     46                     47                     48
                      A                      A                      A
 Frequencies --   1283.1729              1315.2798              1336.8698
 Red. masses --      1.6124                 1.9224                 5.0797
 Frc consts  --      1.5642                 1.9595                 5.3489
 IR Inten    --    115.7012               132.8901                11.3335

                     49                     50                     51
                      A                      A                      A
 Frequencies --   1367.4214              1395.0209              1401.5254
 Red. masses --      5.5990                 2.6605                 2.2888
 Frc consts  --      6.1683                 3.0505                 2.6489
 IR Inten    --    134.3217                21.9748                 3.3468

                     52                     53                     54
                      A                      A                      A
 Frequencies --   1436.5606              1483.7233              1505.3412
 Red. masses --      3.5373                 2.6716                 3.0381
 Frc consts  --      4.3010                 3.4652                 4.0562
 IR Inten    --    446.6257                 3.2626                23.2361

                     55                     56                     57
                      A                      A                      A
 Frequencies --   1535.1401              1561.4597              1587.1509
 Red. masses --      4.3515                 5.0254                 4.1637
 Frc consts  --      6.0421                 7.2191                 6.1797
 IR Inten    --     52.6121               167.0162                56.1947

                     58                     59                     60
                      A                      A                      A
 Frequencies --   1623.1142              1647.2599              1669.3711
 Red. masses --      5.9388                 5.8457                 6.7207
 Frc consts  --      9.2183                 9.3456                11.0350
 IR Inten    --    258.2032                73.9263               210.9154

                     61                     62                     63
                      A                      A                      A
 Frequencies --   2830.1892              3192.3859              3211.4122
 Red. masses --      1.0989                 1.0891                 1.0865
 Frc consts  --      5.1861                 6.5395                 6.6017
 IR Inten    --   1315.1258                23.5911                 0.9592

                     64                     65                     66
                      A                      A                      A
 Frequencies --   3212.1114              3222.5141              3223.2900
 Red. masses --      1.0863                 1.0902                 1.0922
 Frc consts  --      6.6036                 6.6704                 6.6859
 IR Inten    --      5.5375                 2.8943                15.2556

                     67                     68                     69
                      A                      A                      A
 Frequencies --   3232.1932              3234.7203              3239.3533
 Red. masses --      1.0959                 1.0990                 1.0995
 Frc consts  --      6.7453                 6.7752                 6.7980
 IR Inten    --      7.6946                23.2454                13.6828

 - Thermochemistry -
 -------------------
 Temperature   298.150 Kelvin.  Pressure   1.00000 Atm.
 Atom     1 has atomic number  6 and mass  12.00000

 Molecular mass:   227.04049 amu.
 Principal axes and moments of inertia in atomic units:
                           1         2         3
     Eigenvalues --  1322.988196395.791757718.77993
           X           -0.70142   0.71274   0.00000
           Y            0.71274   0.70142  -0.00001
           Z            0.00001   0.00000   1.00000
 This molecule is an asymmetric top.
 Rotational symmetry number  1.
 Warning -- assumption of classical behavior for rotation
           may cause significant error
 Rotational temperatures (Kelvin)      0.06547     0.01354     0.01122
 Rotational constants (GHZ):           1.36414     0.28218     0.23381
    1 imaginary frequencies ignored.
 Zero-point vibrational energy     488121.8 (Joules/Mol)
                                  116.66391 (Kcal/Mol)
 Warning -- explicit consideration of  18 degrees of freedom as
           vibrations may cause significant error
 Vibrational temperatures:     56.71   155.74   168.94   253.82   319.25
          (Kelvin)            381.34   387.63   460.95   514.22   564.02
                              625.24   659.87   725.59   726.70   777.00
                              800.55   814.08   825.16   913.27   995.02
                             1008.65  1029.61  1067.55  1098.91  1104.90
                             1167.20  1206.66  1245.07  1259.69  1305.70
                             1370.00  1372.26  1377.54  1441.13  1446.37
                             1504.74  1513.47  1552.42  1605.75  1657.31
                             1672.09  1696.81  1763.98  1809.21  1846.20
                             1892.39  1923.46  1967.41  2007.12  2016.48
                             2066.89  2134.75  2165.85  2208.72  2246.59
                             2283.56  2335.30  2370.04  2401.85  4072.01
                             4593.13  4620.51  4621.51  4636.48  4637.60
                             4650.41  4654.04  4660.71

 Zero-point correction=                           0.185916 (Hartree/Particle)
 Thermal correction to Energy=                    0.197417
 Thermal correction to Enthalpy=                  0.198361
 Thermal correction to Gibbs Free Energy=         0.147748
 Sum of electronic and zero-point Energies=          -1028.512234
 Sum of electronic and thermal Energies=             -1028.500733
 Sum of electronic and thermal Enthalpies=           -1028.499789
 Sum of electronic and thermal Free Energies=        -1028.550401

                     E (Thermal)             CV                S
                      KCal/Mol        Cal/Mol-Kelvin    Cal/Mol-Kelvin
 Total                  123.881             47.362            106.522
 Electronic               0.000              0.000              0.000
 Translational            0.889              2.981             42.162
 Rotational               0.889              2.981             32.546
 Vibrational            122.103             41.401             31.814
 Vibration     1          0.594              1.981              5.288
 Vibration     2          0.606              1.943              3.300
 Vibration     3          0.608              1.935              3.142
 Vibration     4          0.628              1.871              2.366
 Vibration     5          0.648              1.808              1.944
 Vibration     6          0.671              1.737              1.628
 Vibration     7          0.674              1.729              1.600
 Vibration     8          0.706              1.635              1.308
 Vibration     9          0.733              1.560              1.133
 Vibration    10          0.759              1.487              0.992
 Vibration    11          0.795              1.395              0.844
 Vibration    12          0.817              1.342              0.770
 Vibration    13          0.860              1.240              0.647
 Vibration    14          0.860              1.239              0.646
 Vibration    15          0.895              1.162              0.565
 Vibration    16          0.912              1.126              0.531
 Vibration    17          0.922              1.105              0.512
 Vibration    18          0.930              1.089              0.498

 Optimization completed.
    -- Stationary point found.
 Normal termination of Gaussian 16 at Mon Jul 13 16:44:04 2020.
