 Gaussian 16, Revision C.01,
 Gaussian 16:  ES64L-G16RevC.01  3-Jul-2019

 ----------------------------------------------------------------------
 #p opt=addgic freq td wb97xd/cc-pvdz nosymm int=ultrafine scrf=(solven
 t=CarbonTetraChloride)
 ----------------------------------------------------------------------

 ------------------------------------------------
 NM 2D-scan of HBT TD-WB97XD pVDZ in CTC Relaxed.
 ------------------------------------------------
 Symbolic Z-matrix:
 Charge =  0 Multiplicity = 1

 SCF Done:  E(RwB97XD) =  -1028.74764982     A.U. after   15 cycles
 Total Energy, E(TD-HF/TD-DFT) =  -1028.61670750
 SCF Done:  E(RwB97XD) =  -1028.80949024     A.U. after   13 cycles
 Total Energy, E(TD-HF/TD-DFT) =  -1028.68072252
 SCF Done:  E(RwB97XD) =  -1028.81280326     A.U. after   13 cycles
 Total Energy, E(TD-HF/TD-DFT) =  -1028.68549263
 SCF Done:  E(RwB97XD) =  -1028.81244699     A.U. after   12 cycles
 Total Energy, E(TD-HF/TD-DFT) =  -1028.68585023
 SCF Done:  E(RwB97XD) =  -1028.81289985     A.U. after   11 cycles
 Total Energy, E(TD-HF/TD-DFT) =  -1028.68607172
 SCF Done:  E(RwB97XD) =  -1028.81297918     A.U. after    9 cycles
 Total Energy, E(TD-HF/TD-DFT) =  -1028.68607543
 SCF Done:  E(RwB97XD) =  -1028.81300941     A.U. after    8 cycles
 Total Energy, E(TD-HF/TD-DFT) =  -1028.68607592
 SCF Done:  E(RwB97XD) =  -1028.81301115     A.U. after    7 cycles
 Total Energy, E(TD-HF/TD-DFT) =  -1028.68607605
 Optimization completed.
    -- Stationary point found.
 Normal termination of Gaussian 16 at Mon Jul 13 17:30:39 2020.

 ----------------------------------------------------------------------
 #P Geom=AllCheck Guess=TCheck SCRF=Check GenChk RwB97XD TD(FC,Read)/CC
 -pVDZ Freq
 ----------------------------------------------------------------------

 Structure from the checkpoint file:  "config_3_3.chk"
 ------------------------------------------------
 NM 2D-scan of HBT TD-WB97XD pVDZ in CTC Relaxed.
 ------------------------------------------------
 Charge =  0 Multiplicity = 1

                          Input orientation:
 ---------------------------------------------------------------------
 Center     Atomic      Atomic             Coordinates (Angstroms)
 Number     Number       Type             X           Y           Z
 ---------------------------------------------------------------------
      1          6           0        1.736558   -3.300271   -0.000028
      2          6           0        0.975792   -2.128809   -0.000013
      3          6           0        1.641048   -0.857124   -0.000003
      4          6           0        3.057815   -0.779352   -0.000005
      5          6           0        3.787178   -1.943543   -0.000022
      6          6           0        3.133131   -3.196407   -0.000033
      7          1           0        1.262659   -4.282837   -0.000038
      8          1           0        3.524793    0.206077    0.000005
      9          1           0        4.877934   -1.906300   -0.000025
     10          1           0        3.729902   -4.109990   -0.000047
     11          7           0        0.870459    0.222987    0.000009
     12         16           0       -0.770574   -1.864050   -0.000009
     13          6           0       -1.388054    1.011449   -0.000000
     14          6           0       -2.811198    0.892055   -0.000013
     15          6           0       -0.885307    2.415492    0.000018
     16          6           0       -3.638192    2.005738    0.000022
     17          1           0       -3.254167   -0.105495   -0.000043
     18          6           0       -1.755714    3.511028    0.000062
     19          6           0       -3.125041    3.326096    0.000068
     20          1           0       -4.719524    1.858398    0.000016
     21          1           0       -1.296836    4.500018    0.000083
     22          1           0       -3.800487    4.181733    0.000100
     23          6           0       -0.457247   -0.058831    0.000003
     24          8           0        0.394361    2.742057   -0.000007
     25          1           0        0.915665    1.893143   -0.000004
 ---------------------------------------------------------------------

 SCF Done:  E(RwB97XD) =  -1028.81301115     A.U. after    1 cycles

 Excitation energies and oscillator strengths:

 Excited state symmetry could not be determined.
 Excited State   1:      Singlet-?Sym    3.4541 eV  358.95 nm  f=0.6970  <S**2>=0.000
      59 -> 60         0.69007
 This state for optimization and/or second-order correction.
 Total Energy, E(TD-HF/TD-DFT) =  -1028.68607605
 Copying the excited state density for this state as the 1-particle RhoCI density.

 Excited state symmetry could not be determined.
 Excited State   2:      Singlet-?Sym    4.3797 eV  283.09 nm  f=0.2339  <S**2>=0.000
      57 -> 60        -0.22723
      58 -> 60        -0.62087
      59 -> 63         0.17460

 Excited state symmetry could not be determined.
 Excited State   3:      Singlet-?Sym    4.5622 eV  271.76 nm  f=0.0456  <S**2>=0.000
      57 -> 60         0.57327
      57 -> 64        -0.11779
      58 -> 60        -0.21509
      58 -> 61        -0.12612
      59 -> 61         0.24715

 Alpha  occ. eigenvalues --  -89.09265 -19.28535 -14.46807 -10.40065 -10.38266
 Alpha  occ. eigenvalues --  -10.35018 -10.34724 -10.33180 -10.32349 -10.32332
 Alpha  occ. eigenvalues --  -10.31850 -10.31477 -10.31291 -10.31231 -10.30443
 Alpha  occ. eigenvalues --  -10.30156  -8.11069  -6.05938  -6.05598  -6.05116
 Alpha  occ. eigenvalues --   -1.17277  -1.08280  -0.96593  -0.95500  -0.91295
 Alpha  occ. eigenvalues --   -0.88784  -0.84881  -0.84309  -0.82289  -0.75992
 Alpha  occ. eigenvalues --   -0.70989  -0.70155  -0.69067  -0.68240  -0.63248
 Alpha  occ. eigenvalues --   -0.60204  -0.58836  -0.58468  -0.55804  -0.54377
 Alpha  occ. eigenvalues --   -0.53566  -0.53022  -0.52642  -0.51016  -0.50380
 Alpha  occ. eigenvalues --   -0.49214  -0.48002  -0.45815  -0.45491  -0.44675
 Alpha  occ. eigenvalues --   -0.43652  -0.42847  -0.42262  -0.39906  -0.37302
 Alpha  occ. eigenvalues --   -0.36418  -0.32191  -0.31418  -0.27873
 Alpha virt. eigenvalues --   -0.01865   0.05135   0.06966   0.07031   0.07097
 Alpha virt. eigenvalues --    0.11176   0.12578   0.15098   0.15794   0.17827
 Alpha virt. eigenvalues --    0.18603   0.20708   0.21695   0.22288   0.22715

 Mulliken charges:
               1
     1  C    0.004922
     2  C   -0.221006
     3  C    0.237647
     4  C   -0.015378
     5  C    0.010276
     6  C   -0.009677
     7  H    0.019801
     8  H    0.016116
     9  H    0.018392
    10  H    0.020705
    11  N   -0.346814
    12  S    0.148664
    13  C   -0.099157
    14  C   -0.014183
    15  C    0.087205
    16  C   -0.014961
    17  H    0.010559
    18  C    0.015779
    19  C    0.021398
    20  H    0.011843
    21  H    0.018807
    22  H    0.022107
    23  C    0.078683
    24  O   -0.190023
    25  H    0.168296
 Sum of Mulliken charges =  -0.00000

 Dipole moment (field-independent basis, Debye):
    X=             -0.2281    Y=             -1.7407    Z=              0.0000  Tot=              1.7556
 Quadrupole moment (field-independent basis, Debye-Ang):
   XX=            -83.2048   YY=            -88.9870   ZZ=           -104.5484
   XY=             -6.8216   XZ=             -0.0001   YZ=              0.0004

  Exact polarizability:     406.560    -194.634     390.915      -0.002       0.004      63.596
 Approx polarizability:     281.407     -36.880     264.336      -0.001       0.003      82.536

                      1                      2                      3
                      A                      A                      A
 Frequencies --     31.2508                57.8086               107.1145
 Red. masses --      5.9001                 6.2765                 4.5582
 Frc consts  --      0.0034                 0.0124                 0.0308
 IR Inten    --      1.3263                 0.0155                 0.3485

                      4                      5                      6
                      A                      A                      A
 Frequencies --    111.2939               181.2109               223.7038
 Red. masses --      5.6411                 6.5641                 5.3875
 Frc consts  --      0.0412                 0.1270                 0.1589
 IR Inten    --      2.0926                 0.8249                 0.0006

                      7                      8                      9
                      A                      A                      A
 Frequencies --    262.1488               266.2914               292.3644
 Red. masses --      8.0109                 4.8102                 6.6630
 Frc consts  --      0.3244                 0.2010                 0.3356
 IR Inten    --     21.2711                 0.2180                 7.6423

                     10                     11                     12
                      A                      A                      A
 Frequencies --    388.8216               394.0289               437.2755
 Red. masses --      8.7511                 4.7079                 3.2569
 Frc consts  --      0.7795                 0.4307                 0.3669
 IR Inten    --     13.2572                 0.2191                 4.6769

                     13                     14                     15
                      A                      A                      A
 Frequencies --    491.2985               492.6119               501.2185
 Red. masses --      5.2541                 4.5110                 7.4972
 Frc consts  --      0.7472                 0.6450                 1.1097
 IR Inten    --     26.2490                 0.2236                 4.5225

                     16                     17                     18
                      A                      A                      A
 Frequencies --    502.9962               524.9972               547.8168
 Red. masses --      3.1351                 7.9644                 3.9469
 Frc consts  --      0.4673                 1.2933                 0.6979
 IR Inten    --      0.1223                20.3965                 0.1939

                     19                     20                     21
                      A                      A                      A
 Frequencies --    579.1366               635.9308               662.6852
 Red. masses --      7.7282                 7.0422                 8.2217
 Frc consts  --      1.5272                 1.6779                 2.1273
 IR Inten    --     57.6370                58.5194                11.5003

                     22                     23                     24
                      A                      A                      A
 Frequencies --    704.1737               714.6720               732.5522
 Red. masses --      7.0188                 1.8806                 1.8837
 Frc consts  --      2.0506                 0.5659                 0.5956
 IR Inten    --     10.3190                41.9782                29.5842

                     25                     26                     27
                      A                      A                      A
 Frequencies --    750.4252               770.5730               798.0239
 Red. masses --      1.7984                 2.0412                 6.6584
 Frc consts  --      0.5967                 0.7141                 2.4983
 IR Inten    --     31.7898                52.6246                17.1789

                     28                     29                     30
                      A                      A                      A
 Frequencies --    826.5039               856.5921               889.2978
 Red. masses --      1.6070                 1.4265                 6.3577
 Frc consts  --      0.6468                 0.6167                 2.9624
 IR Inten    --      2.4560                 0.1031                46.5674

                     31                     32                     33
                      A                      A                      A
 Frequencies --    894.7890               926.2748               947.3254
 Red. masses --      1.0914                 1.3299                 7.0810
 Frc consts  --      0.5148                 0.6723                 3.7441
 IR Inten    --     72.2731                 0.0641                 9.0139

                     34                     35                     36
                      A                      A                      A
 Frequencies --    951.7104               966.7644               998.5782
 Red. masses --      1.3447                 1.3500                 1.3003
 Frc consts  --      0.7176                 0.7434                 0.7639
 IR Inten    --      2.0404                 0.0363                 0.0016

                     37                     38                     39
                      A                      A                      A
 Frequencies --   1036.6909              1038.4501              1066.1487
 Red. masses --      2.1757                 2.2401                 4.9325
 Frc consts  --      1.3777                 1.4232                 3.3033
 IR Inten    --      2.3307                 2.1733                33.0978

                     40                     41                     42
                      A                      A                      A
 Frequencies --   1133.5493              1146.2369              1174.4708
 Red. masses --      1.4983                 1.3000                 1.1501
 Frc consts  --      1.1343                 1.0063                 0.9347
 IR Inten    --     49.1595                15.0698                11.0165

                     43                     44                     45
                      A                      A                      A
 Frequencies --   1176.9691              1223.4749              1235.5450
 Red. masses --      1.1698                 4.6686                 1.7897
 Frc consts  --      0.9547                 4.1175                 1.6097
 IR Inten    --     22.6439               154.0479               105.9249

                     46                     47                     48
                      A                      A                      A
 Frequencies --   1275.3021              1284.6601              1361.3287
 Red. masses --      1.6750                 2.6075                 2.9928
 Frc consts  --      1.6051                 2.5354                 3.2677
 IR Inten    --     29.5322               241.5328                84.1306

                     49                     50                     51
                      A                      A                      A
 Frequencies --   1371.3523              1403.0620              1435.1273
 Red. masses --      4.9561                 2.0290                 2.4736
 Frc consts  --      5.4915                 2.3534                 3.0016
 IR Inten    --     22.9487                20.3153               201.7598

                     52                     53                     54
                      A                      A                      A
 Frequencies --   1473.4614              1484.1130              1518.9704
 Red. masses --      2.9832                 2.0643                 6.4570
 Frc consts  --      3.8161                 2.6789                 8.7777
 IR Inten    --     70.3908               185.0373               205.0432

                     55                     56                     57
                      A                      A                      A
 Frequencies --   1528.4371              1546.8074              1577.2629
 Red. masses --      5.6750                 5.0583                 2.9016
 Frc consts  --      7.8111                 7.1306                 4.2529
 IR Inten    --    342.5783               300.6686               182.2643

                     58                     59                     60
                      A                      A                      A
 Frequencies --   1602.8323              1632.9574              1654.0557
 Red. masses --      4.4612                 5.5224                 5.9508
 Frc consts  --      6.7527                 8.6762                 9.5923
 IR Inten    --     42.3010               426.8323               176.6754

                     61                     62                     63
                      A                      A                      A
 Frequencies --   3130.8400              3203.5830              3207.4639
 Red. masses --      1.0710                 1.0868                 1.0858
 Frc consts  --      6.1851                 6.5716                 6.5812
 IR Inten    --     53.0322                 4.3740                 6.6352

                     64                     65                     66
                      A                      A                      A
 Frequencies --   3216.0162              3217.4715              3225.9253
 Red. masses --      1.0898                 1.0898                 1.0930
 Frc consts  --      6.6410                 6.6469                 6.7019
 IR Inten    --      3.7938                 2.4113                20.8041

                     67                     68                     69
                      A                      A                      A
 Frequencies --   3227.1444              3234.7149              3238.9953
 Red. masses --      1.0952                 1.0997                 1.0991
 Frc consts  --      6.7204                 6.7792                 6.7936
 IR Inten    --     12.0007                40.3906                25.2482

 - Thermochemistry -
 -------------------
 Temperature   298.150 Kelvin.  Pressure   1.00000 Atm.
 Atom     1 has atomic number  6 and mass  12.00000

 Molecular mass:   227.04049 amu.
 Principal axes and moments of inertia in atomic units:
                           1         2         3
     Eigenvalues --  1371.250076362.651747733.90181
           X           -0.69511   0.71890   0.00000
           Y            0.71890   0.69511  -0.00001
           Z            0.00001   0.00000   1.00000
 This molecule is an asymmetric top.
 Rotational symmetry number  1.
 Warning -- assumption of classical behavior for rotation
           may cause significant error
 Rotational temperatures (Kelvin)      0.06316     0.01361     0.01120
 Rotational constants (GHZ):           1.31613     0.28365     0.23335
 Zero-point vibrational energy     488696.5 (Joules/Mol)
                                  116.80128 (Kcal/Mol)
 Warning -- explicit consideration of  19 degrees of freedom as
           vibrations may cause significant error
 Vibrational temperatures:     44.96    83.17   154.11   160.13   260.72
          (Kelvin)            321.86   377.17   383.13   420.65   559.43
                              566.92   629.14   706.87   708.76   721.14
                              723.70   755.35   788.19   833.25   914.96
                              953.46  1013.15  1028.25  1053.98  1079.69
                             1108.68  1148.18  1189.15  1232.44  1279.50
                             1287.40  1332.70  1362.99  1369.30  1390.96
                             1436.73  1491.57  1494.10  1533.95  1630.92
                             1649.18  1689.80  1693.40  1760.31  1777.67
                             1834.88  1848.34  1958.65  1973.07  2018.69
                             2064.83  2119.98  2135.31  2185.46  2199.08
                             2225.51  2269.33  2306.12  2349.46  2379.82
                             4504.58  4609.24  4614.83  4627.13  4629.22
                             4641.39  4643.14  4654.03  4660.19

 Zero-point correction=                           0.186135 (Hartree/Particle)
 Thermal correction to Energy=                    0.198562
 Thermal correction to Enthalpy=                  0.199507
 Thermal correction to Gibbs Free Energy=         0.146340
 Sum of electronic and zero-point Energies=          -1028.499941
 Sum of electronic and thermal Energies=             -1028.487514
 Sum of electronic and thermal Enthalpies=           -1028.486569
 Sum of electronic and thermal Free Energies=        -1028.539736

                     E (Thermal)             CV                S
                      KCal/Mol        Cal/Mol-Kelvin    Cal/Mol-Kelvin
 Total                  124.600             49.720            111.899
 Electronic               0.000              0.000              0.000
 Translational            0.889              2.981             42.162
 Rotational               0.889              2.981             32.578
 Vibrational            122.822             43.759             37.158
 Vibration     1          0.594              1.983              5.748
 Vibration     2          0.596              1.974              4.531
 Vibration     3          0.606              1.944              3.321
 Vibration     4          0.607              1.940              3.246
 Vibration     5          0.630              1.865              2.316
 Vibration     6          0.649              1.805              1.929
 Vibration     7          0.669              1.742              1.647
 Vibration     8          0.672              1.735              1.620
 Vibration     9          0.688              1.688              1.460
 Vibration    10          0.757              1.494              1.005
 Vibration    11          0.761              1.483              0.985
 Vibration    12          0.798              1.389              0.835
 Vibration    13          0.847              1.269              0.680
 Vibration    14          0.848              1.266              0.677
 Vibration    15          0.857              1.247              0.655
 Vibration    16          0.858              1.243              0.651
 Vibration    17          0.880              1.195              0.598
 Vibration    18          0.903              1.144              0.549
 Vibration    19          0.936              1.076              0.487

 Optimization completed.
    -- Stationary point found.
 Normal termination of Gaussian 16 at Mon Jul 13 17:48:17 2020.
