 Gaussian 16, Revision C.01,
 Gaussian 16:  ES64L-G16RevC.01  3-Jul-2019

 ----------------------------------------------------------------------
 #p opt=addgic freq td wb97xd/cc-pvdz nosymm int=ultrafine scrf=(solven
 t=CarbonTetraChloride)
 ----------------------------------------------------------------------

 ------------------------------------------------
 NM 2D-scan of HBT TD-WB97XD pVDZ in CTC Relaxed.
 ------------------------------------------------
 Symbolic Z-matrix:
 Charge =  0 Multiplicity = 1

 SCF Done:  E(RwB97XD) =  -1028.55239736     A.U. after   16 cycles
 Total Energy, E(TD-HF/TD-DFT) =  -1028.44777945
 SCF Done:  E(RwB97XD) =  -1028.72880039     A.U. after   14 cycles
 Total Energy, E(TD-HF/TD-DFT) =  -1028.62687266
 SCF Done:  E(RwB97XD) =  -1028.76940279     A.U. after   15 cycles
 Total Energy, E(TD-HF/TD-DFT) =  -1028.67256891
 SCF Done:  E(RwB97XD) =  -1028.78408363     A.U. after   14 cycles
 Total Energy, E(TD-HF/TD-DFT) =  -1028.68519388
 SCF Done:  E(RwB97XD) =  -1028.78440999     A.U. after   13 cycles
 Total Energy, E(TD-HF/TD-DFT) =  -1028.68560800
 SCF Done:  E(RwB97XD) =  -1028.78551930     A.U. after   12 cycles
 Total Energy, E(TD-HF/TD-DFT) =  -1028.68584608
 SCF Done:  E(RwB97XD) =  -1028.78550631     A.U. after   10 cycles
 Total Energy, E(TD-HF/TD-DFT) =  -1028.68585593
 SCF Done:  E(RwB97XD) =  -1028.78552565     A.U. after    9 cycles
 Total Energy, E(TD-HF/TD-DFT) =  -1028.68585673
 SCF Done:  E(RwB97XD) =  -1028.78552620     A.U. after    9 cycles
 Total Energy, E(TD-HF/TD-DFT) =  -1028.68585703
 SCF Done:  E(RwB97XD) =  -1028.74809085     A.U. after   14 cycles
 Total Energy, E(TD-HF/TD-DFT) =  -1028.65044625
 Total Energy, E(TD-HF/TD-DFT) =  -1028.68585791
 Total Energy, E(TD-HF/TD-DFT) =  -1028.64507602
 Total Energy, E(TD-HF/TD-DFT) =  -1028.60583713
 Total Energy, E(TD-HF/TD-DFT) =  -1028.44064461
 Total Energy, E(TD-HF/TD-DFT) =  -1028.52763268
 Total Energy, E(TD-HF/TD-DFT) =  -1028.58708337
 Total Energy, E(TD-HF/TD-DFT) =  -1028.62463320
 Total Energy, E(TD-HF/TD-DFT) =  -1028.64732958
 Total Energy, E(TD-HF/TD-DFT) =  -1028.66286437
 Total Energy, E(TD-HF/TD-DFT) =  -1028.67388628
 Total Energy, E(TD-HF/TD-DFT) =  -1028.68912606
 Total Energy, E(TD-HF/TD-DFT) =  -1028.69006835
 Total Energy, E(TD-HF/TD-DFT) =  -1028.69114933
 Total Energy, E(TD-HF/TD-DFT) =  -1028.69445405
 Total Energy, E(TD-HF/TD-DFT) =  -1028.69617724
 Total Energy, E(TD-HF/TD-DFT) =  -1028.69756072
 Total Energy, E(TD-HF/TD-DFT) =  -1028.69838757
 Total Energy, E(TD-HF/TD-DFT) =  -1028.69848286
 Total Energy, E(TD-HF/TD-DFT) =  -1028.69861107
 Total Energy, E(TD-HF/TD-DFT) =  -1028.69867681
 SCF Done:  E(RwB97XD) =  -1028.77514628     A.U. after   13 cycles
 Total Energy, E(TD-HF/TD-DFT) =  -1028.69870020
 SCF Done:  E(RwB97XD) =  -1028.77504126     A.U. after   11 cycles
 Total Energy, E(TD-HF/TD-DFT) =  -1028.69871444
 SCF Done:  E(RwB97XD) =  -1028.77477376     A.U. after   11 cycles
 Total Energy, E(TD-HF/TD-DFT) =  -1028.69872843
 SCF Done:  E(RwB97XD) =  -1028.77480208     A.U. after   11 cycles
 Total Energy, E(TD-HF/TD-DFT) =  -1028.69873078
 SCF Done:  E(RwB97XD) =  -1028.77475531     A.U. after   10 cycles
 Total Energy, E(TD-HF/TD-DFT) =  -1028.69873097
 SCF Done:  E(RwB97XD) =  -1028.77471561     A.U. after   10 cycles
 Total Energy, E(TD-HF/TD-DFT) =  -1028.69873119
 SCF Done:  E(RwB97XD) =  -1028.77468587     A.U. after   10 cycles
 Total Energy, E(TD-HF/TD-DFT) =  -1028.69873133
 SCF Done:  E(RwB97XD) =  -1028.77463466     A.U. after   10 cycles
 Total Energy, E(TD-HF/TD-DFT) =  -1028.69873146
 SCF Done:  E(RwB97XD) =  -1028.77461095     A.U. after   10 cycles
 Total Energy, E(TD-HF/TD-DFT) =  -1028.69873159
 Optimization completed.
    -- Stationary point found.
 Normal termination of Gaussian 16 at Tue Jul 14 03:17:37 2020.

 ----------------------------------------------------------------------
 #P Geom=AllCheck Guess=TCheck SCRF=Check GenChk RwB97XD TD(FC,Read)/CC
 -pVDZ Freq
 ----------------------------------------------------------------------

 Structure from the checkpoint file:  "config_12_9.chk"
 ------------------------------------------------
 NM 2D-scan of HBT TD-WB97XD pVDZ in CTC Relaxed.
 ------------------------------------------------
 Charge =  0 Multiplicity = 1

                          Input orientation:
 ---------------------------------------------------------------------
 Center     Atomic      Atomic             Coordinates (Angstroms)
 Number     Number       Type             X           Y           Z
 ---------------------------------------------------------------------
      1          6           0        1.736732   -3.148936    0.629692
      2          6           0        1.051720   -1.975184    0.323936
      3          6           0        1.703649   -0.893848   -0.296104
      4          6           0        3.063000   -0.978225   -0.609616
      5          6           0        3.745070   -2.149859   -0.297188
      6          6           0        3.090869   -3.228238    0.310913
      7          1           0        1.225636   -3.982815    1.111982
      8          1           0        3.568884   -0.139000   -1.088337
      9          1           0        4.807051   -2.228200   -0.534385
     10          1           0        3.644535   -4.139380    0.540787
     11          7           0        0.861892    0.177789   -0.544995
     12         16           0       -0.640385   -1.594260    0.638059
     13          6           0       -1.404169    1.056280   -0.077097
     14          6           0       -2.680616    0.948758   -0.596715
     15          6           0       -0.950968    2.327814    0.491681
     16          6           0       -3.605946    2.002739   -0.456958
     17          1           0       -2.987399    0.020177   -1.082058
     18          6           0       -1.914776    3.381377    0.583649
     19          6           0       -3.218290    3.207388    0.138627
     20          1           0       -4.631309    1.867496   -0.803664
     21          1           0       -1.599772    4.301816    1.078421
     22          1           0       -3.945170    4.013074    0.255001
     23          6           0       -0.428188   -0.027587   -0.117691
     24          8           0        0.259650    2.459694    0.832810
     25          1           0        1.191625    1.147352   -0.430675
 ---------------------------------------------------------------------

 SCF Done:  E(RwB97XD) =  -1028.77461095     A.U. after    1 cycles

 Excitation energies and oscillator strengths:

 Excited state symmetry could not be determined.
 Excited State   1:      Singlet-?Sym    2.0648 eV  600.47 nm  f=0.1304  <S**2>=0.000
      58 -> 60         0.11262
      59 -> 60         0.68468
 This state for optimization and/or second-order correction.
 Total Energy, E(TD-HF/TD-DFT) =  -1028.69873160
 Copying the excited state density for this state as the 1-particle RhoCI density.

 Excited state symmetry could not be determined.
 Excited State   2:      Singlet-?Sym    3.1250 eV  396.75 nm  f=0.0470  <S**2>=0.000
      58 -> 60         0.67984
      59 -> 60        -0.11473

 Excited state symmetry could not be determined.
 Excited State   3:      Singlet-?Sym    4.0976 eV  302.58 nm  f=0.1613  <S**2>=0.000
      57 -> 60         0.63679
      59 -> 63         0.21712
      59 -> 64         0.10491

 Alpha  occ. eigenvalues --  -89.11994 -19.18639 -14.54084 -10.43441 -10.38117
 Alpha  occ. eigenvalues --  -10.37063 -10.34316 -10.34049 -10.33700 -10.33257
 Alpha  occ. eigenvalues --  -10.33112 -10.30566 -10.29902 -10.29577 -10.27864
 Alpha  occ. eigenvalues --  -10.27186  -8.13911  -6.08769  -6.08397  -6.07973
 Alpha  occ. eigenvalues --   -1.13266  -1.07265  -0.99159  -0.95512  -0.93186
 Alpha  occ. eigenvalues --   -0.89019  -0.87183  -0.83801  -0.80236  -0.75602
 Alpha  occ. eigenvalues --   -0.73993  -0.72488  -0.68723  -0.66866  -0.65240
 Alpha  occ. eigenvalues --   -0.60984  -0.59855  -0.58114  -0.56097  -0.55428
 Alpha  occ. eigenvalues --   -0.54945  -0.53106  -0.52599  -0.50069  -0.49866
 Alpha  occ. eigenvalues --   -0.47934  -0.47248  -0.46978  -0.45728  -0.45282
 Alpha  occ. eigenvalues --   -0.43374  -0.42554  -0.42037  -0.38873  -0.35767
 Alpha  occ. eigenvalues --   -0.34514  -0.32080  -0.29682  -0.24559
 Alpha virt. eigenvalues --   -0.02764   0.03055   0.04406   0.05130   0.07905
 Alpha virt. eigenvalues --    0.10548   0.13975   0.15210   0.15907   0.17181
 Alpha virt. eigenvalues --    0.18060   0.19588   0.20048   0.20735   0.21930

 Mulliken charges:
               1
     1  C    0.022328
     2  C   -0.227608
     3  C    0.234252
     4  C   -0.006757
     5  C    0.013536
     6  C    0.006912
     7  H    0.030926
     8  H    0.034786
     9  H    0.032161
    10  H    0.031555
    11  N   -0.119598
    12  S    0.272913
    13  C   -0.136555
    14  C    0.026265
    15  C    0.091900
    16  C   -0.054218
    17  H   -0.008425
    18  C   -0.052076
    19  C    0.026464
    20  H   -0.005974
    21  H   -0.004717
    22  H    0.006352
    23  C    0.041336
    24  O   -0.419035
    25  H    0.163278
 Sum of Mulliken charges =  -0.00000

 Dipole moment (field-independent basis, Debye):
    X=              3.3826    Y=             -7.2533    Z=             -1.5811  Tot=              8.1580
 Quadrupole moment (field-independent basis, Debye-Ang):
   XX=            -84.3837   YY=            -96.7945   ZZ=           -102.3558
   XY=             -5.7222   XZ=             -2.7604   YZ=             -7.0730

  Exact polarizability:     255.271     -44.144     187.845       5.053     -11.084      90.743
 Approx polarizability:     255.691     -38.337     235.250      -1.278      -7.273     113.003

 ******    1 imaginary frequencies (negative Signs) ******

                      1                      2                      3
                      A                      A                      A
 Frequencies --    -60.1423                36.3574                74.1356
 Red. masses --      5.9945                 6.3911                 5.3695
 Frc consts  --      0.0128                 0.0050                 0.0174
 IR Inten    --      8.7870                 2.8921                 4.8587

                      4                      5                      6
                      A                      A                      A
 Frequencies --    154.8074               171.7856               200.1140
 Red. masses --      6.3136                 5.9040                 5.3601
 Frc consts  --      0.0891                 0.1027                 0.1265
 IR Inten    --     10.4644                 2.7536                 1.8708

                      7                      8                      9
                      A                      A                      A
 Frequencies --    259.9590               279.7546               306.1171
 Red. masses --      7.2155                 4.8651                 8.9092
 Frc consts  --      0.2873                 0.2243                 0.4919
 IR Inten    --      5.0162                 1.9999                 0.9137

                     10                     11                     12
                      A                      A                      A
 Frequencies --    314.3098               374.9900               438.3332
 Red. masses --      3.8412                 5.6348                 3.1560
 Frc consts  --      0.2236                 0.4668                 0.3573
 IR Inten    --     19.7445                 6.5483                 6.6599

                     13                     14                     15
                      A                      A                      A
 Frequencies --    454.1553               504.6018               521.1432
 Red. masses --      4.0331                 6.7255                 3.6052
 Frc consts  --      0.4901                 1.0090                 0.5769
 IR Inten    --     23.7804                 3.7389                 4.5619

                     16                     17                     18
                      A                      A                      A
 Frequencies --    528.8770               536.6333               566.1498
 Red. masses --      2.1755                 5.5307                 5.6610
 Frc consts  --      0.3585                 0.9384                 1.0691
 IR Inten    --     74.0113                46.9395                22.3058

                     19                     20                     21
                      A                      A                      A
 Frequencies --    567.1804               583.1158               662.4612
 Red. masses --      4.2978                 5.7062                 4.3755
 Frc consts  --      0.8146                 1.1432                 1.1313
 IR Inten    --     17.1552                21.8555                 6.9816

                     22                     23                     24
                      A                      A                      A
 Frequencies --    703.2932               718.9345               739.6415
 Red. masses --      3.0822                 4.4483                 2.1471
 Frc consts  --      0.8982                 1.3547                 0.6921
 IR Inten    --     42.1095                16.4580                 4.7478

                     25                     26                     27
                      A                      A                      A
 Frequencies --    748.1185               771.1504               792.8520
 Red. masses --      2.4870                 1.5640                 2.2237
 Frc consts  --      0.8201                 0.5480                 0.8236
 IR Inten    --     14.8737                57.9226                41.4143

                     28                     29                     30
                      A                      A                      A
 Frequencies --    827.8182               873.0863               884.9427
 Red. masses --      5.6163                 1.5193                 2.1438
 Frc consts  --      2.2676                 0.6823                 0.9892
 IR Inten    --      8.2254                 0.1176                 7.3568

                     31                     32                     33
                      A                      A                      A
 Frequencies --    887.3264               959.6386               961.9136
 Red. masses --      2.4388                 1.4932                 1.3647
 Frc consts  --      1.1314                 0.8102                 0.7440
 IR Inten    --      1.9532                 7.7611                 0.6124

                     34                     35                     36
                      A                      A                      A
 Frequencies --    978.1013               994.7754              1007.1246
 Red. masses --      4.3094                 1.3449                 1.2976
 Frc consts  --      2.4290                 0.7842                 0.7755
 IR Inten    --     16.5515                 7.7656                 0.0083

                     37                     38                     39
                      A                      A                      A
 Frequencies --   1050.3801              1057.1450              1092.5272
 Red. masses --      2.0538                 2.1087                 3.9623
 Frc consts  --      1.3351                 1.3884                 2.7865
 IR Inten    --      0.5500                 6.9842                 4.7382

                     40                     41                     42
                      A                      A                      A
 Frequencies --   1124.4426              1157.2496              1163.3386
 Red. masses --      1.5282                 1.3680                 1.1833
 Frc consts  --      1.1384                 1.0794                 0.9435
 IR Inten    --     23.3455                 3.2461                54.0745

                     43                     44                     45
                      A                      A                      A
 Frequencies --   1179.5756              1227.2367              1254.0281
 Red. masses --      1.1463                 2.9159                 2.2378
 Frc consts  --      0.9397                 2.5875                 2.0734
 IR Inten    --      8.9974                36.5412                22.9628

                     46                     47                     48
                      A                      A                      A
 Frequencies --   1292.6268              1300.0048              1318.0852
 Red. masses --      1.8351                 3.7544                 1.9348
 Frc consts  --      1.8066                 3.7384                 1.9805
 IR Inten    --      1.8932                 4.1230                41.6206

                     49                     50                     51
                      A                      A                      A
 Frequencies --   1353.5012              1397.0145              1405.8296
 Red. masses --      4.3963                 2.2828                 2.0517
 Frc consts  --      4.7452                 2.6249                 2.3890
 IR Inten    --    223.7370                11.7746               146.3781

                     52                     53                     54
                      A                      A                      A
 Frequencies --   1444.2844              1465.2868              1509.6986
 Red. masses --      3.1240                 3.1835                 2.7523
 Frc consts  --      3.8394                 4.0272                 3.6959
 IR Inten    --    484.3070                30.2588                72.3468

                     55                     56                     57
                      A                      A                      A
 Frequencies --   1523.1967              1545.1802              1578.6814
 Red. masses --      3.3274                 5.2590                 4.4908
 Frc consts  --      4.5485                 7.3980                 6.5942
 IR Inten    --    103.3891                50.9767                51.3598

                     58                     59                     60
                      A                      A                      A
 Frequencies --   1631.1200              1657.1544              1674.7104
 Red. masses --      6.1301                 6.6593                 6.8675
 Frc consts  --      9.6093                10.7746                11.3482
 IR Inten    --    212.3643                 4.0655                15.8211

                     61                     62                     63
                      A                      A                      A
 Frequencies --   3204.6633              3210.1307              3212.1178
 Red. masses --      1.0867                 1.0899                 1.0859
 Frc consts  --      6.5757                 6.6174                 6.6012
 IR Inten    --      6.0363                 8.0633                 1.2169

                     64                     65                     66
                      A                      A                      A
 Frequencies --   3221.4421              3223.0712              3230.0452
 Red. masses --      1.0902                 1.0939                 1.0959
 Frc consts  --      6.6661                 6.6955                 6.7366
 IR Inten    --      3.4181                11.9107                10.3002

                     67                     68                     69
                      A                      A                      A
 Frequencies --   3233.6954              3238.7142              3404.6302
 Red. masses --      1.0991                 1.0998                 1.0817
 Frc consts  --      6.7713                 6.7968                 7.3874
 IR Inten    --     14.3478                13.4588              1200.7731

 - Thermochemistry -
 -------------------
 Temperature   298.150 Kelvin.  Pressure   1.00000 Atm.
 Atom     1 has atomic number  6 and mass  12.00000

 Molecular mass:   227.04049 amu.
 Principal axes and moments of inertia in atomic units:
                           1         2         3
     Eigenvalues --  1271.726116562.015767411.53548
           X            0.71451   0.69870   0.03584
           Y           -0.69961   0.71381   0.03179
           Z           -0.00337  -0.04779   0.99885
 This molecule is an asymmetric top.
 Rotational symmetry number  1.
 Warning -- assumption of classical behavior for rotation
           may cause significant error
 Rotational temperatures (Kelvin)      0.06811     0.01320     0.01169
 Rotational constants (GHZ):           1.41913     0.27503     0.24350
    1 imaginary frequencies ignored.
 Zero-point vibrational energy     490256.6 (Joules/Mol)
                                  117.17415 (Kcal/Mol)
 Warning -- explicit consideration of  19 degrees of freedom as
           vibrations may cause significant error
 Vibrational temperatures:     52.31   106.66   222.73   247.16   287.92
          (Kelvin)            374.02   402.50   440.43   452.22   539.53
                              630.66   653.43   726.01   749.81   760.94
                              772.10   814.56   816.05   838.97   953.13
                             1011.88  1034.39  1064.18  1076.38  1109.51
                             1140.74  1191.05  1256.18  1273.24  1276.66
                             1380.71  1383.98  1407.27  1431.26  1449.03
                             1511.26  1521.00  1571.90  1617.82  1665.02
                             1673.78  1697.15  1765.72  1804.27  1859.80
                             1870.42  1896.43  1947.39  2009.99  2022.68
                             2078.00  2108.22  2172.12  2191.54  2223.17
                             2271.37  2346.82  2384.28  2409.53  4610.80
                             4618.66  4621.52  4634.94  4637.28  4647.31
                             4652.57  4659.79  4898.50

 Zero-point correction=                           0.186729 (Hartree/Particle)
 Thermal correction to Energy=                    0.198411
 Thermal correction to Enthalpy=                  0.199355
 Thermal correction to Gibbs Free Energy=         0.148245
 Sum of electronic and zero-point Energies=          -1028.512003
 Sum of electronic and thermal Energies=             -1028.500321
 Sum of electronic and thermal Enthalpies=           -1028.499376
 Sum of electronic and thermal Free Energies=        -1028.550486

                     E (Thermal)             CV                S
                      KCal/Mol        Cal/Mol-Kelvin    Cal/Mol-Kelvin
 Total                  124.505             47.756            107.570
 Electronic               0.000              0.000              0.000
 Translational            0.889              2.981             42.162
 Rotational               0.889              2.981             32.492
 Vibrational            122.727             41.795             32.916
 Vibration     1          0.594              1.982              5.448
 Vibration     2          0.599              1.966              4.040
 Vibration     3          0.620              1.897              2.612
 Vibration     4          0.626              1.877              2.416
 Vibration     5          0.638              1.840              2.132
 Vibration     6          0.668              1.746              1.662
 Vibration     7          0.680              1.711              1.535
 Vibration     8          0.697              1.662              1.383
 Vibration     9          0.702              1.646              1.340
 Vibration    10          0.746              1.523              1.059
 Vibration    11          0.799              1.387              0.832
 Vibration    12          0.813              1.352              0.783
 Vibration    13          0.860              1.240              0.647
 Vibration    14          0.876              1.203              0.607
 Vibration    15          0.884              1.186              0.590
 Vibration    16          0.892              1.169              0.573
 Vibration    17          0.922              1.104              0.512
 Vibration    18          0.923              1.102              0.510
 Vibration    19          0.940              1.068              0.480

 Optimization completed.
    -- Stationary point found.
 Normal termination of Gaussian 16 at Tue Jul 14 03:35:27 2020.
