 Gaussian 16, Revision C.01,
 Gaussian 16:  ES64L-G16RevC.01  3-Jul-2019

 ----------------------------------------------------------------------
 #p opt=addgic freq td wb97xd/cc-pvdz nosymm int=ultrafine scrf=(solven
 t=CarbonTetraChloride)
 ----------------------------------------------------------------------

 ------------------------------------------------
 NM 2D-scan of HBT TD-WB97XD pVDZ in CTC Relaxed.
 ------------------------------------------------
 Symbolic Z-matrix:
 Charge =  0 Multiplicity = 1

 SCF Done:  E(RwB97XD) =  -1028.81909651     A.U. after   15 cycles
 Total Energy, E(TD-HF/TD-DFT) =  -1028.69008067
 SCF Done:  E(RwB97XD) =  -1028.82009560     A.U. after   12 cycles
 Total Energy, E(TD-HF/TD-DFT) =  -1028.69199001
 SCF Done:  E(RwB97XD) =  -1028.81963288     A.U. after   12 cycles
 Total Energy, E(TD-HF/TD-DFT) =  -1028.69225008
 SCF Done:  E(RwB97XD) =  -1028.81933722     A.U. after   11 cycles
 Total Energy, E(TD-HF/TD-DFT) =  -1028.69225702
 SCF Done:  E(RwB97XD) =  -1028.81959449     A.U. after   10 cycles
 Total Energy, E(TD-HF/TD-DFT) =  -1028.69229477
 SCF Done:  E(RwB97XD) =  -1028.81961629     A.U. after    7 cycles
 Total Energy, E(TD-HF/TD-DFT) =  -1028.69229536
 SCF Done:  E(RwB97XD) =  -1028.81962526     A.U. after    7 cycles
 Total Energy, E(TD-HF/TD-DFT) =  -1028.69229535
 SCF Done:  E(RwB97XD) =  -1028.81962888     A.U. after    6 cycles
 Total Energy, E(TD-HF/TD-DFT) =  -1028.69229546
 Optimization completed.
    -- Stationary point found.
 Normal termination of Gaussian 16 at Mon Jul 13 14:20:44 2020.

 ----------------------------------------------------------------------
 #P Geom=AllCheck Guess=TCheck SCRF=Check GenChk RwB97XD TD(FC,Read)/CC
 -pVDZ Freq
 ----------------------------------------------------------------------

 Structure from the checkpoint file:  "config_4_13.chk"
 ------------------------------------------------
 NM 2D-scan of HBT TD-WB97XD pVDZ in CTC Relaxed.
 ------------------------------------------------
 Charge =  0 Multiplicity = 1

                          Input orientation:
 ---------------------------------------------------------------------
 Center     Atomic      Atomic             Coordinates (Angstroms)
 Number     Number       Type             X           Y           Z
 ---------------------------------------------------------------------
      1          6           0        1.591275   -3.267281   -0.000037
      2          6           0        0.990485   -2.012916   -0.000025
      3          6           0        1.748317   -0.798705   -0.000008
      4          6           0        3.163032   -0.897841   -0.000005
      5          6           0        3.749791   -2.152358   -0.000017
      6          6           0        2.981181   -3.333745   -0.000032
      7          1           0        0.984883   -4.173835   -0.000049
      8          1           0        3.765997    0.010816    0.000007
      9          1           0        4.838708   -2.229206   -0.000013
     10          1           0        3.477587   -4.305001   -0.000041
     11          7           0        1.004129    0.327771    0.000002
     12         16           0       -0.718356   -1.664276   -0.000026
     13          6           0       -1.328789    1.053983    0.000016
     14          6           0       -2.715225    0.773722    0.000028
     15          6           0       -0.910865    2.463306    0.000025
     16          6           0       -3.645460    1.806050    0.000039
     17          1           0       -3.053992   -0.263391    0.000029
     18          6           0       -1.881889    3.481543    0.000034
     19          6           0       -3.237840    3.158717    0.000039
     20          1           0       -4.709871    1.565940    0.000046
     21          1           0       -1.537332    4.516101    0.000037
     22          1           0       -3.986858    3.951107    0.000046
     23          6           0       -0.331990    0.059497   -0.000003
     24          8           0        0.364589    2.744219    0.000021
     25          1           0        0.898173    1.832018   -0.000005
 ---------------------------------------------------------------------

 SCF Done:  E(RwB97XD) =  -1028.81962888     A.U. after    1 cycles

 Excitation energies and oscillator strengths:

 Excited state symmetry could not be determined.
 Excited State   1:      Singlet-?Sym    3.4649 eV  357.83 nm  f=0.6367  <S**2>=0.000
      59 -> 60         0.68972
 This state for optimization and/or second-order correction.
 Total Energy, E(TD-HF/TD-DFT) =  -1028.69229543
 Copying the excited state density for this state as the 1-particle RhoCI density.

 Excited state symmetry could not be determined.
 Excited State   2:      Singlet-?Sym    4.3903 eV  282.41 nm  f=0.2296  <S**2>=0.000
      57 -> 60         0.22953
      58 -> 60         0.62504
      59 -> 62         0.11347
      59 -> 63         0.10704

 Excited state symmetry could not be determined.
 Excited State   3:      Singlet-?Sym    4.6399 eV  267.21 nm  f=0.0759  <S**2>=0.000
      57 -> 60         0.57598
      57 -> 62        -0.14250
      58 -> 60        -0.22667
      58 -> 61        -0.13674
      59 -> 61         0.21849

 Alpha  occ. eigenvalues --  -89.09003 -19.27610 -14.47554 -10.39845 -10.37937
 Alpha  occ. eigenvalues --  -10.35384 -10.34766 -10.32250 -10.32188 -10.32169
 Alpha  occ. eigenvalues --  -10.31968 -10.31662 -10.31471 -10.31419 -10.30392
 Alpha  occ. eigenvalues --  -10.30318  -8.11026  -6.05867  -6.05526  -6.05086
 Alpha  occ. eigenvalues --   -1.16467  -1.08512  -0.96812  -0.95793  -0.92125
 Alpha  occ. eigenvalues --   -0.88832  -0.85103  -0.84369  -0.82393  -0.75933
 Alpha  occ. eigenvalues --   -0.71197  -0.70342  -0.69132  -0.68115  -0.63577
 Alpha  occ. eigenvalues --   -0.60551  -0.58948  -0.58641  -0.55858  -0.54424
 Alpha  occ. eigenvalues --   -0.54017  -0.53229  -0.53041  -0.50790  -0.50291
 Alpha  occ. eigenvalues --   -0.49483  -0.47358  -0.46005  -0.45643  -0.44813
 Alpha  occ. eigenvalues --   -0.44076  -0.42827  -0.42425  -0.40164  -0.37005
 Alpha  occ. eigenvalues --   -0.36480  -0.32172  -0.31408  -0.28058
 Alpha virt. eigenvalues --   -0.01755   0.05019   0.06874   0.07309   0.07587
 Alpha virt. eigenvalues --    0.11006   0.14301   0.15159   0.16627   0.18027
 Alpha virt. eigenvalues --    0.18612   0.21127   0.21633   0.22393   0.22595

 Mulliken charges:
               1
     1  C    0.018644
     2  C   -0.223655
     3  C    0.234912
     4  C   -0.019123
     5  C    0.006357
     6  C   -0.004137
     7  H    0.017857
     8  H    0.019032
     9  H    0.019687
    10  H    0.020790
    11  N   -0.362515
    12  S    0.163433
    13  C   -0.085671
    14  C   -0.024406
    15  C    0.097946
    16  C   -0.014707
    17  H    0.017529
    18  C    0.000013
    19  C    0.024017
    20  H    0.010317
    21  H    0.017751
    22  H    0.022593
    23  C    0.084436
    24  O   -0.234641
    25  H    0.193539
 Sum of Mulliken charges =  -0.00000

 Dipole moment (field-independent basis, Debye):
    X=             -0.3897    Y=             -2.4526    Z=             -0.0000  Tot=              2.4834
 Quadrupole moment (field-independent basis, Debye-Ang):
   XX=            -83.2166   YY=            -89.8305   ZZ=           -104.2972
   XY=             -7.0730   XZ=             -0.0001   YZ=              0.0001

  Exact polarizability:     390.477    -179.457     366.932      -0.002       0.003      63.320
 Approx polarizability:     276.552     -35.579     259.413      -0.001       0.002      82.347

                      1                      2                      3
                      A                      A                      A
 Frequencies --     45.5251                55.0067               108.1673
 Red. masses --      5.6570                 6.3374                 5.5185
 Frc consts  --      0.0069                 0.0113                 0.0380
 IR Inten    --      1.3730                 0.1725                 1.0795

                      4                      5                      6
                      A                      A                      A
 Frequencies --    108.3992               176.8762               223.1120
 Red. masses --      5.0560                 6.3097                 5.3355
 Frc consts  --      0.0350                 0.1163                 0.1565
 IR Inten    --      0.0992                 1.1927                 0.0074

                      7                      8                      9
                      A                      A                      A
 Frequencies --    272.5064               272.5744               302.5491
 Red. masses --      7.6016                 4.8076                 6.1542
 Frc consts  --      0.3326                 0.2104                 0.3319
 IR Inten    --     27.9591                 0.0575                 6.3058

                     10                     11                     12
                      A                      A                      A
 Frequencies --    383.9294               409.2143               439.6321
 Red. masses --      4.6451                 9.5513                 3.2280
 Frc consts  --      0.4034                 0.9424                 0.3676
 IR Inten    --      0.0999                11.4621                 4.2109

                     13                     14                     15
                      A                      A                      A
 Frequencies --    485.3328               502.8257               502.8411
 Red. masses --      4.6673                 3.1667                 7.5612
 Frc consts  --      0.6477                 0.4717                 1.1264
 IR Inten    --      0.0532                 0.0338                 2.6543

                     16                     17                     18
                      A                      A                      A
 Frequencies --    509.6260               530.8167               555.7977
 Red. masses --      4.9511                 7.8613                 3.9441
 Frc consts  --      0.7576                 1.3051                 0.7178
 IR Inten    --     11.3983                44.2235                 0.1374

                     19                     20                     21
                      A                      A                      A
 Frequencies --    577.1505               640.9698               711.8011
 Red. masses --      7.6306                 6.6599                 1.6593
 Frc consts  --      1.4976                 1.6121                 0.4953
 IR Inten    --     14.2559                38.7158                48.5898

                     22                     23                     24
                      A                      A                      A
 Frequencies --    713.0051               728.6270               739.3985
 Red. masses --      7.0893                 9.4335                 1.8531
 Frc consts  --      2.1234                 2.9508                 0.5969
 IR Inten    --      4.9517                32.5737                34.0037

                     25                     26                     27
                      A                      A                      A
 Frequencies --    750.2392               769.3815               812.8869
 Red. masses --      1.8802                 2.1128                 1.7231
 Frc consts  --      0.6235                 0.7369                 0.6708
 IR Inten    --     22.4271                51.0049                 0.8844

                     28                     29                     30
                      A                      A                      A
 Frequencies --    823.2472               860.9531               894.6978
 Red. masses --      6.2742                 1.4192                 6.4778
 Frc consts  --      2.5053                 0.6198                 3.0551
 IR Inten    --     10.2758                 0.9663                61.4354

                     31                     32                     33
                      A                      A                      A
 Frequencies --    912.6740               952.8951               963.3664
 Red. masses --      1.3533                 1.3457                 1.3676
 Frc consts  --      0.6641                 0.7199                 0.7478
 IR Inten    --      5.1431                 1.9188                 0.0946

                     34                     35                     36
                      A                      A                      A
 Frequencies --    973.6369               999.0652              1040.0686
 Red. masses --      7.2676                 1.3006                 2.1447
 Frc consts  --      4.0592                 0.7649                 1.3669
 IR Inten    --      5.1663                 0.0032                 1.5893

                     37                     38                     39
                      A                      A                      A
 Frequencies --   1044.6895              1084.4112              1104.3197
 Red. masses --      2.1092                 4.0681                 1.0567
 Frc consts  --      1.3562                 2.8186                 0.7592
 IR Inten    --      0.9823                70.7836                66.3792

                     40                     41                     42
                      A                      A                      A
 Frequencies --   1133.5399              1148.9999              1175.5631
 Red. masses --      1.4964                 1.3580                 1.1474
 Frc consts  --      1.1329                 1.0563                 0.9342
 IR Inten    --     63.0136                14.4206                12.9070

                     43                     44                     45
                      A                      A                      A
 Frequencies --   1177.9196              1241.9581              1250.7960
 Red. masses --      1.2185                 3.8929                 1.9221
 Frc consts  --      0.9961                 3.5378                 1.7717
 IR Inten    --     34.2085                51.5778               149.8122

                     46                     47                     48
                      A                      A                      A
 Frequencies --   1283.3633              1297.5999              1369.6983
 Red. masses --      1.7942                 3.5585                 2.8199
 Frc consts  --      1.7411                 3.5302                 3.1169
 IR Inten    --      3.0961               160.1686                 2.6339

                     49                     50                     51
                      A                      A                      A
 Frequencies --   1372.7850              1403.5292              1444.2296
 Red. masses --      4.3578                 2.3195                 2.4728
 Frc consts  --      4.8386                 2.6920                 3.0389
 IR Inten    --    187.6861                13.9673               129.9556

                     52                     53                     54
                      A                      A                      A
 Frequencies --   1470.3511              1494.2450              1536.2960
 Red. masses --      3.8870                 3.3016                 4.6122
 Frc consts  --      4.9511                 4.3433                 6.4137
 IR Inten    --     26.6774                63.2685               184.9072

                     55                     56                     57
                      A                      A                      A
 Frequencies --   1543.5389              1574.2072              1595.1262
 Red. masses --      4.0065                 6.9793                 4.3892
 Frc consts  --      5.6241                10.1902                 6.5800
 IR Inten    --     43.7031               418.4156                 9.0913

                     58                     59                     60
                      A                      A                      A
 Frequencies --   1611.6113              1645.4928              1681.2488
 Red. masses --      5.7509                 5.7647                 1.4482
 Frc consts  --      8.8006                 9.1964                 2.4119
 IR Inten    --    698.8434               416.3853               281.8602

                     61                     62                     63
                      A                      A                      A
 Frequencies --   2129.7071              3207.0702              3210.8970
 Red. masses --      1.1367                 1.0862                 1.0863
 Frc consts  --      3.0378                 6.5822                 6.5986
 IR Inten    --    354.4543                 9.1344                 8.0106

                     64                     65                     66
                      A                      A                      A
 Frequencies --   3217.8453              3221.8631              3229.3830
 Red. masses --      1.0899                 1.0891                 1.0943
 Frc consts  --      6.6493                 6.6606                 6.7242
 IR Inten    --      2.6863                 4.4631                18.7339

                     67                     68                     69
                      A                      A                      A
 Frequencies --   3229.4744              3235.6913              3240.8707
 Red. masses --      1.0951                 1.0991                 1.0983
 Frc consts  --      6.7295                 6.7800                 6.7963
 IR Inten    --      6.2966                37.1619                24.8502

 - Thermochemistry -
 -------------------
 Temperature   298.150 Kelvin.  Pressure   1.00000 Atm.
 Atom     1 has atomic number  6 and mass  12.00000

 Molecular mass:   227.04049 amu.
 Principal axes and moments of inertia in atomic units:
                           1         2         3
     Eigenvalues --  1300.954396314.100157615.05454
           X           -0.70283   0.71136   0.00000
           Y            0.71136   0.70283  -0.00001
           Z            0.00001   0.00001   1.00000
 This molecule is an asymmetric top.
 Rotational symmetry number  1.
 Warning -- assumption of classical behavior for rotation
           may cause significant error
 Rotational temperatures (Kelvin)      0.06658     0.01372     0.01137
 Rotational constants (GHZ):           1.38724     0.28583     0.23700
 Zero-point vibrational energy     486623.6 (Joules/Mol)
                                  116.30584 (Kcal/Mol)
 Warning -- explicit consideration of  19 degrees of freedom as
           vibrations may cause significant error
 Vibrational temperatures:     65.50    79.14   155.63   155.96   254.49
          (Kelvin)            321.01   392.08   392.17   435.30   552.39
                              588.77   632.53   698.29   723.45   723.48
                              733.24   763.73   799.67   830.39   922.21
                             1024.12  1025.86  1048.33  1063.83  1079.43
                             1106.97  1169.56  1184.47  1238.72  1287.27
                             1313.13  1371.00  1386.07  1400.85  1437.43
                             1496.43  1503.08  1560.23  1588.87  1630.91
                             1653.15  1691.37  1694.76  1786.90  1799.62
                             1846.47  1866.96  1970.69  1975.13  2019.37
                             2077.92  2115.51  2149.89  2210.39  2220.81
                             2264.93  2295.03  2318.75  2367.50  2418.94
                             3064.17  4614.26  4619.76  4629.76  4635.54
                             4646.36  4646.49  4655.44  4662.89

 Zero-point correction=                           0.185345 (Hartree/Particle)
 Thermal correction to Energy=                    0.197616
 Thermal correction to Enthalpy=                  0.198560
 Thermal correction to Gibbs Free Energy=         0.145929
 Sum of electronic and zero-point Energies=          -1028.506950
 Sum of electronic and thermal Energies=             -1028.494680
 Sum of electronic and thermal Enthalpies=           -1028.493736
 Sum of electronic and thermal Free Energies=        -1028.546366

                     E (Thermal)             CV                S
                      KCal/Mol        Cal/Mol-Kelvin    Cal/Mol-Kelvin
 Total                  124.006             49.075            110.771
 Electronic               0.000              0.000              0.000
 Translational            0.889              2.981             42.162
 Rotational               0.889              2.981             32.503
 Vibrational            122.228             43.113             36.105
 Vibration     1          0.595              1.979              5.003
 Vibration     2          0.596              1.976              4.629
 Vibration     3          0.606              1.943              3.302
 Vibration     4          0.606              1.943              3.297
 Vibration     5          0.628              1.871              2.361
 Vibration     6          0.649              1.806              1.934
 Vibration     7          0.676              1.724              1.580
 Vibration     8          0.676              1.724              1.580
 Vibration     9          0.694              1.669              1.403
 Vibration    10          0.753              1.504              1.024
 Vibration    11          0.774              1.450              0.929
 Vibration    12          0.800              1.384              0.828
 Vibration    13          0.841              1.283              0.696
 Vibration    14          0.858              1.244              0.651
 Vibration    15          0.858              1.244              0.651
 Vibration    16          0.865              1.229              0.634
 Vibration    17          0.886              1.182              0.585
 Vibration    18          0.911              1.127              0.532
 Vibration    19          0.934              1.081              0.491

 Optimization completed.
    -- Stationary point found.
 Normal termination of Gaussian 16 at Mon Jul 13 14:39:49 2020.
