 Gaussian 16, Revision C.01,
 Gaussian 16:  ES64L-G16RevC.01  3-Jul-2019

 ----------------------------------------------------------------------
 #p opt=addgic freq td wb97xd/cc-pvdz nosymm int=ultrafine scrf=(solven
 t=CarbonTetraChloride)
 ----------------------------------------------------------------------

 ------------------------------------------------
 NM 2D-scan of HBT TD-WB97XD pVDZ in CTC Relaxed.
 ------------------------------------------------
 Symbolic Z-matrix:
 Charge =  0 Multiplicity = 1

 SCF Done:  E(RwB97XD) =  -1028.81150007     A.U. after   15 cycles
 Total Energy, E(TD-HF/TD-DFT) =  -1028.68725738
 SCF Done:  E(RwB97XD) =  -1028.81225873     A.U. after   11 cycles
 Total Energy, E(TD-HF/TD-DFT) =  -1028.68748636
 SCF Done:  E(RwB97XD) =  -1028.81269607     A.U. after   11 cycles
 Total Energy, E(TD-HF/TD-DFT) =  -1028.68743488
 SCF Done:  E(RwB97XD) =  -1028.81241440     A.U. after   10 cycles
 Total Energy, E(TD-HF/TD-DFT) =  -1028.68756183
 Optimization completed.
    -- Stationary point found.
 Normal termination of Gaussian 16 at Tue Jul 14 10:48:09 2020.

 ----------------------------------------------------------------------
 #P Geom=AllCheck Guess=TCheck SCRF=Check GenChk RwB97XD TD(FC,Read)/CC
 -pVDZ Freq
 ----------------------------------------------------------------------

 Structure from the checkpoint file:  "config_5_16.chk"
 ------------------------------------------------
 NM 2D-scan of HBT TD-WB97XD pVDZ in CTC Relaxed.
 ------------------------------------------------
 Charge =  0 Multiplicity = 1

                          Input orientation:
 ---------------------------------------------------------------------
 Center     Atomic      Atomic             Coordinates (Angstroms)
 Number     Number       Type             X           Y           Z
 ---------------------------------------------------------------------
      1          6           0        1.547768   -3.249352   -0.000033
      2          6           0        1.000932   -1.971972   -0.000027
      3          6           0        1.784854   -0.778089   -0.000020
      4          6           0        3.192943   -0.933918   -0.000026
      5          6           0        3.733612   -2.215425   -0.000032
      6          6           0        2.931544   -3.371530   -0.000034
      7          1           0        0.899594   -4.126797   -0.000036
      8          1           0        3.838614   -0.054780   -0.000022
      9          1           0        4.819752   -2.326601   -0.000034
     10          1           0        3.393983   -4.359360   -0.000038
     11          7           0        1.038618    0.364405   -0.000009
     12         16           0       -0.697610   -1.605127   -0.000024
     13          6           0       -1.315829    1.065290    0.000035
     14          6           0       -2.684184    0.737036    0.000050
     15          6           0       -0.915060    2.474241    0.000041
     16          6           0       -3.646147    1.745148    0.000036
     17          1           0       -2.993607   -0.309035    0.000063
     18          6           0       -1.920122    3.468492    0.000016
     19          6           0       -3.270433    3.104595    0.000010
     20          1           0       -4.703775    1.476368    0.000039
     21          1           0       -1.612207    4.514827    0.000011
     22          1           0       -4.040202    3.877066   -0.000007
     23          6           0       -0.297580    0.093700    0.000002
     24          8           0        0.357252    2.732038    0.000071
     25          1           0        0.925511    1.747669    0.000078
 ---------------------------------------------------------------------

 SCF Done:  E(RwB97XD) =  -1028.81241440     A.U. after    1 cycles

 Excitation energies and oscillator strengths:

 Excited state symmetry could not be determined.
 Excited State   1:      Singlet-?Sym    3.3974 eV  364.94 nm  f=0.5614  <S**2>=0.000
      59 -> 60         0.69145
 This state for optimization and/or second-order correction.
 Total Energy, E(TD-HF/TD-DFT) =  -1028.68756182
 Copying the excited state density for this state as the 1-particle RhoCI density.

 Excited state symmetry could not be determined.
 Excited State   2:      Singlet-?Sym    4.3761 eV  283.32 nm  f=0.2530  <S**2>=0.000
      57 -> 60         0.16597
      58 -> 60         0.65096
      59 -> 63        -0.10263

 Excited state symmetry could not be determined.
 Excited State   3:      Singlet-?Sym    4.7071 eV  263.40 nm  f=0.0861  <S**2>=0.000
      57 -> 60         0.59174
      57 -> 62        -0.15123
      58 -> 60        -0.17103
      58 -> 61        -0.15791
      59 -> 61        -0.20845

 Alpha  occ. eigenvalues --  -89.09073 -19.26400 -14.48422 -10.40022 -10.37602
 Alpha  occ. eigenvalues --  -10.35969 -10.34889 -10.32303 -10.32119 -10.32016
 Alpha  occ. eigenvalues --  -10.31879 -10.31672 -10.31667 -10.31596 -10.30220
 Alpha  occ. eigenvalues --  -10.30154  -8.11176  -6.06012  -6.05667  -6.05234
 Alpha  occ. eigenvalues --   -1.15177  -1.08885  -0.97007  -0.95880  -0.92518
 Alpha  occ. eigenvalues --   -0.88859  -0.85466  -0.84061  -0.82398  -0.75869
 Alpha  occ. eigenvalues --   -0.71361  -0.70712  -0.68929  -0.67819  -0.63589
 Alpha  occ. eigenvalues --   -0.60743  -0.59132  -0.58397  -0.55717  -0.54379
 Alpha  occ. eigenvalues --   -0.54334  -0.53460  -0.53007  -0.50754  -0.49995
 Alpha  occ. eigenvalues --   -0.49594  -0.46853  -0.46199  -0.45717  -0.44895
 Alpha  occ. eigenvalues --   -0.44287  -0.42665  -0.42591  -0.40404  -0.36510
 Alpha  occ. eigenvalues --   -0.36334  -0.32329  -0.31335  -0.27947
 Alpha virt. eigenvalues --   -0.01732   0.04800   0.06639   0.07606   0.07609
 Alpha virt. eigenvalues --    0.10845   0.14618   0.15096   0.16988   0.17940
 Alpha virt. eigenvalues --    0.18679   0.21047   0.21545   0.22332   0.22463

 Mulliken charges:
               1
     1  C    0.022075
     2  C   -0.223064
     3  C    0.243876
     4  C   -0.021473
     5  C    0.004985
     6  C   -0.000961
     7  H    0.018971
     8  H    0.022248
     9  H    0.021346
    10  H    0.021785
    11  N   -0.352928
    12  S    0.172057
    13  C   -0.088938
    14  C   -0.029394
    15  C    0.117125
    16  C   -0.018055
    17  H    0.019941
    18  C   -0.011106
    19  C    0.025851
    20  H    0.008725
    21  H    0.015683
    22  H    0.021868
    23  C    0.083506
    24  O   -0.294196
    25  H    0.220074
 Sum of Mulliken charges =  -0.00000

 Dipole moment (field-independent basis, Debye):
    X=             -0.1526    Y=             -3.1047    Z=             -0.0000  Tot=              3.1084
 Quadrupole moment (field-independent basis, Debye-Ang):
   XX=            -83.1078   YY=            -90.8512   ZZ=           -104.2260
   XY=             -7.0675   XZ=             -0.0000   YZ=             -0.0001

  Exact polarizability:     374.038    -161.118     343.736      -0.002       0.003      63.242
 Approx polarizability:     274.437     -34.708     258.628      -0.000       0.001      82.305

 ******    1 imaginary frequencies (negative Signs) ******

                      1                      2                      3
                      A                      A                      A
 Frequencies --   -761.3065                46.8140                52.3291
 Red. masses --      1.2482                 5.2067                 6.8075
 Frc consts  --      0.4262                 0.0067                 0.0110
 IR Inten    --    403.0744                 0.7098                 0.8073

                      4                      5                      6
                      A                      A                      A
 Frequencies --    112.7787               158.3328               176.1611
 Red. masses --      5.4353                 5.6621                 6.1826
 Frc consts  --      0.0407                 0.0836                 0.1130
 IR Inten    --      0.0036                 6.5015                 1.0834

                      7                      8                      9
                      A                      A                      A
 Frequencies --    222.4487               273.8691               279.5248
 Red. masses --      5.3292                 4.7480                 7.5149
 Frc consts  --      0.1554                 0.2098                 0.3459
 IR Inten    --      0.0262                 0.0349                21.8338

                     10                     11                     12
                      A                      A                      A
 Frequencies --    375.8819               395.1851               424.2136
 Red. masses --      4.7584                 5.6341                10.9036
 Frc consts  --      0.3961                 0.5184                 1.1561
 IR Inten    --      0.1135                 3.2944                 5.6124

                     13                     14                     15
                      A                      A                      A
 Frequencies --    440.7803               477.1749               501.4309
 Red. masses --      3.2086                 4.7756                 3.1682
 Frc consts  --      0.3673                 0.6407                 0.4693
 IR Inten    --      4.0887                 0.0303                 0.2198

                     16                     17                     18
                      A                      A                      A
 Frequencies --    507.4283               540.4348               559.5157
 Red. masses --      8.7372                 8.1810                 3.8907
 Frc consts  --      1.3255                 1.4078                 0.7176
 IR Inten    --      0.9469                23.8498                 0.1794

                     19                     20                     21
                      A                      A                      A
 Frequencies --    575.9734               629.4400               705.6808
 Red. masses --      7.6547                 6.8519                 1.6055
 Frc consts  --      1.4962                 1.5994                 0.4711
 IR Inten    --      0.1217                 7.4585                49.0970

                     22                     23                     24
                      A                      A                      A
 Frequencies --    710.9493               742.3557               743.4084
 Red. masses --      6.6221                 1.9470                 9.2721
 Frc consts  --      1.9721                 0.6322                 3.0191
 IR Inten    --     38.1792                31.9012                 2.1135

                     25                     26                     27
                      A                      A                      A
 Frequencies --    752.4325               767.7639               769.5004
 Red. masses --      1.8162                 2.0233                 5.4279
 Frc consts  --      0.6058                 0.7027                 1.8937
 IR Inten    --     20.0678                54.6424               179.8348

                     28                     29                     30
                      A                      A                      A
 Frequencies --    807.9358               835.3743               863.7015
 Red. masses --      1.8120                 6.3337                 1.4055
 Frc consts  --      0.6969                 2.6042                 0.6178
 IR Inten    --      0.7367                10.4764                 0.9985

                     31                     32                     33
                      A                      A                      A
 Frequencies --    907.7073               913.4938               953.7500
 Red. masses --      1.3605                 6.5376                 1.3480
 Frc consts  --      0.6605                 3.2142                 0.7225
 IR Inten    --      4.6001                15.8821                 2.0339

                     34                     35                     36
                      A                      A                      A
 Frequencies --    959.8026               997.2831               999.4102
 Red. masses --      1.3786                 7.5104                 1.2999
 Frc consts  --      0.7483                 4.4010                 0.7650
 IR Inten    --      0.1408                 0.9699                 0.0006

                     37                     38                     39
                      A                      A                      A
 Frequencies --   1043.0629              1048.2991              1095.3980
 Red. masses --      2.0838                 2.0243                 3.8624
 Frc consts  --      1.3358                 1.3107                 2.7305
 IR Inten    --      4.0962                 1.7011                69.7350

                     40                     41                     42
                      A                      A                      A
 Frequencies --   1138.2664              1155.8552              1176.8042
 Red. masses --      1.4502                 1.4112                 1.1393
 Frc consts  --      1.1071                 1.1108                 0.9296
 IR Inten    --     34.7038                28.7827                 4.5839

                     43                     44                     45
                      A                      A                      A
 Frequencies --   1178.4306              1202.0679              1256.3211
 Red. masses --      1.2392                 1.0509                 1.8595
 Frc consts  --      1.0139                 0.8947                 1.7292
 IR Inten    --     77.7232                66.3160               146.6215

                     46                     47                     48
                      A                      A                      A
 Frequencies --   1262.4368              1292.7914              1355.2316
 Red. masses --      2.9010                 2.1325                 3.9268
 Frc consts  --      2.7241                 2.0999                 4.2493
 IR Inten    --     37.2903                 9.5870                 6.5750

                     49                     50                     51
                      A                      A                      A
 Frequencies --   1375.2890              1385.2519              1408.0978
 Red. masses --      4.0213                 2.5743                 3.0017
 Frc consts  --      4.4813                 2.9105                 3.5066
 IR Inten    --    436.9756                11.7553               116.2703

                     52                     53                     54
                      A                      A                      A
 Frequencies --   1447.1449              1474.6451              1505.0279
 Red. masses --      2.7953                 3.1017                 3.4906
 Frc consts  --      3.4490                 3.9740                 4.6584
 IR Inten    --    207.2849                77.7128                12.5701

                     55                     56                     57
                      A                      A                      A
 Frequencies --   1534.5930              1550.7927              1578.0621
 Red. masses --      4.5621                 4.5324                 6.3796
 Frc consts  --      6.3300                 6.4223                 9.3603
 IR Inten    --    235.8017                74.1453               303.8233

                     58                     59                     60
                      A                      A                      A
 Frequencies --   1614.4060              1641.4692              1650.4449
 Red. masses --      6.0140                 5.8525                 6.0723
 Frc consts  --      9.2350                 9.2909                 9.7455
 IR Inten    --    245.7496              1320.7374                10.5963

                     61                     62                     63
                      A                      A                      A
 Frequencies --   1807.2300              3203.6484              3211.3954
 Red. masses --      1.0913                 1.0862                 1.0861
 Frc consts  --      2.0999                 6.5681                 6.5997
 IR Inten    --     79.3130                 7.8264                 9.4087

                     64                     65                     66
                      A                      A                      A
 Frequencies --   3213.7515              3221.4995              3224.5402
 Red. masses --      1.0901                 1.0886                 1.0950
 Frc consts  --      6.6333                 6.6562                 6.7083
 IR Inten    --      2.0477                13.7656                10.4359

                     67                     68                     69
                      A                      A                      A
 Frequencies --   3229.1484              3232.4672              3239.5096
 Red. masses --      1.0945                 1.0993                 1.0981
 Frc consts  --      6.7245                 6.7679                 6.7900
 IR Inten    --     10.7789                30.4558                20.6858

 - Thermochemistry -
 -------------------
 Temperature   298.150 Kelvin.  Pressure   1.00000 Atm.
 Atom     1 has atomic number  6 and mass  12.00000

 Molecular mass:   227.04049 amu.
 Principal axes and moments of inertia in atomic units:
                           1         2         3
     Eigenvalues --  1280.057256290.617657570.67490
           X           -0.70553   0.70868   0.00000
           Y            0.70868   0.70553  -0.00001
           Z            0.00001   0.00001   1.00000
 This molecule is an asymmetric top.
 Rotational symmetry number  1.
 Warning -- assumption of classical behavior for rotation
           may cause significant error
 Rotational temperatures (Kelvin)      0.06766     0.01377     0.01144
 Rotational constants (GHZ):           1.40989     0.28689     0.23839
    1 imaginary frequencies ignored.
 Zero-point vibrational energy     479305.6 (Joules/Mol)
                                  114.55680 (Kcal/Mol)
 Warning -- explicit consideration of  18 degrees of freedom as
           vibrations may cause significant error
 Vibrational temperatures:     67.35    75.29   162.26   227.81   253.46
          (Kelvin)            320.05   394.04   402.17   540.81   568.58
                              610.35   634.18   686.55   721.45   730.08
                              777.57   805.02   828.70   905.62  1015.32
                             1022.90  1068.08  1069.60  1082.58  1104.64
                             1107.14  1162.44  1201.92  1242.67  1305.99
                             1314.31  1372.23  1380.94  1434.87  1437.93
                             1500.73  1508.27  1576.03  1637.71  1663.02
                             1693.16  1695.50  1729.51  1807.57  1816.37
                             1860.04  1949.88  1978.73  1993.07  2025.94
                             2082.12  2121.69  2165.40  2207.94  2231.24
                             2270.48  2322.77  2361.71  2374.62  2600.20
                             4609.34  4620.48  4623.87  4635.02  4639.39
                             4646.02  4650.80  4660.93

 Zero-point correction=                           0.182558 (Hartree/Particle)
 Thermal correction to Energy=                    0.194457
 Thermal correction to Enthalpy=                  0.195401
 Thermal correction to Gibbs Free Energy=         0.143602
 Sum of electronic and zero-point Energies=          -1028.505004
 Sum of electronic and thermal Energies=             -1028.493105
 Sum of electronic and thermal Enthalpies=           -1028.492161
 Sum of electronic and thermal Free Energies=        -1028.543960

                     E (Thermal)             CV                S
                      KCal/Mol        Cal/Mol-Kelvin    Cal/Mol-Kelvin
 Total                  122.023             48.017            109.021
 Electronic               0.000              0.000              0.000
 Translational            0.889              2.981             42.162
 Rotational               0.889              2.981             32.478
 Vibrational            120.246             42.056             34.381
 Vibration     1          0.595              1.979              4.948
 Vibration     2          0.596              1.977              4.727
 Vibration     3          0.607              1.939              3.221
 Vibration     4          0.621              1.893              2.570
 Vibration     5          0.628              1.872              2.369
 Vibration     6          0.648              1.807              1.939
 Vibration     7          0.676              1.722              1.572
 Vibration     8          0.680              1.711              1.537
 Vibration     9          0.747              1.521              1.056
 Vibration    10          0.762              1.480              0.981
 Vibration    11          0.786              1.418              0.878
 Vibration    12          0.801              1.381              0.824
 Vibration    13          0.834              1.301              0.718
 Vibration    14          0.857              1.247              0.655
 Vibration    15          0.863              1.234              0.640
 Vibration    16          0.896              1.161              0.564
 Vibration    17          0.915              1.119              0.525
 Vibration    18          0.932              1.083              0.493

 Optimization completed.
    -- Stationary point found.
 Normal termination of Gaussian 16 at Tue Jul 14 11:05:58 2020.
