 Gaussian 16, Revision C.01,
 Gaussian 16:  ES64L-G16RevC.01  3-Jul-2019

 ----------------------------------------------------------------------
 #p opt=addgic freq td wb97xd/cc-pvdz nosymm int=ultrafine scrf=(solven
 t=CarbonTetraChloride)
 ----------------------------------------------------------------------

 ------------------------------------------------
 NM 2D-scan of HBT TD-WB97XD pVDZ in CTC Relaxed.
 ------------------------------------------------
 Symbolic Z-matrix:
 Charge =  0 Multiplicity = 1

 SCF Done:  E(RwB97XD) =  -1028.78060495     A.U. after   16 cycles
 Total Energy, E(TD-HF/TD-DFT) =  -1028.67244185
 SCF Done:  E(RwB97XD) =  -1028.79900111     A.U. after   14 cycles
 Total Energy, E(TD-HF/TD-DFT) =  -1028.69642763
 SCF Done:  E(RwB97XD) =  -1028.80315660     A.U. after   12 cycles
 Total Energy, E(TD-HF/TD-DFT) =  -1028.69920033
 SCF Done:  E(RwB97XD) =  -1028.80359988     A.U. after   12 cycles
 Total Energy, E(TD-HF/TD-DFT) =  -1028.69952009
 SCF Done:  E(RwB97XD) =  -1028.80361388     A.U. after    9 cycles
 Total Energy, E(TD-HF/TD-DFT) =  -1028.69952503
 Optimization completed.
    -- Stationary point found.
 Normal termination of Gaussian 16 at Tue Jul 14 13:33:51 2020.

 ----------------------------------------------------------------------
 #P Geom=AllCheck Guess=TCheck SCRF=Check GenChk RwB97XD TD(FC,Read)/CC
 -pVDZ Freq
 ----------------------------------------------------------------------

 Structure from the checkpoint file:  "config_9_17.chk"
 ------------------------------------------------
 NM 2D-scan of HBT TD-WB97XD pVDZ in CTC Relaxed.
 ------------------------------------------------
 Charge =  0 Multiplicity = 1

                          Input orientation:
 ---------------------------------------------------------------------
 Center     Atomic      Atomic             Coordinates (Angstroms)
 Number     Number       Type             X           Y           Z
 ---------------------------------------------------------------------
      1          6           0        1.554319   -3.288018   -0.000020
      2          6           0        0.999766   -2.012664   -0.000015
      3          6           0        1.800032   -0.847833   -0.000016
      4          6           0        3.197787   -0.973683   -0.000025
      5          6           0        3.746244   -2.252562   -0.000030
      6          6           0        2.942109   -3.401590   -0.000027
      7          1           0        0.915298   -4.171682   -0.000017
      8          1           0        3.831758   -0.086566   -0.000026
      9          1           0        4.832027   -2.360468   -0.000036
     10          1           0        3.403994   -4.389396   -0.000030
     11          7           0        1.043749    0.297622   -0.000012
     12         16           0       -0.701869   -1.600536   -0.000006
     13          6           0       -1.317276    1.112827    0.000020
     14          6           0       -2.666921    0.769607    0.000023
     15          6           0       -0.931495    2.538929    0.000037
     16          6           0       -3.677779    1.757838    0.000030
     17          1           0       -2.967667   -0.280663    0.000016
     18          6           0       -1.992259    3.494270    0.000036
     19          6           0       -3.339461    3.109975    0.000033
     20          1           0       -4.723520    1.447455    0.000030
     21          1           0       -1.702810    4.546629    0.000045
     22          1           0       -4.123062    3.869053    0.000035
     23          6           0       -0.306195    0.101649    0.000000
     24          8           0        0.290794    2.867075    0.000046
     25          1           0        1.322277    1.296037    0.000011
 ---------------------------------------------------------------------

 SCF Done:  E(RwB97XD) =  -1028.80361388     A.U. after    1 cycles

 Excitation energies and oscillator strengths:

 Excited state symmetry could not be determined.
 Excited State   1:      Singlet-?Sym    2.8324 eV  437.74 nm  f=0.4428  <S**2>=0.000
      59 -> 60         0.69730
 This state for optimization and/or second-order correction.
 Total Energy, E(TD-HF/TD-DFT) =  -1028.69952504
 Copying the excited state density for this state as the 1-particle RhoCI density.

 Excited state symmetry could not be determined.
 Excited State   2:      Singlet-?Sym    3.5463 eV  349.62 nm  f=0.0000  <S**2>=0.000
      58 -> 60         0.68350
      58 -> 62         0.11689
      58 -> 64         0.11199

 Excited state symmetry could not be determined.
 Excited State   3:      Singlet-?Sym    4.2746 eV  290.05 nm  f=0.3656  <S**2>=0.000
      57 -> 60         0.68354

 Alpha  occ. eigenvalues --  -89.10293 -19.20767 -14.53086 -10.42063 -10.37816
 Alpha  occ. eigenvalues --  -10.36219 -10.35633 -10.33387 -10.33166 -10.32658
 Alpha  occ. eigenvalues --  -10.32449 -10.31463 -10.30862 -10.30794 -10.29192
 Alpha  occ. eigenvalues --  -10.28356  -8.12344  -6.07213  -6.06841  -6.06364
 Alpha  occ. eigenvalues --   -1.12833  -1.08808  -0.98489  -0.95651  -0.93304
 Alpha  occ. eigenvalues --   -0.89093  -0.86859  -0.83740  -0.81197  -0.75890
 Alpha  occ. eigenvalues --   -0.73400  -0.72249  -0.68840  -0.67639  -0.65208
 Alpha  occ. eigenvalues --   -0.61055  -0.59707  -0.56653  -0.55991  -0.55782
 Alpha  occ. eigenvalues --   -0.55061  -0.53911  -0.53067  -0.50375  -0.48739
 Alpha  occ. eigenvalues --   -0.48704  -0.48560  -0.47014  -0.45540  -0.44903
 Alpha  occ. eigenvalues --   -0.44099  -0.42921  -0.42269  -0.39991  -0.36850
 Alpha  occ. eigenvalues --   -0.33706  -0.31423  -0.31372  -0.25781
 Alpha virt. eigenvalues --   -0.02103   0.03684   0.05548   0.06662   0.09390
 Alpha virt. eigenvalues --    0.10790   0.13844   0.14749   0.16222   0.17269
 Alpha virt. eigenvalues --    0.18096   0.19928   0.20626   0.21217   0.22518

 Mulliken charges:
               1
     1  C    0.020752
     2  C   -0.234191
     3  C    0.249647
     4  C   -0.010875
     5  C    0.010433
     6  C    0.003137
     7  H    0.025525
     8  H    0.031066
     9  H    0.027883
    10  H    0.027122
    11  N   -0.141280
    12  S    0.200183
    13  C   -0.074244
    14  C   -0.038524
    15  C    0.105696
    16  C   -0.033166
    17  H    0.013091
    18  C   -0.034035
    19  C    0.033264
    20  H    0.001442
    21  H    0.001324
    22  H    0.014598
    23  C    0.061123
    24  O   -0.403223
    25  H    0.143252
 Sum of Mulliken charges =  -0.00000

 Dipole moment (field-independent basis, Debye):
    X=              2.0231    Y=             -5.9600    Z=             -0.0001  Tot=              6.2940
 Quadrupole moment (field-independent basis, Debye-Ang):
   XX=            -81.6559   YY=            -97.0406   ZZ=           -104.1785
   XY=             -6.3033   XZ=             -0.0001   YZ=             -0.0001

  Exact polarizability:     346.816    -121.006     296.960      -0.002       0.002      63.197
 Approx polarizability:     272.997     -36.474     264.673      -0.001       0.001      81.962

                      1                      2                      3
                      A                      A                      A
 Frequencies --      9.6330                43.2509               116.3421
 Red. masses --      5.2861                 5.8443                 5.8570
 Frc consts  --      0.0003                 0.0064                 0.0467
 IR Inten    --      1.5446                 0.9760                 1.2639

                      4                      5                      6
                      A                      A                      A
 Frequencies --    118.6900               182.9724               224.1854
 Red. masses --      5.8072                 5.7025                 5.5258
 Frc consts  --      0.0482                 0.1125                 0.1636
 IR Inten    --      8.6021                 0.0506                 0.2305

                      7                      8                      9
                      A                      A                      A
 Frequencies --    267.4689               273.1748               296.4233
 Red. masses --      8.3861                 4.5920                 7.5031
 Frc consts  --      0.3535                 0.2019                 0.3884
 IR Inten    --      2.4537                 0.4099                 2.3310

                     10                     11                     12
                      A                      A                      A
 Frequencies --    351.7065               392.2843               432.8410
 Red. masses --      4.7444                 7.9721                 3.5605
 Frc consts  --      0.3458                 0.7228                 0.3930
 IR Inten    --      1.1014                 6.8605                 2.3001

                     13                     14                     15
                      A                      A                      A
 Frequencies --    452.9933               506.1919               511.8029
 Red. masses --      4.2591                 8.6318                 3.2179
 Frc consts  --      0.5149                 1.3031                 0.4966
 IR Inten    --      3.9749                10.4325                 0.3209

                     16                     17                     18
                      A                      A                      A
 Frequencies --    542.7989               547.6275               559.3146
 Red. masses --      8.4293                 6.5811                 3.8505
 Frc consts  --      1.4633                 1.1628                 0.7097
 IR Inten    --      6.3691                39.3637                 0.5653

                     19                     20                     21
                      A                      A                      A
 Frequencies --    568.4427               633.5384               694.6383
 Red. masses --      7.2047                 6.1893                 1.5098
 Frc consts  --      1.3716                 1.4636                 0.4292
 IR Inten    --      9.9880                38.1526                42.8605

                     22                     23                     24
                      A                      A                      A
 Frequencies --    719.5305               730.3982               744.4842
 Red. masses --      6.0799                 7.8829                 2.6404
 Frc consts  --      1.8546                 2.4777                 0.8622
 IR Inten    --      2.8921                 4.0492                12.9527

                     25                     26                     27
                      A                      A                      A
 Frequencies --    757.9217               766.8666               825.4174
 Red. masses --      1.6589                 1.6458                 6.4279
 Frc consts  --      0.5615                 0.5703                 2.5803
 IR Inten    --      2.5237                86.0424                18.4286

                     28                     29                     30
                      A                      A                      A
 Frequencies --    829.0522               836.4801               870.2181
 Red. masses --      1.3518                 1.4364                 4.6538
 Frc consts  --      0.5474                 0.5921                 2.0764
 IR Inten    --     26.8686                49.6786                 2.9560

                     31                     32                     33
                      A                      A                      A
 Frequencies --    870.8307               900.5164               952.1919
 Red. masses --      1.3740                 1.4409                 1.3609
 Frc consts  --      0.6139                 0.6884                 0.7270
 IR Inten    --      0.3570                 9.2336                 0.5937

                     34                     35                     36
                      A                      A                      A
 Frequencies --    958.8517               961.8957              1004.1494
 Red. masses --      1.3515                 5.3735                 1.2979
 Frc consts  --      0.7321                 2.9293                 0.7710
 IR Inten    --      1.4599                 0.1863                 0.0127

                     37                     38                     39
                      A                      A                      A
 Frequencies --   1052.8374              1057.2657              1092.4215
 Red. masses --      2.1144                 2.0759                 3.9691
 Frc consts  --      1.3809                 1.3672                 2.7907
 IR Inten    --      3.0697                 7.8184                 1.2897

                     40                     41                     42
                      A                      A                      A
 Frequencies --   1117.7934              1155.5874              1164.9300
 Red. masses --      1.6081                 1.3633                 1.2445
 Frc consts  --      1.1838                 1.0726                 0.9951
 IR Inten    --     19.6383                12.6872                64.3543

                     43                     44                     45
                      A                      A                      A
 Frequencies --   1177.4903              1215.1871              1261.4528
 Red. masses --      1.1435                 1.7627                 2.1476
 Frc consts  --      0.9341                 1.5336                 2.0135
 IR Inten    --     24.0533                62.0215                36.9743

                     46                     47                     48
                      A                      A                      A
 Frequencies --   1269.3293              1300.3185              1341.0801
 Red. masses --      1.9938                 1.8712                 5.1018
 Frc consts  --      1.8927                 1.8641                 5.4061
 IR Inten    --     62.1119                 3.5727                 5.3783

                     49                     50                     51
                      A                      A                      A
 Frequencies --   1362.9802              1395.4215              1405.0119
 Red. masses --      5.0858                 2.8170                 2.5439
 Frc consts  --      5.5666                 3.2318                 2.9588
 IR Inten    --    178.1986                 1.1765                 7.0245

                     52                     53                     54
                      A                      A                      A
 Frequencies --   1438.7280              1479.8420              1502.3286
 Red. masses --      2.5873                 3.0229                 3.0929
 Frc consts  --      3.1554                 3.9003                 4.1129
 IR Inten    --    239.7586                 1.2766                40.3496

                     55                     56                     57
                      A                      A                      A
 Frequencies --   1525.6456              1554.9927              1579.7732
 Red. masses --      3.8432                 4.7500                 4.5758
 Frc consts  --      5.2704                 6.7671                 6.7283
 IR Inten    --     33.7669               216.4175               100.9235

                     58                     59                     60
                      A                      A                      A
 Frequencies --   1617.2541              1647.2456              1666.6681
 Red. masses --      6.0616                 6.4763                 6.7765
 Frc consts  --      9.3410                10.3537                11.0906
 IR Inten    --    177.5432                49.0979               117.8705

                     61                     62                     63
                      A                      A                      A
 Frequencies --   3199.7165              3210.8325              3211.5382
 Red. masses --      1.0876                 1.0862                 1.0868
 Frc consts  --      6.5608                 6.5975                 6.6042
 IR Inten    --     23.6621                 3.6547                 6.1838

                     64                     65                     66
                      A                      A                      A
 Frequencies --   3220.7232              3223.4152              3229.7317
 Red. masses --      1.0902                 1.0924                 1.0958
 Frc consts  --      6.6627                 6.6875                 6.7347
 IR Inten    --      2.7639                15.2814                 6.3392

                     67                     68                     69
                      A                      A                      A
 Frequencies --   3235.6831              3237.4219              3316.1703
 Red. masses --      1.0989                 1.0997                 1.0833
 Frc consts  --      6.7785                 6.7909                 7.0192
 IR Inten    --     30.2231                12.3019               592.3703

 - Thermochemistry -
 -------------------
 Temperature   298.150 Kelvin.  Pressure   1.00000 Atm.
 Atom     1 has atomic number  6 and mass  12.00000

 Molecular mass:   227.04049 amu.
 Principal axes and moments of inertia in atomic units:
                           1         2         3
     Eigenvalues --  1281.314936456.826157738.14109
           X           -0.70184   0.71233   0.00000
           Y            0.71233   0.70184  -0.00001
           Z            0.00001   0.00000   1.00000
 This molecule is an asymmetric top.
 Rotational symmetry number  1.
 Warning -- assumption of classical behavior for rotation
           may cause significant error
 Rotational temperatures (Kelvin)      0.06760     0.01341     0.01119
 Rotational constants (GHZ):           1.40851     0.27951     0.23323
 Zero-point vibrational energy     490002.0 (Joules/Mol)
                                  117.11330 (Kcal/Mol)
 Warning -- explicit consideration of  19 degrees of freedom as
           vibrations may cause significant error
 Vibrational temperatures:     13.86    62.23   167.39   170.77   263.26
          (Kelvin)            322.55   384.83   393.04   426.49   506.03
                              564.41   622.76   651.76   728.30   736.37
                              780.97   787.91   804.73   817.86   911.52
                              999.43  1035.24  1050.88  1071.15  1090.48
                             1103.35  1187.59  1192.82  1203.51  1252.05
                             1252.93  1295.64  1369.99  1379.57  1383.95
                             1444.75  1514.80  1521.17  1571.75  1608.26
                             1662.63  1676.07  1694.15  1748.38  1814.95
                             1826.28  1870.87  1929.52  1961.02  2007.70
                             2021.50  2070.01  2129.16  2161.52  2195.06
                             2237.29  2272.94  2326.87  2370.02  2397.96
                             4603.68  4619.67  4620.69  4633.90  4637.78
                             4646.86  4655.43  4657.93  4771.23

 Zero-point correction=                           0.186632 (Hartree/Particle)
 Thermal correction to Energy=                    0.199070
 Thermal correction to Enthalpy=                  0.200015
 Thermal correction to Gibbs Free Energy=         0.145683
 Sum of electronic and zero-point Energies=          -1028.512893
 Sum of electronic and thermal Energies=             -1028.500455
 Sum of electronic and thermal Enthalpies=           -1028.499510
 Sum of electronic and thermal Free Energies=        -1028.553842

                     E (Thermal)             CV                S
                      KCal/Mol        Cal/Mol-Kelvin    Cal/Mol-Kelvin
 Total                  124.919             49.556            114.350
 Electronic               0.000              0.000              0.000
 Translational            0.889              2.981             42.162
 Rotational               0.889              2.981             32.526
 Vibrational            123.141             43.594             39.662
 Vibration     1          0.593              1.987              8.085
 Vibration     2          0.595              1.980              5.104
 Vibration     3          0.608              1.936              3.160
 Vibration     4          0.609              1.934              3.122
 Vibration     5          0.630              1.863              2.298
 Vibration     6          0.649              1.804              1.925
 Vibration     7          0.673              1.733              1.613
 Vibration     8          0.676              1.723              1.576
 Vibration     9          0.690              1.680              1.437
 Vibration    10          0.728              1.572              1.159
 Vibration    11          0.760              1.487              0.991
 Vibration    12          0.794              1.399              0.849
 Vibration    13          0.812              1.354              0.787
 Vibration    14          0.861              1.236              0.643
 Vibration    15          0.867              1.224              0.629
 Vibration    16          0.898              1.155              0.559
 Vibration    17          0.903              1.145              0.549
 Vibration    18          0.915              1.119              0.525
 Vibration    19          0.924              1.100              0.507

                           ! Non-Optimized Parameters !
 Normal termination of Gaussian 16 at Tue Jul 14 13:51:26 2020.
