 Gaussian 16, Revision C.01,
 Gaussian 16:  ES64L-G16RevC.01  3-Jul-2019

 ----------------------------------------------------------------------
 #p opt=addgic freq td wb97xd/cc-pvdz nosymm int=ultrafine scrf=(solven
 t=CarbonTetraChloride)
 ----------------------------------------------------------------------

 ------------------------------------------------
 NM 2D-scan of HBT TD-WB97XD pVDZ in CTC Relaxed.
 ------------------------------------------------
 Symbolic Z-matrix:
 Charge =  0 Multiplicity = 1

 SCF Done:  E(RwB97XD) =  -1028.78689880     A.U. after   16 cycles
 Total Energy, E(TD-HF/TD-DFT) =  -1028.67916275
 SCF Done:  E(RwB97XD) =  -1028.79181426     A.U. after   14 cycles
 Total Energy, E(TD-HF/TD-DFT) =  -1028.69025268
 SCF Done:  E(RwB97XD) =  -1028.80099820     A.U. after   13 cycles
 Total Energy, E(TD-HF/TD-DFT) =  -1028.69430634
 SCF Done:  E(RwB97XD) =  -1028.80051102     A.U. after   12 cycles
 Total Energy, E(TD-HF/TD-DFT) =  -1028.69476896
 SCF Done:  E(RwB97XD) =  -1028.80043464     A.U. after   10 cycles
 Total Energy, E(TD-HF/TD-DFT) =  -1028.69477828
 Optimization completed.
    -- Stationary point found.
 Normal termination of Gaussian 16 at Mon Jul 13 16:48:06 2020.

 ----------------------------------------------------------------------
 #P Geom=AllCheck Guess=TCheck SCRF=Check GenChk RwB97XD TD(FC,Read)/CC
 -pVDZ Freq
 ----------------------------------------------------------------------

 Structure from the checkpoint file:  "config_10_2.chk"
 ------------------------------------------------
 NM 2D-scan of HBT TD-WB97XD pVDZ in CTC Relaxed.
 ------------------------------------------------
 Charge =  0 Multiplicity = 1

                          Input orientation:
 ---------------------------------------------------------------------
 Center     Atomic      Atomic             Coordinates (Angstroms)
 Number     Number       Type             X           Y           Z
 ---------------------------------------------------------------------
      1          6           0        1.764298   -3.284129   -0.000022
      2          6           0        1.019298   -2.106386   -0.000014
      3          6           0        1.683521   -0.868371   -0.000014
      4          6           0        3.081552   -0.769103   -0.000019
      5          6           0        3.809476   -1.947890   -0.000028
      6          6           0        3.160420   -3.191180   -0.000030
      7          1           0        1.276560   -4.259352   -0.000022
      8          1           0        3.560972    0.210151   -0.000019
      9          1           0        4.899782   -1.907672   -0.000033
     10          1           0        3.752040   -4.107370   -0.000037
     11          7           0        0.823272    0.169981   -0.000013
     12         16           0       -0.743489   -1.841176   -0.000000
     13          6           0       -1.431511    1.032753    0.000002
     14          6           0       -2.816177    0.921390   -0.000017
     15          6           0       -0.849402    2.415101    0.000036
     16          6           0       -3.669197    2.061938    0.000014
     17          1           0       -3.276693   -0.069651   -0.000050
     18          6           0       -1.759940    3.517060    0.000067
     19          6           0       -3.146000    3.352319    0.000061
     20          1           0       -4.748948    1.905276    0.000005
     21          1           0       -1.299619    4.506584    0.000097
     22          1           0       -3.807588    4.219416    0.000087
     23          6           0       -0.509687   -0.083221   -0.000007
     24          8           0        0.394209    2.626123    0.000033
     25          1           0        1.092490    1.166846   -0.000003
 ---------------------------------------------------------------------

 SCF Done:  E(RwB97XD) =  -1028.80043464     A.U. after    1 cycles

 Excitation energies and oscillator strengths:

 Excited state symmetry could not be determined.
 Excited State   1:      Singlet-?Sym    2.8751 eV  431.24 nm  f=0.4324  <S**2>=0.000
      59 -> 60         0.69583
 This state for optimization and/or second-order correction.
 Total Energy, E(TD-HF/TD-DFT) =  -1028.69477825
 Copying the excited state density for this state as the 1-particle RhoCI density.

 Excited state symmetry could not be determined.
 Excited State   2:      Singlet-?Sym    3.7028 eV  334.84 nm  f=0.0000  <S**2>=0.000
      57 -> 60         0.68364
      57 -> 62         0.11779
      57 -> 64         0.11525

 Excited state symmetry could not be determined.
 Excited State   3:      Singlet-?Sym    4.3412 eV  285.60 nm  f=0.4728  <S**2>=0.000
      58 -> 60         0.67994

 Alpha  occ. eigenvalues --  -89.10855 -19.21365 -14.51650 -10.42364 -10.37098
 Alpha  occ. eigenvalues --  -10.36391 -10.36128 -10.33583 -10.32925 -10.32632
 Alpha  occ. eigenvalues --  -10.32463 -10.31616 -10.31511 -10.30656 -10.29157
 Alpha  occ. eigenvalues --  -10.28281  -8.12736  -6.07627  -6.07247  -6.06752
 Alpha  occ. eigenvalues --   -1.13270  -1.09792  -0.98361  -0.94896  -0.93130
 Alpha  occ. eigenvalues --   -0.89215  -0.86411  -0.84125  -0.80995  -0.76106
 Alpha  occ. eigenvalues --   -0.73278  -0.71661  -0.69086  -0.67563  -0.64857
 Alpha  occ. eigenvalues --   -0.60918  -0.59753  -0.56709  -0.55963  -0.55606
 Alpha  occ. eigenvalues --   -0.54929  -0.53582  -0.53032  -0.50958  -0.49150
 Alpha  occ. eigenvalues --   -0.48794  -0.48194  -0.46902  -0.45492  -0.44813
 Alpha  occ. eigenvalues --   -0.44428  -0.42884  -0.41997  -0.40314  -0.36853
 Alpha  occ. eigenvalues --   -0.33694  -0.31925  -0.31467  -0.25869
 Alpha virt. eigenvalues --   -0.02132   0.03682   0.06053   0.06237   0.09241
 Alpha virt. eigenvalues --    0.10563   0.11664   0.14583   0.16041   0.17274
 Alpha virt. eigenvalues --    0.18952   0.20083   0.21062   0.21388   0.22919

 Mulliken charges:
               1
     1  C    0.010894
     2  C   -0.250685
     3  C    0.262716
     4  C   -0.010759
     5  C    0.015290
     6  C   -0.000935
     7  H    0.027242
     8  H    0.034046
     9  H    0.028099
    10  H    0.027156
    11  N   -0.111260
    12  S    0.197477
    13  C   -0.123915
    14  C   -0.019516
    15  C    0.121086
    16  C   -0.039262
    17  H    0.000703
    18  C   -0.025584
    19  C    0.034143
    20  H    0.002569
    21  H    0.001171
    22  H    0.013943
    23  C    0.066521
    24  O   -0.401299
    25  H    0.140157
 Sum of Mulliken charges =  -0.00000

 Dipole moment (field-independent basis, Debye):
    X=              1.8702    Y=             -5.4416    Z=             -0.0001  Tot=              5.7540
 Quadrupole moment (field-independent basis, Debye-Ang):
   XX=            -82.5864   YY=            -94.6886   ZZ=           -104.2935
   XY=             -6.6584   XZ=             -0.0001   YZ=              0.0001

  Exact polarizability:     349.809    -123.251     300.165      -0.002       0.003      63.385
 Approx polarizability:     275.577     -38.160     267.343      -0.001       0.002      82.195

 ******    1 imaginary frequencies (negative Signs) ******

                      1                      2                      3
                      A                      A                      A
 Frequencies --    -88.6184                41.8015               102.9787
 Red. masses --      7.6140                 6.4417                 4.6073
 Frc consts  --      0.0352                 0.0066                 0.0288
 IR Inten    --      1.4441                 1.8250                 0.0578

                      4                      5                      6
                      A                      A                      A
 Frequencies --    114.0082               172.5868               224.7704
 Red. masses --      5.7486                 5.1665                 5.3524
 Frc consts  --      0.0440                 0.0907                 0.1593
 IR Inten    --      8.3687                 0.1161                 0.2675

                      7                      8                      9
                      A                      A                      A
 Frequencies --    264.1876               269.3560               324.3278
 Red. masses --      7.6571                 4.6468                 6.9646
 Frc consts  --      0.3149                 0.1986                 0.4316
 IR Inten    --      0.7861                 0.8215                 7.1768

                     10                     11                     12
                      A                      A                      A
 Frequencies --    353.2984               383.3110               431.9845
 Red. masses --      4.9432                 9.4031                 3.3342
 Frc consts  --      0.3635                 0.8140                 0.3666
 IR Inten    --      1.0284                 4.9075                 4.7289

                     13                     14                     15
                      A                      A                      A
 Frequencies --    452.7384               500.9386               506.1984
 Red. masses --      4.6586                 8.4961                 3.1735
 Frc consts  --      0.5626                 1.2561                 0.4791
 IR Inten    --      2.2794                 8.4834                 0.5882

                     16                     17                     18
                      A                      A                      A
 Frequencies --    538.6342               554.9904               566.2108
 Red. masses --      8.8361                 3.8101                 6.7465
 Frc consts  --      1.5104                 0.6914                 1.2743
 IR Inten    --      7.9723                 1.0290                12.1840

                     19                     20                     21
                      A                      A                      A
 Frequencies --    571.7406               638.5212               688.4579
 Red. masses --      7.6667                 6.0628                 1.5905
 Frc consts  --      1.4766                 1.4564                 0.4441
 IR Inten    --     36.9796                73.0354                36.2830

                     22                     23                     24
                      A                      A                      A
 Frequencies --    695.9467               721.9785               741.2870
 Red. masses --      6.5908                 8.0785                 2.4374
 Frc consts  --      1.8808                 2.4810                 0.7891
 IR Inten    --      0.4753                 5.5400                15.2179

                     25                     26                     27
                      A                      A                      A
 Frequencies --    763.0869               765.6354               805.4798
 Red. masses --      1.7229                 1.7408                 6.5310
 Frc consts  --      0.5911                 0.6012                 2.4965
 IR Inten    --      0.0602                79.7332                17.0790

                     28                     29                     30
                      A                      A                      A
 Frequencies --    843.3962               859.9293               888.8204
 Red. masses --      1.6734                 1.3657                 4.8513
 Frc consts  --      0.7013                 0.5950                 2.2580
 IR Inten    --      0.0603                 1.1876                 7.1782

                     31                     32                     33
                      A                      A                      A
 Frequencies --    891.2637               909.7390               951.1263
 Red. masses --      1.1191                 1.4217                 5.3880
 Frc consts  --      0.5238                 0.6932                 2.8718
 IR Inten    --     66.3851                14.3415                 2.5545

                     34                     35                     36
                      A                      A                      A
 Frequencies --    954.2606               955.2712              1002.5950
 Red. masses --      1.3616                 1.3498                 1.2947
 Frc consts  --      0.7305                 0.7257                 0.7668
 IR Inten    --      1.2664                 2.2693                 0.0201

                     37                     38                     39
                      A                      A                      A
 Frequencies --   1043.3034              1050.0040              1075.1264
 Red. masses --      2.2771                 2.2042                 4.0549
 Frc consts  --      1.4603                 1.4318                 2.7615
 IR Inten    --      0.3980                 9.4686                 2.3014

                     40                     41                     42
                      A                      A                      A
 Frequencies --   1109.2272              1148.7344              1159.5226
 Red. masses --      1.5891                 1.3078                 1.1877
 Frc consts  --      1.1520                 1.0168                 0.9408
 IR Inten    --     44.8431                 5.2005                78.6861

                     43                     44                     45
                      A                      A                      A
 Frequencies --   1178.3701              1213.7893              1249.8271
 Red. masses --      1.1377                 2.2740                 2.2015
 Frc consts  --      0.9308                 1.9739                 2.0262
 IR Inten    --     25.7282                99.5172                19.6749

                     46                     47                     48
                      A                      A                      A
 Frequencies --   1287.8702              1306.4866              1330.9588
 Red. masses --      1.5614                 1.8606                 4.0664
 Frc consts  --      1.5259                 1.8712                 4.2441
 IR Inten    --     62.5785               141.0002                36.4795

                     49                     50                     51
                      A                      A                      A
 Frequencies --   1370.3992              1391.6009              1399.2049
 Red. masses --      3.6141                 2.3832                 3.1926
 Frc consts  --      3.9989                 2.7192                 3.6826
 IR Inten    --     98.3532                38.7545                25.8413

                     52                     53                     54
                      A                      A                      A
 Frequencies --   1440.7136              1478.0603              1510.4569
 Red. masses --      3.2882                 2.7011                 2.9407
 Frc consts  --      4.0212                 3.4767                 3.9529
 IR Inten    --    309.8255                 5.7913                16.4009

                     55                     56                     57
                      A                      A                      A
 Frequencies --   1532.4565              1576.1695              1590.8709
 Red. masses --      4.0564                 5.7524                 4.6136
 Frc consts  --      5.6127                 8.4198                 6.8795
 IR Inten    --     61.0632               208.1864                52.1609

                     58                     59                     60
                      A                      A                      A
 Frequencies --   1627.0913              1655.3456              1674.5863
 Red. masses --      6.5590                 6.4802                 6.7083
 Frc consts  --     10.2308                10.4621                11.0836
 IR Inten    --    192.8487                 6.5838               224.0998

                     61                     62                     63
                      A                      A                      A
 Frequencies --   3191.1996              3210.1248              3212.8675
 Red. masses --      1.0891                 1.0864                 1.0860
 Frc consts  --      6.5344                 6.5958                 6.6050
 IR Inten    --      4.1039                18.4915                10.7988

                     64                     65                     66
                      A                      A                      A
 Frequencies --   3222.0243              3222.0966              3226.5532
 Red. masses --      1.0912                 1.0908                 1.0907
 Frc consts  --      6.6744                 6.6720                 6.6899
 IR Inten    --     39.3978                 1.3874              1087.0158

                     67                     68                     69
                      A                      A                      A
 Frequencies --   3230.9938              3234.0835              3239.3138
 Red. masses --      1.0960                 1.0989                 1.0994
 Frc consts  --      6.7413                 6.7720                 6.7972
 IR Inten    --     15.0187                20.6262                 6.0626

 - Thermochemistry -
 -------------------
 Temperature   298.150 Kelvin.  Pressure   1.00000 Atm.
 Atom     1 has atomic number  6 and mass  12.00000

 Molecular mass:   227.04049 amu.
 Principal axes and moments of inertia in atomic units:
                           1         2         3
     Eigenvalues --  1327.630786420.878887748.50966
           X           -0.70185   0.71233   0.00000
           Y            0.71233   0.70185  -0.00001
           Z            0.00001   0.00001   1.00000
 This molecule is an asymmetric top.
 Rotational symmetry number  1.
 Warning -- assumption of classical behavior for rotation
           may cause significant error
 Rotational temperatures (Kelvin)      0.06524     0.01349     0.01118
 Rotational constants (GHZ):           1.35937     0.28107     0.23291
    1 imaginary frequencies ignored.
 Zero-point vibrational energy     489513.6 (Joules/Mol)
                                  116.99657 (Kcal/Mol)
 Warning -- explicit consideration of  18 degrees of freedom as
           vibrations may cause significant error
 Vibrational temperatures:     60.14   148.16   164.03   248.31   323.39
          (Kelvin)            380.11   387.54   466.64   508.32   551.50
                              621.53   651.39   720.74   728.31   774.97
                              798.51   814.65   822.61   918.69   990.54
                             1001.31  1038.77  1066.55  1097.91  1101.58
                             1158.91  1213.46  1237.25  1278.81  1282.33
                             1308.91  1368.46  1372.97  1374.42  1442.51
                             1501.08  1510.72  1546.87  1595.93  1652.77
                             1668.29  1695.41  1746.37  1798.22  1852.96
                             1879.74  1914.95  1971.70  2002.20  2013.14
                             2072.87  2126.60  2173.21  2204.86  2267.76
                             2288.91  2341.02  2381.67  2409.36  4591.42
                             4618.65  4622.60  4635.77  4635.88  4642.29
                             4648.68  4653.12  4660.65

 Zero-point correction=                           0.186446 (Hartree/Particle)
 Thermal correction to Energy=                    0.198003
 Thermal correction to Enthalpy=                  0.198947
 Thermal correction to Gibbs Free Energy=         0.148239
 Sum of electronic and zero-point Energies=          -1028.508332
 Sum of electronic and thermal Energies=             -1028.496775
 Sum of electronic and thermal Enthalpies=           -1028.495831
 Sum of electronic and thermal Free Energies=        -1028.546540

                     E (Thermal)             CV                S
                      KCal/Mol        Cal/Mol-Kelvin    Cal/Mol-Kelvin
 Total                  124.249             47.585            106.725
 Electronic               0.000              0.000              0.000
 Translational            0.889              2.981             42.162
 Rotational               0.889              2.981             32.557
 Vibrational            122.471             41.623             32.006
 Vibration     1          0.594              1.980              5.172
 Vibration     2          0.605              1.947              3.397
 Vibration     3          0.607              1.938              3.199
 Vibration     4          0.626              1.876              2.407
 Vibration     5          0.649              1.803              1.920
 Vibration     6          0.671              1.739              1.634
 Vibration     7          0.674              1.730              1.600
 Vibration     8          0.709              1.627              1.288
 Vibration     9          0.729              1.568              1.151
 Vibration    10          0.753              1.506              1.026
 Vibration    11          0.793              1.401              0.852
 Vibration    12          0.811              1.355              0.788
 Vibration    13          0.856              1.248              0.656
 Vibration    14          0.861              1.236              0.643
 Vibration    15          0.894              1.165              0.568
 Vibration    16          0.910              1.129              0.534
 Vibration    17          0.922              1.104              0.512
 Vibration    18          0.928              1.092              0.501

 Optimization completed.
    -- Stationary point found.
 Normal termination of Gaussian 16 at Mon Jul 13 17:06:41 2020.
