 Gaussian 16, Revision C.01,
 Gaussian 16:  ES64L-G16RevC.01  3-Jul-2019

 ----------------------------------------------------------------------
 #p opt=addgic freq td wb97xd/cc-pvdz nosymm int=ultrafine scrf=(solven
 t=CarbonTetraChloride)
 ----------------------------------------------------------------------

 ------------------------------------------------
 NM 2D-scan of HBT TD-WB97XD pVDZ in CTC Relaxed.
 ------------------------------------------------
 Symbolic Z-matrix:
 Charge =  0 Multiplicity = 1

 SCF Done:  E(RwB97XD) =  -1028.67356958     A.U. after   16 cycles
 Total Energy, E(TD-HF/TD-DFT) =  -1028.56781409
 SCF Done:  E(RwB97XD) =  -1028.77078896     A.U. after   14 cycles
 Total Energy, E(TD-HF/TD-DFT) =  -1028.66866691
 SCF Done:  E(RwB97XD) =  -1028.78358391     A.U. after   14 cycles
 Total Energy, E(TD-HF/TD-DFT) =  -1028.68443274
 SCF Done:  E(RwB97XD) =  -1028.79646579     A.U. after   14 cycles
 Total Energy, E(TD-HF/TD-DFT) =  -1028.69449640
 SCF Done:  E(RwB97XD) =  -1028.79606108     A.U. after   12 cycles
 Total Energy, E(TD-HF/TD-DFT) =  -1028.69484023
 SCF Done:  E(RwB97XD) =  -1028.79603426     A.U. after   10 cycles
 Total Energy, E(TD-HF/TD-DFT) =  -1028.69485949
 SCF Done:  E(RwB97XD) =  -1028.79597579     A.U. after    9 cycles
 Total Energy, E(TD-HF/TD-DFT) =  -1028.69486163
 Optimization completed.
    -- Stationary point found.
 Normal termination of Gaussian 16 at Mon Jul 13 19:30:59 2020.

 ----------------------------------------------------------------------
 #P Geom=AllCheck Guess=TCheck SCRF=Check GenChk RwB97XD TD(FC,Read)/CC
 -pVDZ Freq
 ----------------------------------------------------------------------

 Structure from the checkpoint file:  "config_11_12.chk"
 ------------------------------------------------
 NM 2D-scan of HBT TD-WB97XD pVDZ in CTC Relaxed.
 ------------------------------------------------
 Charge =  0 Multiplicity = 1

                          Input orientation:
 ---------------------------------------------------------------------
 Center     Atomic      Atomic             Coordinates (Angstroms)
 Number     Number       Type             X           Y           Z
 ---------------------------------------------------------------------
      1          6           0        1.633077   -3.294913    0.000115
      2          6           0        1.016433   -2.050125    0.000043
      3          6           0        1.774226   -0.876706   -0.000085
      4          6           0        3.174505   -0.915408   -0.000137
      5          6           0        3.784242   -2.165991   -0.000064
      6          6           0        3.027637   -3.343696    0.000060
      7          1           0        1.041894   -4.210758    0.000211
      8          1           0        3.758683    0.005547   -0.000231
      9          1           0        4.873665   -2.225517   -0.000103
     10          1           0        3.530911   -4.310938    0.000113
     11          7           0        0.968090    0.223200   -0.000148
     12         16           0       -0.708783   -1.662930    0.000079
     13          6           0       -1.378195    1.099616   -0.000030
     14          6           0       -2.734244    0.831624   -0.000126
     15          6           0       -0.910207    2.503535    0.000118
     16          6           0       -3.706594    1.879141   -0.000056
     17          1           0       -3.088418   -0.202617   -0.000262
     18          6           0       -1.933750    3.513618    0.000181
     19          6           0       -3.305921    3.206361    0.000100
     20          1           0       -4.764821    1.613651   -0.000126
     21          1           0       -1.591840    4.550560    0.000326
     22          1           0       -4.048929    4.005503    0.000161
     23          6           0       -0.385645    0.049708   -0.000055
     24          8           0        0.317308    2.743443    0.000221
     25          1           0        1.411037    1.116500   -0.000221
 ---------------------------------------------------------------------

 SCF Done:  E(RwB97XD) =  -1028.79597579     A.U. after    1 cycles

 Excitation energies and oscillator strengths:

 Excited state symmetry could not be determined.
 Excited State   1:      Singlet-?Sym    2.7515 eV  450.61 nm  f=0.4365  <S**2>=0.000
      59 -> 60         0.69731
 This state for optimization and/or second-order correction.
 Total Energy, E(TD-HF/TD-DFT) =  -1028.69486164
 Copying the excited state density for this state as the 1-particle RhoCI density.

 Excited state symmetry could not be determined.
 Excited State   2:      Singlet-?Sym    3.3905 eV  365.68 nm  f=0.0000  <S**2>=0.000
      58 -> 60         0.68384
      58 -> 62         0.11553
      58 -> 64         0.10663

 Excited state symmetry could not be determined.
 Excited State   3:      Singlet-?Sym    4.3022 eV  288.19 nm  f=0.4432  <S**2>=0.000
      57 -> 60         0.68287

 Alpha  occ. eigenvalues --  -89.10568 -19.20276 -14.52895 -10.42539 -10.37422
 Alpha  occ. eigenvalues --  -10.36237 -10.35410 -10.33562 -10.33328 -10.32847
 Alpha  occ. eigenvalues --  -10.32557 -10.31374 -10.30911 -10.30567 -10.29027
 Alpha  occ. eigenvalues --  -10.28129  -8.12580  -6.07459  -6.07072  -6.06600
 Alpha  occ. eigenvalues --   -1.13341  -1.09120  -0.98638  -0.95567  -0.93277
 Alpha  occ. eigenvalues --   -0.89097  -0.86814  -0.84051  -0.80743  -0.75939
 Alpha  occ. eigenvalues --   -0.74303  -0.72045  -0.69269  -0.67498  -0.64972
 Alpha  occ. eigenvalues --   -0.61062  -0.59793  -0.56512  -0.56240  -0.56010
 Alpha  occ. eigenvalues --   -0.55090  -0.53694  -0.53059  -0.50503  -0.48701
 Alpha  occ. eigenvalues --   -0.48697  -0.48328  -0.47059  -0.45581  -0.44858
 Alpha  occ. eigenvalues --   -0.44096  -0.42821  -0.42218  -0.39913  -0.36926
 Alpha  occ. eigenvalues --   -0.33818  -0.31544  -0.30824  -0.25408
 Alpha virt. eigenvalues --   -0.02203   0.03554   0.05701   0.06565   0.09681
 Alpha virt. eigenvalues --    0.10874   0.13144   0.14511   0.16054   0.16823
 Alpha virt. eigenvalues --    0.18105   0.19845   0.20830   0.21258   0.22741

 Mulliken charges:
               1
     1  C    0.016555
     2  C   -0.243983
     3  C    0.226082
     4  C   -0.010282
     5  C    0.013040
     6  C    0.003044
     7  H    0.026027
     8  H    0.032700
     9  H    0.029116
    10  H    0.027799
    11  N   -0.092521
    12  S    0.200341
    13  C   -0.078971
    14  C   -0.035025
    15  C    0.107510
    16  C   -0.038445
    17  H    0.005968
    18  C   -0.050057
    19  C    0.034558
    20  H    0.000902
    21  H   -0.001171
    22  H    0.013621
    23  C    0.079149
    24  O   -0.387844
    25  H    0.121885
 Sum of Mulliken charges =  -0.00000

 Dipole moment (field-independent basis, Debye):
    X=              2.4890    Y=             -6.1047    Z=             -0.0006  Tot=              6.5926
 Quadrupole moment (field-independent basis, Debye-Ang):
   XX=            -81.5272   YY=            -96.7077   ZZ=           -104.1632
   XY=             -6.1000   XZ=             -0.0009   YZ=             -0.0016

  Exact polarizability:     347.192    -119.034     292.119      -0.001       0.001      63.270
 Approx polarizability:     275.540     -39.435     264.733      -0.001       0.002      81.993

 ******    1 imaginary frequencies (negative Signs) ******

                      1                      2                      3
                      A                      A                      A
 Frequencies --    -75.9297                48.8235               102.0737
 Red. masses --      5.3855                 6.5030                 5.3518
 Frc consts  --      0.0183                 0.0091                 0.0329
 IR Inten    --      2.5374                 1.2278                 0.1829

                      4                      5                      6
                      A                      A                      A
 Frequencies --    107.2628               175.7443               226.3496
 Red. masses --      5.7461                 5.1857                 5.6797
 Frc consts  --      0.0390                 0.0944                 0.1714
 IR Inten    --      7.2144                 0.0049                 1.3936

                      7                      8                      9
                      A                      A                      A
 Frequencies --    264.2816               270.0846               292.3129
 Red. masses --      7.8729                 4.1983                 8.1533
 Frc consts  --      0.3240                 0.1804                 0.4105
 IR Inten    --      1.5804                 3.3202                 2.2609

                     10                     11                     12
                      A                      A                      A
 Frequencies --    340.9410               377.7148               420.4092
 Red. masses --      4.3418                 7.2031                 3.5262
 Frc consts  --      0.2974                 0.6055                 0.3672
 IR Inten    --      1.2356                 8.5441                 8.6935

                     13                     14                     15
                      A                      A                      A
 Frequencies --    442.7477               500.4548               514.3130
 Red. masses --      4.1040                 8.2252                 3.1307
 Frc consts  --      0.4740                 1.2137                 0.4879
 IR Inten    --      6.2150                11.8627                 0.0152

                     16                     17                     18
                      A                      A                      A
 Frequencies --    536.7759               541.5444               544.5273
 Red. masses --      1.3392                 8.2164                 6.8213
 Frc consts  --      0.2273                 1.4197                 1.1917
 IR Inten    --     51.4012                 8.4755                46.0559

                     19                     20                     21
                      A                      A                      A
 Frequencies --    563.8872               566.1137               640.7242
 Red. masses --      2.6225                 7.3093                 6.2830
 Frc consts  --      0.4913                 1.3802                 1.5197
 IR Inten    --      8.8876                 6.9206                20.3862

                     22                     23                     24
                      A                      A                      A
 Frequencies --    689.6881               708.3537               736.9778
 Red. masses --      1.5162                 5.8844                 7.6556
 Frc consts  --      0.4249                 1.7396                 2.4498
 IR Inten    --     29.4797                 2.0194                 5.7439

                     25                     26                     27
                      A                      A                      A
 Frequencies --    744.5004               758.9869               767.3804
 Red. masses --      2.5321                 1.6957                 1.6764
 Frc consts  --      0.8269                 0.5755                 0.5816
 IR Inten    --     18.5028                 9.7100                89.8680

                     28                     29                     30
                      A                      A                      A
 Frequencies --    818.5477               838.2050               865.6305
 Red. masses --      6.3342                 1.9528                 1.3816
 Frc consts  --      2.5005                 0.8083                 0.6099
 IR Inten    --     16.9226                 1.1803                 1.3193

                     31                     32                     33
                      A                      A                      A
 Frequencies --    891.6850               901.2997               952.9988
 Red. masses --      5.3256                 1.4413                 1.3583
 Frc consts  --      2.4948                 0.6898                 0.7269
 IR Inten    --      0.8640                 8.9579                 0.4535

                     34                     35                     36
                      A                      A                      A
 Frequencies --    957.2233               962.8827              1003.9354
 Red. masses --      1.3516                 4.8319                 1.2956
 Frc consts  --      0.7297                 2.6395                 0.7693
 IR Inten    --      1.6926                 0.6050                 0.0045

                     37                     38                     39
                      A                      A                      A
 Frequencies --   1044.5129              1054.8077              1087.4999
 Red. masses --      2.2525                 2.1516                 3.6710
 Frc consts  --      1.4479                 1.4105                 2.5580
 IR Inten    --      0.4768                 8.6419                 1.9265

                     40                     41                     42
                      A                      A                      A
 Frequencies --   1098.9641              1152.5919              1156.5305
 Red. masses --      1.7183                 1.3321                 1.2558
 Frc consts  --      1.2227                 1.0426                 0.9896
 IR Inten    --     38.2156                 6.6835                99.5451

                     43                     44                     45
                      A                      A                      A
 Frequencies --   1172.1249              1183.0035              1242.4429
 Red. masses --      1.3351                 1.1932                 2.7044
 Frc consts  --      1.0808                 0.9839                 2.4597
 IR Inten    --     43.1001                 1.4293                19.6618

                     46                     47                     48
                      A                      A                      A
 Frequencies --   1253.0396              1299.4339              1336.5699
 Red. masses --      2.3945                 1.5896                 4.1449
 Frc consts  --      2.2151                 1.5814                 4.3626
 IR Inten    --     45.2196                 5.3996                14.0424

                     49                     50                     51
                      A                      A                      A
 Frequencies --   1362.7171              1401.2724              1402.9467
 Red. masses --      2.7218                 4.7227                 2.3715
 Frc consts  --      2.9780                 5.4637                 2.7501
 IR Inten    --     64.6859                28.1212                59.5633

                     52                     53                     54
                      A                      A                      A
 Frequencies --   1443.4897              1471.2628              1516.5872
 Red. masses --      2.8156                 3.1910                 3.3038
 Frc consts  --      3.4566                 4.0696                 4.4771
 IR Inten    --    126.6556                 3.8111                87.3530

                     55                     56                     57
                      A                      A                      A
 Frequencies --   1520.3546              1551.9594              1608.3012
 Red. masses --      3.1845                 5.3157                 5.2107
 Frc consts  --      4.3370                 7.5434                 7.9412
 IR Inten    --      9.2160               189.0589               112.5467

                     58                     59                     60
                      A                      A                      A
 Frequencies --   1637.6082              1665.8895              1675.3656
 Red. masses --      8.2074                 6.9827                 7.1198
 Frc consts  --     12.9681                11.4173                11.7744
 IR Inten    --    146.9040                66.0389                79.4523

                     61                     62                     63
                      A                      A                      A
 Frequencies --   3190.7179              3208.5389              3214.4736
 Red. masses --      1.0890                 1.0862                 1.0863
 Frc consts  --      6.5321                 6.5885                 6.6131
 IR Inten    --     26.1318                 2.3023                 4.7361

                     64                     65                     66
                      A                      A                      A
 Frequencies --   3219.8360              3225.7731              3233.1773
 Red. masses --      1.0915                 1.0901                 1.0991
 Frc consts  --      6.6674                 6.6834                 6.7691
 IR Inten    --     15.3825                 3.1323                27.6806

                     67                     68                     69
                      A                      A                      A
 Frequencies --   3234.0366              3241.7359              3803.8265
 Red. masses --      1.0959                 1.0994                 1.0798
 Frc consts  --      6.7531                 6.8070                 9.2048
 IR Inten    --      6.1937                12.3878               304.2948

 - Thermochemistry -
 -------------------
 Temperature   298.150 Kelvin.  Pressure   1.00000 Atm.
 Atom     1 has atomic number  6 and mass  12.00000

 Molecular mass:   227.04049 amu.
 Principal axes and moments of inertia in atomic units:
                           1         2         3
     Eigenvalues --  1274.155696513.259907787.41557
           X           -0.70513   0.70908   0.00000
           Y            0.70908   0.70513  -0.00001
           Z            0.00001   0.00001   1.00000
 This molecule is an asymmetric top.
 Rotational symmetry number  1.
 Warning -- assumption of classical behavior for rotation
           may cause significant error
 Rotational temperatures (Kelvin)      0.06798     0.01330     0.01112
 Rotational constants (GHZ):           1.41642     0.27709     0.23175
    1 imaginary frequencies ignored.
 Zero-point vibrational energy     490389.8 (Joules/Mol)
                                  117.20598 (Kcal/Mol)
 Warning -- explicit consideration of  19 degrees of freedom as
           vibrations may cause significant error
 Vibrational temperatures:     70.25   146.86   154.33   252.86   325.67
          (Kelvin)            380.24   388.59   420.57   490.54   543.45
                              604.88   637.02   720.04   739.98   772.30
                              779.16   783.45   811.31   814.51   921.86
                              992.31  1019.16  1060.35  1071.17  1092.01
                             1104.09  1177.71  1205.99  1245.45  1282.94
                             1296.77  1371.15  1377.23  1385.37  1444.44
                             1502.82  1517.63  1564.67  1581.16  1658.32
                             1663.99  1686.43  1702.08  1787.60  1802.84
                             1869.60  1923.03  1960.65  2016.12  2018.53
                             2076.86  2116.82  2182.03  2187.45  2232.92
                             2313.99  2356.15  2396.84  2410.48  4590.73
                             4616.37  4624.91  4632.63  4641.17  4651.82
                             4653.06  4664.13  5472.86

 Zero-point correction=                           0.186780 (Hartree/Particle)
 Thermal correction to Energy=                    0.198539
 Thermal correction to Enthalpy=                  0.199483
 Thermal correction to Gibbs Free Energy=         0.148549
 Sum of electronic and zero-point Energies=          -1028.508082
 Sum of electronic and thermal Energies=             -1028.496323
 Sum of electronic and thermal Enthalpies=           -1028.495379
 Sum of electronic and thermal Free Energies=        -1028.546313

                     E (Thermal)             CV                S
                      KCal/Mol        Cal/Mol-Kelvin    Cal/Mol-Kelvin
 Total                  124.585             48.348            107.200
 Electronic               0.000              0.000              0.000
 Translational            0.889              2.981             42.162
 Rotational               0.889              2.981             32.536
 Vibrational            122.807             42.386             32.502
 Vibration     1          0.595              1.978              4.864
 Vibration     2          0.604              1.948              3.414
 Vibration     3          0.606              1.943              3.318
 Vibration     4          0.628              1.872              2.373
 Vibration     5          0.650              1.801              1.908
 Vibration     6          0.671              1.738              1.633
 Vibration     7          0.674              1.728              1.596
 Vibration     8          0.688              1.688              1.461
 Vibration     9          0.720              1.594              1.208
 Vibration    10          0.748              1.518              1.048
 Vibration    11          0.783              1.426              0.891
 Vibration    12          0.802              1.377              0.818
 Vibration    13          0.856              1.249              0.657
 Vibration    14          0.869              1.218              0.623
 Vibration    15          0.892              1.169              0.572
 Vibration    16          0.897              1.158              0.562
 Vibration    17          0.900              1.152              0.556
 Vibration    18          0.920              1.109              0.516
 Vibration    19          0.922              1.105              0.512

 Optimization completed.
    -- Stationary point found.
 Normal termination of Gaussian 16 at Mon Jul 13 19:48:29 2020.
