 Gaussian 16, Revision C.01,
 Gaussian 16:  ES64L-G16RevC.01  3-Jul-2019

 ----------------------------------------------------------------------
 #p opt=addgic freq td wb97xd/cc-pvdz nosymm int=ultrafine scrf=(solven
 t=CarbonTetraChloride)
 ----------------------------------------------------------------------

 ------------------------------------------------
 NM 2D-scan of HBT TD-WB97XD pVDZ in CTC Relaxed.
 ------------------------------------------------
 Symbolic Z-matrix:
 Charge =  0 Multiplicity = 1

 SCF Done:  E(RwB97XD) =  -1028.40399586     A.U. after   15 cycles
 Total Energy, E(TD-HF/TD-DFT) =  -1028.27244186
 SCF Done:  E(RwB97XD) =  -1028.71851269     A.U. after   12 cycles
 Total Energy, E(TD-HF/TD-DFT) =  -1028.58863183
 SCF Done:  E(RwB97XD) =  -1028.80346937     A.U. after   15 cycles
 Total Energy, E(TD-HF/TD-DFT) =  -1028.67763271
 SCF Done:  E(RwB97XD) =  -1028.80996528     A.U. after   13 cycles
 Total Energy, E(TD-HF/TD-DFT) =  -1028.68315047
 SCF Done:  E(RwB97XD) =  -1028.81057879     A.U. after   11 cycles
 Total Energy, E(TD-HF/TD-DFT) =  -1028.68342497
 SCF Done:  E(RwB97XD) =  -1028.81076069     A.U. after   10 cycles
 Total Energy, E(TD-HF/TD-DFT) =  -1028.68344353
 SCF Done:  E(RwB97XD) =  -1028.81079860     A.U. after    9 cycles
 Total Energy, E(TD-HF/TD-DFT) =  -1028.68344593
 Optimization completed.
    -- Stationary point found.
 Normal termination of Gaussian 16 at Mon Jul 13 20:31:02 2020.

 ----------------------------------------------------------------------
 #P Geom=AllCheck Guess=TCheck SCRF=Check GenChk RwB97XD TD(FC,Read)/CC
 -pVDZ Freq
 ----------------------------------------------------------------------

 Structure from the checkpoint file:  "config_1_6.chk"
 ------------------------------------------------
 NM 2D-scan of HBT TD-WB97XD pVDZ in CTC Relaxed.
 ------------------------------------------------
 Charge =  0 Multiplicity = 1

                          Input orientation:
 ---------------------------------------------------------------------
 Center     Atomic      Atomic             Coordinates (Angstroms)
 Number     Number       Type             X           Y           Z
 ---------------------------------------------------------------------
      1          6           0        1.697691   -3.321100   -0.000021
      2          6           0        0.959348   -2.134661   -0.000015
      3          6           0        1.652327   -0.870407   -0.000011
      4          6           0        3.073342   -0.826726   -0.000010
      5          6           0        3.777386   -2.003869   -0.000016
      6          6           0        3.095727   -3.244636   -0.000023
      7          1           0        1.205012   -4.294455   -0.000024
      8          1           0        3.559238    0.149438   -0.000005
      9          1           0        4.868658   -1.990590   -0.000016
     10          1           0        3.674155   -4.170055   -0.000027
     11          7           0        0.919730    0.233451   -0.000007
     12         16           0       -0.776234   -1.835179   -0.000011
     13          6           0       -1.350252    1.036220   -0.000011
     14          6           0       -2.776408    0.867757   -0.000021
     15          6           0       -0.903304    2.456268    0.000014
     16          6           0       -3.641972    1.944264    0.000024
     17          1           0       -3.180271   -0.146438   -0.000057
     18          6           0       -1.812840    3.514269    0.000070
     19          6           0       -3.173438    3.281838    0.000079
     20          1           0       -4.717295    1.758910    0.000020
     21          1           0       -1.390970    4.519603    0.000097
     22          1           0       -3.876468    4.115115    0.000122
     23          6           0       -0.413780   -0.022966   -0.000011
     24          8           0        0.361666    2.873340   -0.000012
     25          1           0        0.956188    2.101823   -0.000021
 ---------------------------------------------------------------------

 SCF Done:  E(RwB97XD) =  -1028.81079860     A.U. after    1 cycles

 Excitation energies and oscillator strengths:

 Excited state symmetry could not be determined.
 Excited State   1:      Singlet-?Sym    3.4654 eV  357.77 nm  f=0.7553  <S**2>=0.000
      59 -> 60        -0.69028
 This state for optimization and/or second-order correction.
 Total Energy, E(TD-HF/TD-DFT) =  -1028.68344593
 Copying the excited state density for this state as the 1-particle RhoCI density.

 Excited state symmetry could not be determined.
 Excited State   2:      Singlet-?Sym    4.3792 eV  283.12 nm  f=0.1551  <S**2>=0.000
      57 -> 60        -0.35893
      58 -> 60        -0.55040
      58 -> 64        -0.10442
      59 -> 62         0.16455

 Excited state symmetry could not be determined.
 Excited State   3:      Singlet-?Sym    4.5151 eV  274.60 nm  f=0.0695  <S**2>=0.000
      57 -> 60         0.51444
      57 -> 64        -0.13256
      58 -> 60        -0.34370
      58 -> 61        -0.10222
      59 -> 61         0.23769

 Alpha  occ. eigenvalues --  -89.09029 -19.29340 -14.46704 -10.39858 -10.38518
 Alpha  occ. eigenvalues --  -10.34895 -10.34553 -10.33402 -10.32406 -10.32211
 Alpha  occ. eigenvalues --  -10.31923 -10.31375 -10.31129 -10.31067 -10.30583
 Alpha  occ. eigenvalues --  -10.30302  -8.10827  -6.05691  -6.05360  -6.04876
 Alpha  occ. eigenvalues --   -1.17601  -1.07952  -0.96616  -0.95467  -0.91155
 Alpha  occ. eigenvalues --   -0.88734  -0.85132  -0.84209  -0.82147  -0.76032
 Alpha  occ. eigenvalues --   -0.71139  -0.70097  -0.69113  -0.68146  -0.63292
 Alpha  occ. eigenvalues --   -0.59929  -0.58930  -0.58322  -0.55951  -0.54404
 Alpha  occ. eigenvalues --   -0.53309  -0.53094  -0.52551  -0.50795  -0.50498
 Alpha  occ. eigenvalues --   -0.48932  -0.48110  -0.45774  -0.45425  -0.44686
 Alpha  occ. eigenvalues --   -0.43675  -0.42914  -0.42036  -0.39776  -0.37566
 Alpha  occ. eigenvalues --   -0.36378  -0.32011  -0.31608  -0.27850
 Alpha virt. eigenvalues --   -0.01925   0.05292   0.06831   0.06918   0.07110
 Alpha virt. eigenvalues --    0.11373   0.12717   0.15098   0.15812   0.17655
 Alpha virt. eigenvalues --    0.18537   0.20351   0.21672   0.22251   0.22815

 Mulliken charges:
               1
     1  C    0.004640
     2  C   -0.211405
     3  C    0.215690
     4  C   -0.014557
     5  C    0.009686
     6  C   -0.010942
     7  H    0.019030
     8  H    0.013095
     9  H    0.017208
    10  H    0.019996
    11  N   -0.329635
    12  S    0.139002
    13  C   -0.082100
    14  C   -0.014812
    15  C    0.075811
    16  C   -0.009793
    17  H    0.013344
    18  C    0.022077
    19  C    0.019293
    20  H    0.012674
    21  H    0.020370
    22  H    0.022672
    23  C    0.067549
    24  O   -0.176034
    25  H    0.157141
 Sum of Mulliken charges =  -0.00000

 Dipole moment (field-independent basis, Debye):
    X=             -0.3832    Y=             -1.3616    Z=              0.0000  Tot=              1.4145
 Quadrupole moment (field-independent basis, Debye-Ang):
   XX=            -83.0587   YY=            -88.7986   ZZ=           -104.5964
   XY=             -6.5763   XZ=             -0.0001   YZ=              0.0004

  Exact polarizability:     411.320    -202.689     405.407      -0.002       0.004      63.629
 Approx polarizability:     283.071     -37.765     265.897      -0.001       0.002      82.532

                      1                      2                      3
                      A                      A                      A
 Frequencies --     23.5645                71.3556                99.4657
 Red. masses --      5.8799                 5.6103                 5.6033
 Frc consts  --      0.0019                 0.0168                 0.0327
 IR Inten    --      0.9772                 0.0070                 1.8823

                      4                      5                      6
                      A                      A                      A
 Frequencies --    107.1469               184.0653               224.8224
 Red. masses --      4.6736                 6.8819                 5.4987
 Frc consts  --      0.0316                 0.1374                 0.1638
 IR Inten    --      0.5202                 0.6913                 0.0008

                      7                      8                      9
                      A                      A                      A
 Frequencies --    246.8503               265.9496               274.8256
 Red. masses --      8.2315                 4.7802                 6.4315
 Frc consts  --      0.2955                 0.1992                 0.2862
 IR Inten    --     10.3590                 0.2217                16.7207

                     10                     11                     12
                      A                      A                      A
 Frequencies --    386.8559               398.2449               437.9786
 Red. masses --      8.3918                 4.6426                 3.3071
 Frc consts  --      0.7399                 0.4338                 0.3738
 IR Inten    --     13.6098                 0.1320                 4.5110

                     13                     14                     15
                      A                      A                      A
 Frequencies --    474.5338               494.5073               495.8318
 Red. masses --      4.6678                 4.3353                 9.2047
 Frc consts  --      0.6193                 0.6246                 1.3333
 IR Inten    --     16.8871                 0.0038                 0.7058

                     16                     17                     18
                      A                      A                      A
 Frequencies --    508.5240               523.0281               543.7915
 Red. masses --      3.1187                 8.2541                 3.8048
 Frc consts  --      0.4752                 1.3304                 0.6629
 IR Inten    --      0.7053                24.7824                 1.1429

                     19                     20                     21
                      A                      A                      A
 Frequencies --    578.5166               633.8213               647.8262
 Red. masses --      7.7889                 7.6871                 7.2931
 Frc consts  --      1.5359                 1.8195                 1.8033
 IR Inten    --     88.2055                53.1976                 4.0770

                     22                     23                     24
                      A                      A                      A
 Frequencies --    686.8057               700.2903               731.3988
 Red. masses --      1.1865                 6.7132                 1.9036
 Frc consts  --      0.3298                 1.9397                 0.6000
 IR Inten    --    118.7671                 8.5799                29.4619

                     25                     26                     27
                      A                      A                      A
 Frequencies --    739.8980               745.6520               772.7465
 Red. masses --      2.3797                 1.4325                 2.0453
 Frc consts  --      0.7676                 0.4693                 0.7196
 IR Inten    --      0.9528                25.5437                60.4650

                     28                     29                     30
                      A                      A                      A
 Frequencies --    793.6043               830.2203               858.4297
 Red. masses --      6.8190                 1.5325                 1.4364
 Frc consts  --      2.5303                 0.6224                 0.6237
 IR Inten    --     20.7633                 0.0138                 1.5616

                     31                     32                     33
                      A                      A                      A
 Frequencies --    882.8428               930.7803               936.8687
 Red. masses --      6.3171                 1.3420                 7.0892
 Frc consts  --      2.9009                 0.6850                 3.6661
 IR Inten    --     54.1973                 2.9791                 8.4815

                     34                     35                     36
                      A                      A                      A
 Frequencies --    953.4810               971.3640               999.8568
 Red. masses --      1.3432                 1.3372                 1.3016
 Frc consts  --      0.7195                 0.7434                 0.7667
 IR Inten    --      1.9783                 0.0001                 0.0184

                     37                     38                     39
                      A                      A                      A
 Frequencies --   1034.4302              1041.0576              1065.9609
 Red. masses --      2.1480                 2.2792                 5.2741
 Frc consts  --      1.3542                 1.4554                 3.5309
 IR Inten    --      1.5468                 5.9541                23.1209

                     40                     41                     42
                      A                      A                      A
 Frequencies --   1133.0243              1146.8204              1174.8059
 Red. masses --      1.5769                 1.2937                 1.1756
 Frc consts  --      1.1927                 1.0025                 0.9559
 IR Inten    --     23.9654                16.0810                37.5429

                     43                     44                     45
                      A                      A                      A
 Frequencies --   1178.8476              1209.2610              1222.4561
 Red. masses --      1.1684                 3.6545                 1.5866
 Frc consts  --      0.9566                 3.1486                 1.3970
 IR Inten    --      1.2837               161.8566                94.9265

                     46                     47                     48
                      A                      A                      A
 Frequencies --   1258.9072              1273.3126              1352.5630
 Red. masses --      2.5038                 1.6266                 2.8151
 Frc consts  --      2.3380                 1.5538                 3.0343
 IR Inten    --    214.4268                 2.3564               103.7592

                     49                     50                     51
                      A                      A                      A
 Frequencies --   1364.8074              1394.0611              1416.9752
 Red. masses --      5.2849                 2.0021                 2.2858
 Frc consts  --      5.8000                 2.2925                 2.7040
 IR Inten    --     20.4539               239.5347               159.6275

                     52                     53                     54
                      A                      A                      A
 Frequencies --   1455.1991              1470.3994              1522.6533
 Red. masses --      2.1413                 3.1046                 5.6714
 Frc consts  --      2.6716                 3.9549                 7.7472
 IR Inten    --     57.0431                27.7991                81.0425

                     55                     56                     57
                      A                      A                      A
 Frequencies --   1538.7898              1544.6885              1569.3607
 Red. masses --      5.0651                 5.4483                 4.3400
 Frc consts  --      7.0664                 7.6594                 6.2977
 IR Inten    --     86.6418               481.4393                34.9090

                     58                     59                     60
                      A                      A                      A
 Frequencies --   1593.1103              1641.4902              1654.4117
 Red. masses --      5.6202                 5.5393                 5.9379
 Frc consts  --      8.4042                 8.7939                 9.5757
 IR Inten    --    120.1053               313.6351               233.6719

                     61                     62                     63
                      A                      A                      A
 Frequencies --   3202.5543              3207.5687              3216.6308
 Red. masses --      1.0872                 1.0859                 1.0898
 Frc consts  --      6.5697                 6.5827                 6.6435
 IR Inten    --      1.8155                 7.5890                 3.8209

                     64                     65                     66
                      A                      A                      A
 Frequencies --   3217.7576              3226.3467              3228.2054
 Red. masses --      1.0887                 1.0938                 1.0952
 Frc consts  --      6.6416                 6.7081                 6.7246
 IR Inten    --      1.4411                18.5249                13.7787

                     67                     68                     69
                      A                      A                      A
 Frequencies --   3235.4105              3238.9658              3567.8414
 Red. masses --      1.0996                 1.0993                 1.0676
 Frc consts  --      6.7815                 6.7948                 8.0069
 IR Inten    --     41.7977                27.7111                 0.4823

 - Thermochemistry -
 -------------------
 Temperature   298.150 Kelvin.  Pressure   1.00000 Atm.
 Atom     1 has atomic number  6 and mass  12.00000

 Molecular mass:   227.04049 amu.
 Principal axes and moments of inertia in atomic units:
                           1         2         3
     Eigenvalues --  1381.534086407.031587788.56566
           X           -0.69118   0.72268   0.00000
           Y            0.72268   0.69118  -0.00001
           Z            0.00001   0.00000   1.00000
 This molecule is an asymmetric top.
 Rotational symmetry number  1.
 Warning -- assumption of classical behavior for rotation
           may cause significant error
 Rotational temperatures (Kelvin)      0.06269     0.01352     0.01112
 Rotational constants (GHZ):           1.30633     0.28168     0.23172
 Zero-point vibrational energy     489000.0 (Joules/Mol)
                                  116.87381 (Kcal/Mol)
 Warning -- explicit consideration of  19 degrees of freedom as
           vibrations may cause significant error
 Vibrational temperatures:     33.90   102.66   143.11   154.16   264.83
          (Kelvin)            323.47   355.16   382.64   395.41   556.60
                              572.99   630.15   682.75   711.49   713.39
                              731.65   752.52   782.39   832.36   911.93
                              932.08   988.16  1007.56  1052.32  1064.55
                             1072.83  1111.81  1141.82  1194.50  1235.09
                             1270.21  1339.19  1347.95  1371.85  1397.58
                             1438.57  1488.31  1497.85  1533.68  1630.17
                             1650.02  1690.28  1696.10  1739.86  1758.84
                             1811.29  1832.01  1946.04  1963.65  2005.74
                             2038.71  2093.71  2115.58  2190.76  2213.98
                             2222.46  2257.96  2292.13  2361.74  2380.33
                             4607.76  4614.98  4628.01  4629.64  4641.99
                             4644.67  4655.03  4660.15  5133.33

 Zero-point correction=                           0.186250 (Hartree/Particle)
 Thermal correction to Energy=                    0.198811
 Thermal correction to Enthalpy=                  0.199756
 Thermal correction to Gibbs Free Energy=         0.146207
 Sum of electronic and zero-point Energies=          -1028.497196
 Sum of electronic and thermal Energies=             -1028.484635
 Sum of electronic and thermal Enthalpies=           -1028.483690
 Sum of electronic and thermal Free Energies=        -1028.537239

                     E (Thermal)             CV                S
                      KCal/Mol        Cal/Mol-Kelvin    Cal/Mol-Kelvin
 Total                  124.756             50.228            112.702
 Electronic               0.000              0.000              0.000
 Translational            0.889              2.981             42.162
 Rotational               0.889              2.981             32.600
 Vibrational            122.979             44.266             37.940
 Vibration     1          0.593              1.985              6.309
 Vibration     2          0.598              1.968              4.116
 Vibration     3          0.604              1.949              3.465
 Vibration     4          0.606              1.944              3.320
 Vibration     5          0.631              1.862              2.287
 Vibration     6          0.649              1.803              1.920
 Vibration     7          0.661              1.768              1.753
 Vibration     8          0.672              1.736              1.622
 Vibration     9          0.677              1.720              1.566
 Vibration    10          0.755              1.498              1.012
 Vibration    11          0.765              1.474              0.969
 Vibration    12          0.798              1.387              0.833
 Vibration    13          0.831              1.307              0.725
 Vibration    14          0.850              1.262              0.672
 Vibration    15          0.851              1.259              0.669
 Vibration    16          0.864              1.231              0.637
 Vibration    17          0.878              1.199              0.603
 Vibration    18          0.899              1.153              0.557
 Vibration    19          0.935              1.078              0.488

 Optimization completed.
    -- Stationary point found.
 Normal termination of Gaussian 16 at Mon Jul 13 20:48:37 2020.
