 Gaussian 16, Revision C.01,
 Gaussian 16:  ES64L-G16RevC.01  3-Jul-2019

 ----------------------------------------------------------------------
 #p opt=addgic freq td wb97xd/cc-pvdz nosymm int=ultrafine scrf=(solven
 t=CarbonTetraChloride)
 ----------------------------------------------------------------------

 ------------------------------------------------
 NM 2D-scan of HBT TD-WB97XD pVDZ in CTC Relaxed.
 ------------------------------------------------
 Symbolic Z-matrix:
 Charge =  0 Multiplicity = 1

 SCF Done:  E(RwB97XD) =  -1028.81488984     A.U. after   15 cycles
 Total Energy, E(TD-HF/TD-DFT) =  -1028.68979749
 SCF Done:  E(RwB97XD) =  -1028.81511507     A.U. after   11 cycles
 Total Energy, E(TD-HF/TD-DFT) =  -1028.68985340
 SCF Done:  E(RwB97XD) =  -1028.81538390     A.U. after   10 cycles
 Total Energy, E(TD-HF/TD-DFT) =  -1028.68986670
 SCF Done:  E(RwB97XD) =  -1028.81520421     A.U. after   10 cycles
 Total Energy, E(TD-HF/TD-DFT) =  -1028.68990285
 Optimization completed.
    -- Stationary point found.
 Normal termination of Gaussian 16 at Mon Jul 13 13:54:21 2020.

 ----------------------------------------------------------------------
 #P Geom=AllCheck Guess=TCheck SCRF=Check GenChk RwB97XD TD(FC,Read)/CC
 -pVDZ Freq
 ----------------------------------------------------------------------

 Structure from the checkpoint file:  "config_5_14.chk"
 ------------------------------------------------
 NM 2D-scan of HBT TD-WB97XD pVDZ in CTC Relaxed.
 ------------------------------------------------
 Charge =  0 Multiplicity = 1

                          Input orientation:
 ---------------------------------------------------------------------
 Center     Atomic      Atomic             Coordinates (Angstroms)
 Number     Number       Type             X           Y           Z
 ---------------------------------------------------------------------
      1          6           0        1.576217   -3.254949   -0.000030
      2          6           0        0.999290   -1.990637   -0.000024
      3          6           0        1.765776   -0.785936   -0.000020
      4          6           0        3.176404   -0.907833   -0.000024
      5          6           0        3.744413   -2.175038   -0.000030
      6          6           0        2.963466   -3.345596   -0.000032
      7          1           0        0.950984   -4.148595   -0.000032
      8          1           0        3.798701   -0.012335   -0.000022
      9          1           0        4.832322   -2.265019   -0.000032
     10          1           0        3.445651   -4.323834   -0.000035
     11          7           0        1.011143    0.344444   -0.000011
     12         16           0       -0.707211   -1.639583   -0.000021
     13          6           0       -1.329538    1.055883    0.000027
     14          6           0       -2.705514    0.758943    0.000037
     15          6           0       -0.908146    2.462310    0.000039
     16          6           0       -3.647017    1.786588    0.000032
     17          1           0       -3.035786   -0.280799    0.000040
     18          6           0       -1.892273    3.475084    0.000026
     19          6           0       -3.247984    3.139511    0.000020
     20          1           0       -4.709407    1.537773    0.000034
     21          1           0       -1.560221    4.513773    0.000027
     22          1           0       -4.002994    3.926131    0.000012
     23          6           0       -0.323353    0.069700   -0.000002
     24          8           0        0.365527    2.715557    0.000064
     25          1           0        0.914580    1.740399    0.000063
 ---------------------------------------------------------------------

 SCF Done:  E(RwB97XD) =  -1028.81520421     A.U. after    1 cycles

 Excitation energies and oscillator strengths:

 Excited state symmetry could not be determined.
 Excited State   1:      Singlet-?Sym    3.4096 eV  363.63 nm  f=0.5724  <S**2>=0.000
      59 -> 60         0.69124
 This state for optimization and/or second-order correction.
 Total Energy, E(TD-HF/TD-DFT) =  -1028.68990282
 Copying the excited state density for this state as the 1-particle RhoCI density.

 Excited state symmetry could not be determined.
 Excited State   2:      Singlet-?Sym    4.3847 eV  282.77 nm  f=0.2674  <S**2>=0.000
      57 -> 60         0.17516
      58 -> 60         0.64780
      59 -> 62         0.10070
      59 -> 64         0.10486

 Excited state symmetry could not be determined.
 Excited State   3:      Singlet-?Sym    4.6972 eV  263.95 nm  f=0.0769  <S**2>=0.000
      57 -> 60         0.58792
      57 -> 62        -0.14997
      58 -> 60        -0.17810
      58 -> 61        -0.15896
      59 -> 61         0.21394

 Alpha  occ. eigenvalues --  -89.09135 -19.26544 -14.48187 -10.40035 -10.37645
 Alpha  occ. eigenvalues --  -10.35808 -10.34909 -10.32309 -10.32131 -10.31920
 Alpha  occ. eigenvalues --  -10.31855 -10.31799 -10.31626 -10.31570 -10.30218
 Alpha  occ. eigenvalues --  -10.30118  -8.11201  -6.06041  -6.05696  -6.05258
 Alpha  occ. eigenvalues --   -1.15434  -1.08865  -0.96972  -0.95813  -0.92407
 Alpha  occ. eigenvalues --   -0.88862  -0.85381  -0.84099  -0.82416  -0.75890
 Alpha  occ. eigenvalues --   -0.71285  -0.70622  -0.68970  -0.67939  -0.63585
 Alpha  occ. eigenvalues --   -0.60711  -0.59094  -0.58420  -0.55726  -0.54384
 Alpha  occ. eigenvalues --   -0.54284  -0.53363  -0.53008  -0.50817  -0.50039
 Alpha  occ. eigenvalues --   -0.49624  -0.46999  -0.46163  -0.45673  -0.44881
 Alpha  occ. eigenvalues --   -0.44210  -0.42657  -0.42616  -0.40365  -0.36511
 Alpha  occ. eigenvalues --   -0.36394  -0.32334  -0.31320  -0.27945
 Alpha virt. eigenvalues --   -0.01725   0.04835   0.06722   0.07531   0.07575
 Alpha virt. eigenvalues --    0.10872   0.14498   0.15101   0.16787   0.17962
 Alpha virt. eigenvalues --    0.18666   0.21054   0.21607   0.22399   0.22463

 Mulliken charges:
               1
     1  C    0.020760
     2  C   -0.225194
     3  C    0.245787
     4  C   -0.019842
     5  C    0.006010
     6  C   -0.001823
     7  H    0.018752
     8  H    0.021482
     9  H    0.020984
    10  H    0.021590
    11  N   -0.351803
    12  S    0.170996
    13  C   -0.090254
    14  C   -0.026932
    15  C    0.112519
    16  C   -0.018256
    17  H    0.017491
    18  C   -0.008180
    19  C    0.025751
    20  H    0.008845
    21  H    0.015627
    22  H    0.021730
    23  C    0.082233
    24  O   -0.281497
    25  H    0.213224
 Sum of Mulliken charges =  -0.00000

 Dipole moment (field-independent basis, Debye):
    X=             -0.1416    Y=             -2.9803    Z=             -0.0000  Tot=              2.9837
 Quadrupole moment (field-independent basis, Debye-Ang):
   XX=            -83.1628   YY=            -90.5983   ZZ=           -104.2398
   XY=             -7.0564   XZ=             -0.0000   YZ=             -0.0001

  Exact polarizability:     377.197    -163.906     346.897      -0.002       0.003      63.261
 Approx polarizability:     274.876     -34.918     258.833      -0.001       0.001      82.310

 ******    1 imaginary frequencies (negative Signs) ******

                      1                      2                      3
                      A                      A                      A
 Frequencies --   -503.8263                44.1791                52.6377
 Red. masses --      1.5806                 5.3665                 6.7698
 Frc consts  --      0.2364                 0.0062                 0.0111
 IR Inten    --    200.7917                 0.7910                 0.7559

                      4                      5                      6
                      A                      A                      A
 Frequencies --    109.8865               161.1096               175.4829
 Red. masses --      5.2687                 5.5479                 6.1521
 Frc consts  --      0.0375                 0.0848                 0.1116
 IR Inten    --      0.0176                 9.8068                 1.0482

                      7                      8                      9
                      A                      A                      A
 Frequencies --    222.2154               273.0250               274.4112
 Red. masses --      5.3343                 4.7573                 7.4333
 Frc consts  --      0.1552                 0.2089                 0.3298
 IR Inten    --      0.0258                 0.0524                20.9096

                     10                     11                     12
                      A                      A                      A
 Frequencies --    376.9445               400.6221               428.6231
 Red. masses --      4.7328                 5.9055                 8.1894
 Frc consts  --      0.3962                 0.5584                 0.8864
 IR Inten    --      0.1329                 5.8713                 4.6521

                     13                     14                     15
                      A                      A                      A
 Frequencies --    439.6124               478.8689               500.5701
 Red. masses --      3.2068                 4.7726                 3.1675
 Frc consts  --      0.3651                 0.6448                 0.4676
 IR Inten    --      4.2631                 0.0073                 0.1985

                     16                     17                     18
                      A                      A                      A
 Frequencies --    506.4003               538.2335               558.2679
 Red. masses --      8.7362                 8.1208                 3.9035
 Frc consts  --      1.3200                 1.3861                 0.7168
 IR Inten    --      0.5298                25.6061                 0.1749

                     19                     20                     21
                      A                      A                      A
 Frequencies --    576.7365               632.8502               705.0734
 Red. masses --      7.6209                 6.7966                 1.6181
 Frc consts  --      1.4935                 1.6038                 0.4740
 IR Inten    --      0.7758                17.0485                47.8415

                     22                     23                     24
                      A                      A                      A
 Frequencies --    715.5224               741.2281               742.8535
 Red. masses --      6.5849                 1.9224                10.0088
 Frc consts  --      1.9863                 0.6223                 3.2542
 IR Inten    --      5.2350                30.5435                15.7655

                     25                     26                     27
                      A                      A                      A
 Frequencies --    753.4727               767.6707               810.0434
 Red. masses --      1.8468                 2.0406                 1.7690
 Frc consts  --      0.6177                 0.7085                 0.6839
 IR Inten    --     22.8874                54.0421                 0.4347

                     28                     29                     30
                      A                      A                      A
 Frequencies --    818.5472               845.8367               862.3490
 Red. masses --      5.0436                 4.9540                 1.4101
 Frc consts  --      1.9910                 2.0882                 0.6178
 IR Inten    --     89.4927               127.1200                 1.0047

                     31                     32                     33
                      A                      A                      A
 Frequencies --    908.0632               925.2951               953.0165
 Red. masses --      1.3606                 5.6850                 1.3478
 Frc consts  --      0.6610                 2.8678                 0.7212
 IR Inten    --      4.7166                 2.6083                 1.9599

                     34                     35                     36
                      A                      A                      A
 Frequencies --    960.0859               999.1329              1001.1367
 Red. masses --      1.3783                 1.2994                 6.6328
 Frc consts  --      0.7486                 0.7643                 3.9168
 IR Inten    --      0.1800                 0.0000                 0.3686

                     37                     38                     39
                      A                      A                      A
 Frequencies --   1038.9452              1048.6253              1093.6786
 Red. masses --      2.0859                 1.9792                 4.1229
 Frc consts  --      1.3266                 1.2822                 2.9055
 IR Inten    --      1.6125                 2.1531                69.5517

                     40                     41                     42
                      A                      A                      A
 Frequencies --   1137.1520              1155.7619              1173.6379
 Red. masses --      1.4304                 1.3971                 1.1296
 Frc consts  --      1.0898                 1.0996                 0.9167
 IR Inten    --     46.3066                27.0212                33.1066

                     43                     44                     45
                      A                      A                      A
 Frequencies --   1178.3712              1191.8935              1247.4783
 Red. masses --      1.1875                 1.0520                 1.9094
 Frc consts  --      0.9715                 0.8805                 1.7507
 IR Inten    --     58.0199                65.7475               104.3852

                     46                     47                     48
                      A                      A                      A
 Frequencies --   1260.6274              1291.7082              1363.8186
 Red. masses --      2.9567                 2.0420                 4.3959
 Frc consts  --      2.7684                 2.0074                 4.8174
 IR Inten    --     49.1160                 9.3893                12.7417

                     49                     50                     51
                      A                      A                      A
 Frequencies --   1377.1148              1397.9622              1404.7907
 Red. masses --      2.9639                 2.7174                 2.8045
 Frc consts  --      3.3117                 3.1289                 3.2609
 IR Inten    --    312.6940               102.6343                53.2255

                     52                     53                     54
                      A                      A                      A
 Frequencies --   1445.0270              1476.7735              1512.1155
 Red. masses --      3.3426                 3.1112                 3.8125
 Frc consts  --      4.1123                 3.9977                 5.1361
 IR Inten    --    312.4794               108.1221                20.4429

                     55                     56                     57
                      A                      A                      A
 Frequencies --   1534.0549              1548.2287              1575.4633
 Red. masses --      4.5662                 4.5403                 6.2466
 Frc consts  --      6.3312                 6.4122                 9.1350
 IR Inten    --    220.2040                77.8384               407.0252

                     58                     59                     60
                      A                      A                      A
 Frequencies --   1615.4596              1645.7063              1653.1435
 Red. masses --      6.0313                 5.9581                 5.5504
 Frc consts  --      9.2737                 9.5074                 8.9371
 IR Inten    --    279.4467              1208.4076                88.9852

                     61                     62                     63
                      A                      A                      A
 Frequencies --   1806.0573              3206.3441              3212.0201
 Red. masses --      1.0941                 1.0862                 1.0863
 Frc consts  --      2.1026                 6.5790                 6.6032
 IR Inten    --     58.5671                 8.1405                10.0702

                     64                     65                     66
                      A                      A                      A
 Frequencies --   3216.7605              3222.5703              3228.0097
 Red. masses --      1.0901                 1.0889                 1.0951
 Frc consts  --      6.6457                 6.6627                 6.7231
 IR Inten    --      2.4337                 8.5603                10.3214

                     67                     68                     69
                      A                      A                      A
 Frequencies --   3230.0046              3234.9488              3241.2487
 Red. masses --      1.0943                 1.0993                 1.0981
 Frc consts  --      6.7264                 6.7779                 6.7971
 IR Inten    --     13.2483                31.4537                21.2457

 - Thermochemistry -
 -------------------
 Temperature   298.150 Kelvin.  Pressure   1.00000 Atm.
 Atom     1 has atomic number  6 and mass  12.00000

 Molecular mass:   227.04049 amu.
 Principal axes and moments of inertia in atomic units:
                           1         2         3
     Eigenvalues --  1287.355166297.421047584.77621
           X           -0.70499   0.70922   0.00000
           Y            0.70922   0.70499  -0.00001
           Z            0.00001   0.00001   1.00000
 This molecule is an asymmetric top.
 Rotational symmetry number  1.
 Warning -- assumption of classical behavior for rotation
           may cause significant error
 Rotational temperatures (Kelvin)      0.06728     0.01375     0.01142
 Rotational constants (GHZ):           1.40190     0.28658     0.23794
    1 imaginary frequencies ignored.
 Zero-point vibrational energy     479855.1 (Joules/Mol)
                                  114.68812 (Kcal/Mol)
 Warning -- explicit consideration of  18 degrees of freedom as
           vibrations may cause significant error
 Vibrational temperatures:     63.56    75.73   158.10   231.80   252.48
          (Kelvin)            319.72   392.82   394.82   542.34   576.41
                              616.69   632.50   688.99   720.21   728.60
                              774.40   803.22   829.80   910.53  1014.44
                             1029.48  1066.46  1068.80  1084.08  1104.51
                             1165.47  1177.71  1216.97  1240.73  1306.50
                             1331.29  1371.18  1381.35  1437.53  1440.41
                             1494.81  1508.74  1573.56  1636.11  1662.88
                             1688.60  1695.41  1714.87  1794.84  1813.76
                             1858.48  1962.23  1981.36  2011.36  2021.18
                             2079.07  2124.75  2175.60  2207.16  2227.56
                             2266.74  2324.29  2367.80  2378.50  2598.51
                             4613.21  4621.38  4628.20  4636.56  4644.39
                             4647.26  4654.37  4663.43

 Zero-point correction=                           0.182767 (Hartree/Particle)
 Thermal correction to Energy=                    0.194652
 Thermal correction to Enthalpy=                  0.195596
 Thermal correction to Gibbs Free Energy=         0.143757
 Sum of electronic and zero-point Energies=          -1028.507136
 Sum of electronic and thermal Energies=             -1028.495251
 Sum of electronic and thermal Enthalpies=           -1028.494307
 Sum of electronic and thermal Free Energies=        -1028.546146

                     E (Thermal)             CV                S
                      KCal/Mol        Cal/Mol-Kelvin    Cal/Mol-Kelvin
 Total                  122.146             47.895            109.105
 Electronic               0.000              0.000              0.000
 Translational            0.889              2.981             42.162
 Rotational               0.889              2.981             32.486
 Vibrational            120.368             41.934             34.457
 Vibration     1          0.595              1.980              5.062
 Vibration     2          0.596              1.977              4.716
 Vibration     3          0.606              1.941              3.271
 Vibration     4          0.622              1.890              2.537
 Vibration     5          0.627              1.873              2.376
 Vibration     6          0.648              1.807              1.941
 Vibration     7          0.676              1.723              1.577
 Vibration     8          0.677              1.721              1.568
 Vibration     9          0.747              1.519              1.051
 Vibration    10          0.766              1.469              0.960
 Vibration    11          0.790              1.408              0.863
 Vibration    12          0.800              1.384              0.828
 Vibration    13          0.835              1.297              0.713
 Vibration    14          0.856              1.249              0.657
 Vibration    15          0.862              1.236              0.642
 Vibration    16          0.893              1.165              0.569
 Vibration    17          0.914              1.122              0.527
 Vibration    18          0.933              1.082              0.491

 Optimization completed.
    -- Stationary point found.
 Normal termination of Gaussian 16 at Mon Jul 13 14:13:56 2020.
