 Gaussian 16, Revision C.01,
 Gaussian 16:  ES64L-G16RevC.01  3-Jul-2019

 ----------------------------------------------------------------------
 #p opt=addgic freq td wb97xd/cc-pvdz nosymm int=ultrafine scrf=(solven
 t=CarbonTetraChloride)
 ----------------------------------------------------------------------

 ------------------------------------------------
 NM 2D-scan of HBT TD-WB97XD pVDZ in CTC Relaxed.
 ------------------------------------------------
 Symbolic Z-matrix:
 Charge =  0 Multiplicity = 1

 SCF Done:  E(RwB97XD) =  -1028.78053511     A.U. after   15 cycles
 Total Energy, E(TD-HF/TD-DFT) =  -1028.64910935
 SCF Done:  E(RwB97XD) =  -1028.81737432     A.U. after   13 cycles
 Total Energy, E(TD-HF/TD-DFT) =  -1028.68833407
 SCF Done:  E(RwB97XD) =  -1028.81818223     A.U. after   13 cycles
 Total Energy, E(TD-HF/TD-DFT) =  -1028.69093374
 SCF Done:  E(RwB97XD) =  -1028.81849263     A.U. after   11 cycles
 Total Energy, E(TD-HF/TD-DFT) =  -1028.69103853
 SCF Done:  E(RwB97XD) =  -1028.81851666     A.U. after   10 cycles
 Total Energy, E(TD-HF/TD-DFT) =  -1028.69108354
 SCF Done:  E(RwB97XD) =  -1028.81854987     A.U. after    9 cycles
 Total Energy, E(TD-HF/TD-DFT) =  -1028.69108514
 SCF Done:  E(RwB97XD) =  -1028.81857508     A.U. after    8 cycles
 Total Energy, E(TD-HF/TD-DFT) =  -1028.69108534
 SCF Done:  E(RwB97XD) =  -1028.81858438     A.U. after    7 cycles
 Total Energy, E(TD-HF/TD-DFT) =  -1028.69108538
 Optimization completed.
    -- Stationary point found.
 Normal termination of Gaussian 16 at Mon Jul 13 17:36:22 2020.

 ----------------------------------------------------------------------
 #P Geom=AllCheck Guess=TCheck SCRF=Check GenChk RwB97XD TD(FC,Read)/CC
 -pVDZ Freq
 ----------------------------------------------------------------------

 Structure from the checkpoint file:  "config_3_7.chk"
 ------------------------------------------------
 NM 2D-scan of HBT TD-WB97XD pVDZ in CTC Relaxed.
 ------------------------------------------------
 Charge =  0 Multiplicity = 1

                          Input orientation:
 ---------------------------------------------------------------------
 Center     Atomic      Atomic             Coordinates (Angstroms)
 Number     Number       Type             X           Y           Z
 ---------------------------------------------------------------------
      1          6           0        1.678777   -3.294052    0.000034
      2          6           0        0.976574   -2.089167    0.000064
      3          6           0        1.679802   -0.838225   -0.000043
      4          6           0        3.098778   -0.827406   -0.000178
      5          6           0        3.774978   -2.026771   -0.000204
      6          6           0        3.075405   -3.253801   -0.000099
      7          1           0        1.154810   -4.250743    0.000111
      8          1           0        3.616936    0.132084   -0.000256
      9          1           0        4.866427   -2.033789   -0.000308
     10          1           0        3.634892   -4.190496   -0.000123
     11          7           0        0.926570    0.261965    0.000001
     12         16           0       -0.754994   -1.786521    0.000198
     13          6           0       -1.360605    1.029984    0.000126
     14          6           0       -2.773473    0.845932    0.000029
     15          6           0       -0.897581    2.438782    0.000129
     16          6           0       -3.642632    1.926295   -0.000101
     17          1           0       -3.173411   -0.169621    0.000018
     18          6           0       -1.808115    3.502444   -0.000016
     19          6           0       -3.172635    3.261636   -0.000141
     20          1           0       -4.718044    1.741177   -0.000193
     21          1           0       -1.393486    4.510855    0.000001
     22          1           0       -3.878965    4.092128   -0.000248
     23          6           0       -0.405603   -0.011396    0.000152
     24          8           0        0.379214    2.762354    0.000389
     25          1           0        0.907724    1.905513    0.000761
 ---------------------------------------------------------------------

 SCF Done:  E(RwB97XD) =  -1028.81858438     A.U. after    1 cycles

 Excitation energies and oscillator strengths:

 Excited state symmetry could not be determined.
 Excited State   1:      Singlet-?Sym    3.4694 eV  357.36 nm  f=0.6960  <S**2>=0.000
      59 -> 60         0.68958
 This state for optimization and/or second-order correction.
 Total Energy, E(TD-HF/TD-DFT) =  -1028.69108537
 Copying the excited state density for this state as the 1-particle RhoCI density.

 Excited state symmetry could not be determined.
 Excited State   2:      Singlet-?Sym    4.3877 eV  282.57 nm  f=0.2204  <S**2>=0.000
      57 -> 60        -0.25429
      58 -> 60        -0.61068
      59 -> 62         0.16084

 Excited state symmetry could not be determined.
 Excited State   3:      Singlet-?Sym    4.5786 eV  270.79 nm  f=0.0556  <S**2>=0.000
      57 -> 60         0.56483
      57 -> 62         0.11250
      58 -> 60        -0.24363
      58 -> 61        -0.12433
      59 -> 61         0.23895

 Alpha  occ. eigenvalues --  -89.09138 -19.28450 -14.46976 -10.39920 -10.38205
 Alpha  occ. eigenvalues --  -10.34901 -10.34862 -10.32865 -10.32333 -10.32250
 Alpha  occ. eigenvalues --  -10.31930 -10.31432 -10.31345 -10.31260 -10.30471
 Alpha  occ. eigenvalues --  -10.30261  -8.11016  -6.05873  -6.05535  -6.05069
 Alpha  occ. eigenvalues --   -1.17195  -1.08278  -0.96661  -0.95597  -0.91565
 Alpha  occ. eigenvalues --   -0.88801  -0.84920  -0.84408  -0.82312  -0.75980
 Alpha  occ. eigenvalues --   -0.71052  -0.70150  -0.69113  -0.68288  -0.63374
 Alpha  occ. eigenvalues --   -0.60295  -0.58871  -0.58548  -0.55869  -0.54409
 Alpha  occ. eigenvalues --   -0.53673  -0.53079  -0.52806  -0.50912  -0.50409
 Alpha  occ. eigenvalues --   -0.49298  -0.47881  -0.45862  -0.45539  -0.44723
 Alpha  occ. eigenvalues --   -0.43797  -0.42884  -0.42279  -0.39966  -0.37339
 Alpha  occ. eigenvalues --   -0.36442  -0.32152  -0.31455  -0.27951
 Alpha virt. eigenvalues --   -0.01835   0.05144   0.07006   0.07118   0.07230
 Alpha virt. eigenvalues --    0.11154   0.13328   0.15126   0.16014   0.17948
 Alpha virt. eigenvalues --    0.18579   0.20872   0.21679   0.22322   0.22725

 Mulliken charges:
               1
     1  C    0.009897
     2  C   -0.221595
     3  C    0.232299
     4  C   -0.015930
     5  C    0.009006
     6  C   -0.008249
     7  H    0.018703
     8  H    0.016307
     9  H    0.018482
    10  H    0.020477
    11  N   -0.353969
    12  S    0.152890
    13  C   -0.091269
    14  C   -0.017235
    15  C    0.085827
    16  C   -0.013580
    17  H    0.012850
    18  C    0.012529
    19  C    0.021969
    20  H    0.011587
    21  H    0.018864
    22  H    0.022542
    23  C    0.081544
    24  O   -0.196789
    25  H    0.172843
 Sum of Mulliken charges =  -0.00000

 Dipole moment (field-independent basis, Debye):
    X=             -0.3627    Y=             -1.8859    Z=              0.0003  Tot=              1.9205
 Quadrupole moment (field-independent basis, Debye-Ang):
   XX=            -83.2222   YY=            -89.1356   ZZ=           -104.4600
   XY=             -6.9114   XZ=              0.0006   YZ=             -0.0002

  Exact polarizability:     403.563    -192.686     386.681      -0.004       0.000      63.489
 Approx polarizability:     279.947     -36.698     262.633      -0.003      -0.003      82.453

                      1                      2                      3
                      A                      A                      A
 Frequencies --     39.5357                63.0162               109.5199
 Red. masses --      5.9921                 6.0279                 4.7153
 Frc consts  --      0.0055                 0.0141                 0.0333
 IR Inten    --      1.3960                 0.0192                 0.2659

                      4                      5                      6
                      A                      A                      A
 Frequencies --    114.3272               181.2512               223.6276
 Red. masses --      5.6589                 6.5615                 5.4010
 Frc consts  --      0.0436                 0.1270                 0.1591
 IR Inten    --      1.9632                 1.0038                 0.0001

                      7                      8                      9
                      A                      A                      A
 Frequencies --    265.9830               268.8731               302.7362
 Red. masses --      7.8123                 4.8220                 6.7868
 Frc consts  --      0.3256                 0.2054                 0.3665
 IR Inten    --     23.8309                 0.1373                 5.5751

                     10                     11                     12
                      A                      A                      A
 Frequencies --    392.3517               396.2577               438.7734
 Red. masses --      4.6609                 9.0544                 3.2787
 Frc consts  --      0.4227                 0.8377                 0.3719
 IR Inten    --      0.1575                12.8763                 4.3697

                     13                     14                     15
                      A                      A                      A
 Frequencies --    492.3201               497.3892               504.1210
 Red. masses --      4.5121                 7.3981                 3.1433
 Frc consts  --      0.6444                 1.0784                 0.4707
 IR Inten    --      0.2189                10.7821                 0.0521

                     16                     17                     18
                      A                      A                      A
 Frequencies --    511.3652               526.6292               550.5656
 Red. masses --      5.4308                 7.7727                 3.9852
 Frc consts  --      0.8367                 1.2701                 0.7117
 IR Inten    --     29.7343                16.0752                 0.1336

                     19                     20                     21
                      A                      A                      A
 Frequencies --    579.0659               641.5277               677.6555
 Red. masses --      7.6781                 6.6960                 9.0564
 Frc consts  --      1.5169                 1.6237                 2.4503
 IR Inten    --     44.9678                45.3798                26.4322

                     22                     23                     24
                      A                      A                      A
 Frequencies --    710.3056               715.9097               735.7583
 Red. masses --      7.1318                 1.7920                 1.9109
 Frc consts  --      2.1200                 0.5411                 0.6095
 IR Inten    --     13.3753                44.6695                30.0236

                     25                     26                     27
                      A                      A                      A
 Frequencies --    750.1654               771.8802               807.2157
 Red. masses --      1.8612                 2.0290                 6.5084
 Frc consts  --      0.6171                 0.7123                 2.4986
 IR Inten    --     28.2034                53.2253                17.2190

                     28                     29                     30
                      A                      A                      A
 Frequencies --    822.9863               860.0421               890.6216
 Red. masses --      1.6280                 1.4227                 6.4132
 Frc consts  --      0.6497                 0.6200                 2.9972
 IR Inten    --      1.2551                 0.5966                52.3639

                     31                     32                     33
                      A                      A                      A
 Frequencies --    919.6220               946.2911               954.3064
 Red. masses --      1.3259                 1.0852                 1.3418
 Frc consts  --      0.6606                 0.5726                 0.7200
 IR Inten    --     16.9452                55.8618                 2.7465

                     34                     35                     36
                      A                      A                      A
 Frequencies --    955.7749               966.8630              1000.2571
 Red. masses --      7.1769                 1.3522                 1.2989
 Frc consts  --      3.8627                 0.7447                 0.7657
 IR Inten    --      5.7910                 0.0352                 0.0030

                     37                     38                     39
                      A                      A                      A
 Frequencies --   1039.5721              1040.7628              1073.4643
 Red. masses --      2.2118                 2.1482                 4.8344
 Frc consts  --      1.4083                 1.3710                 3.2823
 IR Inten    --      2.8066                 0.4891                41.4905

                     40                     41                     42
                      A                      A                      A
 Frequencies --   1135.5800              1147.9558              1176.5884
 Red. masses --      1.4663                 1.3118                 1.1461
 Frc consts  --      1.1141                 1.0185                 0.9348
 IR Inten    --     58.0817                14.6827                 7.2622

                     43                     44                     45
                      A                      A                      A
 Frequencies --   1178.9633              1227.8165              1240.3767
 Red. masses --      1.1830                 6.1481                 1.6763
 Frc consts  --      0.9688                 5.4608                 1.5195
 IR Inten    --     33.2543                68.0533               173.4388

                     46                     47                     48
                      A                      A                      A
 Frequencies --   1279.6837              1305.2330              1363.9213
 Red. masses --      1.6426                 3.0927                 2.9059
 Frc consts  --      1.5849                 3.1043                 3.1850
 IR Inten    --      7.4068               307.0731                60.4112

                     49                     50                     51
                      A                      A                      A
 Frequencies --   1374.0664              1403.5537              1440.8501
 Red. masses --      5.5935                 1.9834                 2.5443
 Frc consts  --      6.2223                 2.3020                 3.1122
 IR Inten    --     32.3184                 6.4222               169.9255

                     52                     53                     54
                      A                      A                      A
 Frequencies --   1476.1083              1503.8781              1517.4889
 Red. masses --      3.2747                 2.7293                 4.2329
 Frc consts  --      4.2040                 3.6368                 5.7430
 IR Inten    --     77.0799               189.1521                70.8312

                     55                     56                     57
                      A                      A                      A
 Frequencies --   1536.3116              1556.0281              1591.6839
 Red. masses --      4.7031                 6.3563                 3.2198
 Frc consts  --      6.5402                 9.0675                 4.8062
 IR Inten    --     42.1451               535.9654               343.0828

                     58                     59                     60
                      A                      A                      A
 Frequencies --   1609.9701              1627.4782              1652.1860
 Red. masses --      2.5992                 5.4492                 5.5270
 Frc consts  --      3.9694                 8.5038                 8.8890
 IR Inten    --     57.1625               473.4844               165.0657

                     61                     62                     63
                      A                      A                      A
 Frequencies --   2951.0506              3204.7816              3207.4954
 Red. masses --      1.0748                 1.0871                 1.0863
 Frc consts  --      5.5150                 6.5786                 6.5845
 IR Inten    --     72.8579                 4.3778                 9.1795

                     64                     65                     66
                      A                      A                      A
 Frequencies --   3218.2276              3218.4231              3226.7356
 Red. masses --      1.0887                 1.0898                 1.0938
 Frc consts  --      6.6436                 6.6511                 6.7097
 IR Inten    --      0.9455                 3.3632                17.7582

                     67                     68                     69
                      A                      A                      A
 Frequencies --   3230.2879              3236.3728              3238.9062
 Red. masses --      1.0953                 1.0991                 1.0989
 Frc consts  --      6.7342                 6.7829                 6.7921
 IR Inten    --     11.7457                42.6334                24.0920

 - Thermochemistry -
 -------------------
 Temperature   298.150 Kelvin.  Pressure   1.00000 Atm.
 Atom     1 has atomic number  6 and mass  12.00000

 Molecular mass:   227.04049 amu.
 Principal axes and moments of inertia in atomic units:
                           1         2         3
     Eigenvalues --  1346.088256353.054117699.14232
           X           -0.69749   0.71660   0.00001
           Y            0.71660   0.69749  -0.00000
           Z            0.00001  -0.00001   1.00000
 This molecule is an asymmetric top.
 Rotational symmetry number  1.
 Warning -- assumption of classical behavior for rotation
           may cause significant error
 Rotational temperatures (Kelvin)      0.06434     0.01363     0.01125
 Rotational constants (GHZ):           1.34073     0.28407     0.23441
 Zero-point vibrational energy     489372.5 (Joules/Mol)
                                  116.96284 (Kcal/Mol)
 Warning -- explicit consideration of  19 degrees of freedom as
           vibrations may cause significant error
 Vibrational temperatures:     56.88    90.67   157.57   164.49   260.78
          (Kelvin)            321.75   382.69   386.85   435.57   564.51
                              570.13   631.30   708.34   715.63   725.32
                              735.74   757.70   792.14   833.15   923.02
                              975.00  1021.97  1030.03  1058.59  1079.32
                             1110.56  1161.40  1184.09  1237.41  1281.41
                             1323.13  1361.50  1373.03  1375.15  1391.10
                             1439.15  1495.71  1497.43  1544.48  1633.85
                             1651.65  1692.85  1696.27  1766.55  1784.63
                             1841.18  1877.94  1962.38  1976.98  2019.40
                             2073.06  2123.79  2163.75  2183.33  2210.41
                             2238.78  2290.08  2316.39  2341.58  2377.13
                             4245.90  4610.97  4614.87  4630.31  4630.59
                             4642.55  4647.66  4656.42  4660.06

 Zero-point correction=                           0.186392 (Hartree/Particle)
 Thermal correction to Energy=                    0.198705
 Thermal correction to Enthalpy=                  0.199649
 Thermal correction to Gibbs Free Energy=         0.146969
 Sum of electronic and zero-point Energies=          -1028.504693
 Sum of electronic and thermal Energies=             -1028.492381
 Sum of electronic and thermal Enthalpies=           -1028.491436
 Sum of electronic and thermal Free Energies=        -1028.544116

                     E (Thermal)             CV                S
                      KCal/Mol        Cal/Mol-Kelvin    Cal/Mol-Kelvin
 Total                  124.689             49.412            110.874
 Electronic               0.000              0.000              0.000
 Translational            0.889              2.981             42.162
 Rotational               0.889              2.981             32.554
 Vibrational            122.912             43.450             36.158
 Vibration     1          0.594              1.981              5.282
 Vibration     2          0.597              1.972              4.360
 Vibration     3          0.606              1.942              3.277
 Vibration     4          0.607              1.938              3.194
 Vibration     5          0.630              1.865              2.315
 Vibration     6          0.649              1.805              1.930
 Vibration     7          0.672              1.735              1.622
 Vibration     8          0.673              1.730              1.603
 Vibration     9          0.694              1.669              1.402
 Vibration    10          0.760              1.487              0.991
 Vibration    11          0.763              1.478              0.977
 Vibration    12          0.799              1.386              0.830
 Vibration    13          0.848              1.267              0.678
 Vibration    14          0.853              1.256              0.665
 Vibration    15          0.859              1.241              0.648
 Vibration    16          0.866              1.225              0.630
 Vibration    17          0.882              1.191              0.595
 Vibration    18          0.906              1.138              0.543
 Vibration    19          0.936              1.077              0.487

 Optimization completed.
    -- Stationary point found.
 Normal termination of Gaussian 16 at Mon Jul 13 17:54:08 2020.
