 Gaussian 16, Revision C.01,
 Gaussian 16:  ES64L-G16RevC.01  3-Jul-2019

 ----------------------------------------------------------------------
 #p opt=addgic freq td wb97xd/cc-pvdz nosymm int=ultrafine scrf=(solven
 t=CarbonTetraChloride)
 ----------------------------------------------------------------------

 ------------------------------------------------
 NM 2D-scan of HBT TD-WB97XD pVDZ in CTC Relaxed.
 ------------------------------------------------
 Symbolic Z-matrix:
 Charge =  0 Multiplicity = 1

 SCF Done:  E(RwB97XD) =  -1028.80744775     A.U. after   15 cycles
 Total Energy, E(TD-HF/TD-DFT) =  -1028.69151582
 SCF Done:  E(RwB97XD) =  -1028.80072224     A.U. after   14 cycles
 Total Energy, E(TD-HF/TD-DFT) =  -1028.69142178
 SCF Done:  E(RwB97XD) =  -1028.80550031     A.U. after   12 cycles
 Total Energy, E(TD-HF/TD-DFT) =  -1028.69300904
 SCF Done:  E(RwB97XD) =  -1028.80557673     A.U. after   11 cycles
 Total Energy, E(TD-HF/TD-DFT) =  -1028.69304364
 SCF Done:  E(RwB97XD) =  -1028.80556129     A.U. after   10 cycles
 Total Energy, E(TD-HF/TD-DFT) =  -1028.69304797
 SCF Done:  E(RwB97XD) =  -1028.80556807     A.U. after    9 cycles
 Total Energy, E(TD-HF/TD-DFT) =  -1028.69304861
 SCF Done:  E(RwB97XD) =  -1028.80556945     A.U. after    8 cycles
 Total Energy, E(TD-HF/TD-DFT) =  -1028.69304902
 Optimization completed.
    -- Stationary point found.
 Normal termination of Gaussian 16 at Mon Jul 13 15:16:33 2020.

 ----------------------------------------------------------------------
 #P Geom=AllCheck Guess=TCheck SCRF=Check GenChk RwB97XD TD(FC,Read)/CC
 -pVDZ Freq
 ----------------------------------------------------------------------

 Structure from the checkpoint file:  "config_7_13.chk"
 ------------------------------------------------
 NM 2D-scan of HBT TD-WB97XD pVDZ in CTC Relaxed.
 ------------------------------------------------
 Charge =  0 Multiplicity = 1

                          Input orientation:
 ---------------------------------------------------------------------
 Center     Atomic      Atomic             Coordinates (Angstroms)
 Number     Number       Type             X           Y           Z
 ---------------------------------------------------------------------
      1          6           0        1.594329   -3.273451   -0.000154
      2          6           0        0.990482   -2.018042   -0.000064
      3          6           0        1.752554   -0.811538    0.000055
      4          6           0        3.156586   -0.900412    0.000097
      5          6           0        3.749740   -2.155240    0.000004
      6          6           0        2.985629   -3.334636   -0.000123
      7          1           0        0.991025   -4.182188   -0.000239
      8          1           0        3.756976    0.009786    0.000197
      9          1           0        4.838773   -2.225989    0.000032
     10          1           0        3.484167   -4.304697   -0.000189
     11          7           0        0.993017    0.327844    0.000137
     12         16           0       -0.722633   -1.666966   -0.000045
     13          6           0       -1.334237    1.064036    0.000052
     14          6           0       -2.706333    0.778686    0.000117
     15          6           0       -0.901841    2.477932   -0.000063
     16          6           0       -3.650724    1.814036    0.000109
     17          1           0       -3.049465   -0.257998    0.000192
     18          6           0       -1.893479    3.487455   -0.000091
     19          6           0       -3.248927    3.159964    0.000010
     20          1           0       -4.712765    1.564427    0.000172
     21          1           0       -1.549292    4.522465   -0.000205
     22          1           0       -4.000057    3.950435   -0.000011
     23          6           0       -0.340371    0.054949    0.000053
     24          8           0        0.350297    2.770186   -0.000277
     25          1           0        1.052492    1.489898    0.000333
 ---------------------------------------------------------------------

 SCF Done:  E(RwB97XD) =  -1028.80556945     A.U. after    1 cycles

 Excitation energies and oscillator strengths:

 Excited state symmetry could not be determined.
 Excited State   1:      Singlet-?Sym    3.0618 eV  404.93 nm  f=0.4527  <S**2>=0.000
      59 -> 60         0.69526
 This state for optimization and/or second-order correction.
 Total Energy, E(TD-HF/TD-DFT) =  -1028.69304903
 Copying the excited state density for this state as the 1-particle RhoCI density.

 Excited state symmetry could not be determined.
 Excited State   2:      Singlet-?Sym    4.1693 eV  297.38 nm  f=0.0000  <S**2>=0.000
      56 -> 60         0.68591
      56 -> 62         0.10938
      56 -> 64         0.11472

 Excited state symmetry could not be determined.
 Excited State   3:      Singlet-?Sym    4.3188 eV  287.08 nm  f=0.3423  <S**2>=0.000
      58 -> 60         0.67776

 Alpha  occ. eigenvalues --  -89.10037 -19.22824 -14.51258 -10.41288 -10.37195
 Alpha  occ. eigenvalues --  -10.36502 -10.35932 -10.33033 -10.32531 -10.32189
 Alpha  occ. eigenvalues --  -10.32103 -10.31786 -10.31263 -10.31217 -10.29587
 Alpha  occ. eigenvalues --  -10.28982  -8.12048  -6.06908  -6.06555  -6.06077
 Alpha  occ. eigenvalues --   -1.12259  -1.09636  -0.97793  -0.95480  -0.93032
 Alpha  occ. eigenvalues --   -0.89020  -0.86256  -0.83679  -0.81847  -0.75832
 Alpha  occ. eigenvalues --   -0.71827  -0.71747  -0.68502  -0.67614  -0.64226
 Alpha  occ. eigenvalues --   -0.60952  -0.59477  -0.57152  -0.55202  -0.55200
 Alpha  occ. eigenvalues --   -0.54572  -0.53714  -0.52961  -0.50615  -0.49726
 Alpha  occ. eigenvalues --   -0.49052  -0.47900  -0.46651  -0.45216  -0.45214
 Alpha  occ. eigenvalues --   -0.44148  -0.43186  -0.41968  -0.40607  -0.36678
 Alpha  occ. eigenvalues --   -0.33556  -0.33176  -0.31292  -0.26775
 Alpha virt. eigenvalues --   -0.01931   0.04118   0.06021   0.06637   0.08631
 Alpha virt. eigenvalues --    0.10590   0.13942   0.14844   0.16382   0.17623
 Alpha virt. eigenvalues --    0.18680   0.20517   0.20944   0.21600   0.22833

 Mulliken charges:
               1
     1  C    0.018926
     2  C   -0.227112
     3  C    0.264709
     4  C   -0.014154
     5  C    0.009377
     6  C   -0.000027
     7  H    0.023799
     8  H    0.028099
     9  H    0.024917
    10  H    0.024977
    11  N   -0.244401
    12  S    0.192528
    13  C   -0.101564
    14  C   -0.029067
    15  C    0.127530
    16  C   -0.028265
    17  H    0.012667
    18  C   -0.013596
    19  C    0.030349
    20  H    0.004261
    21  H    0.007071
    22  H    0.017404
    23  C    0.064694
    24  O   -0.412631
    25  H    0.219508
 Sum of Mulliken charges =   0.00000

 Dipole moment (field-independent basis, Debye):
    X=              0.9550    Y=             -4.7499    Z=              0.0008  Tot=              4.8449
 Quadrupole moment (field-independent basis, Debye-Ang):
   XX=            -82.6290   YY=            -94.0452   ZZ=           -104.2609
   XY=             -6.9044   XZ=              0.0008   YZ=              0.0025

  Exact polarizability:     349.675    -128.644     307.110      -0.003       0.003      63.228
 Approx polarizability:     272.973     -34.930     264.440      -0.002       0.001      82.152

 ******    1 imaginary frequencies (negative Signs) ******

                      1                      2                      3
                      A                      A                      A
 Frequencies --   -552.3906                34.1206                72.2107
 Red. masses --      1.4148                 6.2291                 4.9481
 Frc consts  --      0.2543                 0.0043                 0.0152
 IR Inten    --   1344.3193                 1.5158                 0.3712

                      4                      5                      6
                      A                      A                      A
 Frequencies --    119.9143               147.2796               183.6006
 Red. masses --      5.9167                 5.5699                 6.2878
 Frc consts  --      0.0501                 0.0712                 0.1249
 IR Inten    --      0.3886                 1.2828                 0.2382

                      7                      8                      9
                      A                      A                      A
 Frequencies --    218.0684               269.7313               283.7294
 Red. masses --      5.5010                 4.6419                 6.9992
 Frc consts  --      0.1541                 0.1990                 0.3320
 IR Inten    --      0.1150                 0.0905                12.9963

                     10                     11                     12
                      A                      A                      A
 Frequencies --    363.7108               397.4749               410.3215
 Red. masses --      5.0136                 6.4060                 7.2642
 Frc consts  --      0.3908                 0.5963                 0.7206
 IR Inten    --      0.6801                67.0220                40.6718

                     13                     14                     15
                      A                      A                      A
 Frequencies --    437.4691               465.8611               503.6234
 Red. masses --      3.2686                 4.6831                 3.1817
 Frc consts  --      0.3686                 0.5988                 0.4755
 IR Inten    --      4.0326                 1.2613                 0.4632

                     16                     17                     18
                      A                      A                      A
 Frequencies --    506.9422               545.1583               558.6010
 Red. masses --      8.8979                 8.6790                 3.8697
 Frc consts  --      1.3473                 1.5197                 0.7114
 IR Inten    --      2.9286                 2.1775                 0.3530

                     19                     20                     21
                      A                      A                      A
 Frequencies --    573.7832               588.2846               666.1395
 Red. masses --      7.5056                 6.5371                 6.4653
 Frc consts  --      1.4559                 1.3329                 1.6903
 IR Inten    --     35.0524                12.8891                14.2644

                     22                     23                     24
                      A                      A                      A
 Frequencies --    697.0661               719.9346               742.6161
 Red. masses --      1.5694                 6.3318                 2.5833
 Frc consts  --      0.4493                 1.9336                 0.8394
 IR Inten    --     40.8908                 5.8249                15.1601

                     25                     26                     27
                      A                      A                      A
 Frequencies --    762.2452               766.3949               767.5107
 Red. masses --      1.7686                 5.5524                 1.6899
 Frc consts  --      0.6054                 1.9215                 0.5865
 IR Inten    --      3.4895                62.1336                87.7549

                     28                     29                     30
                      A                      A                      A
 Frequencies --    824.4468               827.4671               868.1242
 Red. masses --      1.7545                 6.2323                 1.3856
 Frc consts  --      0.7026                 2.5142                 0.6153
 IR Inten    --      0.0385                20.0446                 0.9560

                     31                     32                     33
                      A                      A                      A
 Frequencies --    904.4087               929.8239               955.0602
 Red. masses --      1.3947                 5.9253                 1.3730
 Frc consts  --      0.6722                 3.0183                 0.7379
 IR Inten    --      5.5019                52.6799                 0.5018

                     34                     35                     36
                      A                      A                      A
 Frequencies --    956.6262              1003.2213              1020.4498
 Red. masses --      1.3505                 1.2971                 5.7370
 Frc consts  --      0.7282                 0.7691                 3.5198
 IR Inten    --      1.8480                 0.0004               164.6014

                     37                     38                     39
                      A                      A                      A
 Frequencies --   1046.2043              1050.8108              1100.3925
 Red. masses --      2.0810                 2.0664                 3.6299
 Frc consts  --      1.3420                 1.3443                 2.5896
 IR Inten    --      3.0776                 2.5037               102.7474

                     40                     41                     42
                      A                      A                      A
 Frequencies --   1130.2936              1154.7643              1161.6353
 Red. masses --      1.4888                 1.3554                 1.0545
 Frc consts  --      1.1206                 1.0649                 0.8384
 IR Inten    --      3.2591                 9.6892                70.3829

                     43                     44                     45
                      A                      A                      A
 Frequencies --   1169.0585              1179.8197              1256.8681
 Red. masses --      1.2031                 1.1788                 1.8289
 Frc consts  --      0.9688                 0.9668                 1.7023
 IR Inten    --     84.5147                10.3602                79.5819

                     46                     47                     48
                      A                      A                      A
 Frequencies --   1268.6600              1305.4434              1340.7957
 Red. masses --      2.4166                 2.3306                 4.5127
 Frc consts  --      2.2916                 2.3401                 4.7798
 IR Inten    --     36.4548                12.7068                24.2293

                     49                     50                     51
                      A                      A                      A
 Frequencies --   1355.2777              1383.7638              1405.3309
 Red. masses --      6.3264                 2.8602                 2.4085
 Frc consts  --      6.8465                 3.2268                 2.8026
 IR Inten    --    206.6210                81.5602                21.5936

                     52                     53                     54
                      A                      A                      A
 Frequencies --   1446.4376              1478.1124              1495.4152
 Red. masses --      2.8845                 3.4677                 3.9835
 Frc consts  --      3.5557                 4.4638                 5.2485
 IR Inten    --    548.8394                 3.1911               130.0254

                     55                     56                     57
                      A                      A                      A
 Frequencies --   1513.4609              1545.4484              1568.6547
 Red. masses --      3.9359                 5.0217                 4.5064
 Frc consts  --      5.3117                 7.0665                 6.5334
 IR Inten    --    127.1037                61.2590                40.7115

                     58                     59                     60
                      A                      A                      A
 Frequencies --   1622.5392              1628.4946              1659.5032
 Red. masses --      5.8645                 5.7671                 6.4985
 Frc consts  --      9.0964                 9.0112                10.5444
 IR Inten    --     38.9347               608.2218               104.7446

                     61                     62                     63
                      A                      A                      A
 Frequencies --   2047.0274              3203.6357              3210.3234
 Red. masses --      1.1114                 1.0876                 1.0860
 Frc consts  --      2.7439                 6.5766                 6.5947
 IR Inten    --    703.9585                22.6980                 4.3742

                     64                     65                     66
                      A                      A                      A
 Frequencies --   3217.1997              3219.9084              3226.8730
 Red. masses --      1.0877                 1.0904                 1.0932
 Frc consts  --      6.6332                 6.6605                 6.7065
 IR Inten    --      3.8840                 3.1969                17.4101

                     67                     68                     69
                      A                      A                      A
 Frequencies --   3230.6813              3237.4251              3238.9927
 Red. masses --      1.0955                 1.0994                 1.0985
 Frc consts  --      6.7366                 6.7893                 6.7903
 IR Inten    --      8.7493                20.4668                17.4822

 - Thermochemistry -
 -------------------
 Temperature   298.150 Kelvin.  Pressure   1.00000 Atm.
 Atom     1 has atomic number  6 and mass  12.00000

 Molecular mass:   227.04049 amu.
 Principal axes and moments of inertia in atomic units:
                           1         2         3
     Eigenvalues --  1301.051256337.298267638.34948
           X           -0.70201   0.71217   0.00001
           Y            0.71217   0.70201   0.00001
           Z            0.00000  -0.00002   1.00000
 This molecule is an asymmetric top.
 Rotational symmetry number  1.
 Warning -- assumption of classical behavior for rotation
           may cause significant error
 Rotational temperatures (Kelvin)      0.06657     0.01367     0.01134
 Rotational constants (GHZ):           1.38714     0.28478     0.23627
    1 imaginary frequencies ignored.
 Zero-point vibrational energy     479646.7 (Joules/Mol)
                                  114.63832 (Kcal/Mol)
 Warning -- explicit consideration of  19 degrees of freedom as
           vibrations may cause significant error
 Vibrational temperatures:     49.09   103.90   172.53   211.90   264.16
          (Kelvin)            313.75   388.08   408.22   523.30   571.88
                              590.36   629.42   670.27   724.60   729.38
                              784.36   803.70   825.55   846.41   958.43
                             1002.92  1035.83  1068.46  1096.70  1102.67
                             1104.28  1186.20  1190.54  1249.04  1301.24
                             1337.81  1374.12  1376.37  1443.41  1468.20
                             1505.25  1511.88  1583.22  1626.24  1661.45
                             1671.33  1682.01  1697.50  1808.35  1825.32
                             1878.24  1929.11  1949.94  1990.93  2021.96
                             2081.10  2126.67  2151.57  2177.53  2223.56
                             2256.94  2334.47  2343.04  2387.65  2945.22
                             4609.32  4618.94  4628.83  4632.73  4642.75
                             4648.23  4657.93  4660.19

 Zero-point correction=                           0.182688 (Hartree/Particle)
 Thermal correction to Energy=                    0.194650
 Thermal correction to Enthalpy=                  0.195595
 Thermal correction to Gibbs Free Energy=         0.143672
 Sum of electronic and zero-point Energies=          -1028.510361
 Sum of electronic and thermal Energies=             -1028.498399
 Sum of electronic and thermal Enthalpies=           -1028.497454
 Sum of electronic and thermal Free Energies=        -1028.549377

                     E (Thermal)             CV                S
                      KCal/Mol        Cal/Mol-Kelvin    Cal/Mol-Kelvin
 Total                  122.145             48.278            109.281
 Electronic               0.000              0.000              0.000
 Translational            0.889              2.981             42.162
 Rotational               0.889              2.981             32.510
 Vibrational            120.368             42.316             34.609
 Vibration     1          0.594              1.983              5.574
 Vibration     2          0.598              1.967              4.092
 Vibration     3          0.609              1.933              3.102
 Vibration     4          0.617              1.906              2.707
 Vibration     5          0.631              1.862              2.291
 Vibration     6          0.646              1.814              1.975
 Vibration     7          0.674              1.729              1.598
 Vibration     8          0.682              1.704              1.511
 Vibration     9          0.737              1.547              1.106
 Vibration    10          0.764              1.476              0.972
 Vibration    11          0.774              1.448              0.925
 Vibration    12          0.798              1.389              0.835
 Vibration    13          0.823              1.326              0.749
 Vibration    14          0.859              1.242              0.649
 Vibration    15          0.862              1.235              0.641
 Vibration    16          0.900              1.150              0.554
 Vibration    17          0.914              1.121              0.527
 Vibration    18          0.930              1.088              0.497
 Vibration    19          0.945              1.057              0.470

 Optimization completed.
    -- Stationary point found.
 Normal termination of Gaussian 16 at Mon Jul 13 15:34:44 2020.
