 Gaussian 16, Revision C.01,
 Gaussian 16:  ES64L-G16RevC.01  3-Jul-2019

 ----------------------------------------------------------------------
 #p opt=addgic freq td wb97xd/cc-pvdz nosymm int=ultrafine scrf=(solven
 t=CarbonTetraChloride)
 ----------------------------------------------------------------------

 ------------------------------------------------
 NM 2D-scan of HBT TD-WB97XD pVDZ in CTC Relaxed.
 ------------------------------------------------
 Symbolic Z-matrix:
 Charge =  0 Multiplicity = 1

 SCF Done:  E(RwB97XD) =  -1028.81057271     A.U. after   15 cycles
 Total Energy, E(TD-HF/TD-DFT) =  -1028.69311627
 SCF Done:  E(RwB97XD) =  -1028.81021065     A.U. after   11 cycles
 Total Energy, E(TD-HF/TD-DFT) =  -1028.69326616
 SCF Done:  E(RwB97XD) =  -1028.80975389     A.U. after   11 cycles
 Total Energy, E(TD-HF/TD-DFT) =  -1028.69335561
 SCF Done:  E(RwB97XD) =  -1028.80927133     A.U. after   11 cycles
 Total Energy, E(TD-HF/TD-DFT) =  -1028.69340469
 SCF Done:  E(RwB97XD) =  -1028.80917144     A.U. after   10 cycles
 Total Energy, E(TD-HF/TD-DFT) =  -1028.69340971
 Optimization completed.
    -- Stationary point found.
 Normal termination of Gaussian 16 at Mon Jul 13 15:28:25 2020.

 ----------------------------------------------------------------------
 #P Geom=AllCheck Guess=TCheck SCRF=Check GenChk RwB97XD TD(FC,Read)/CC
 -pVDZ Freq
 ----------------------------------------------------------------------

 Structure from the checkpoint file:  "config_7_8.chk"
 ------------------------------------------------
 NM 2D-scan of HBT TD-WB97XD pVDZ in CTC Relaxed.
 ------------------------------------------------
 Charge =  0 Multiplicity = 1

                          Input orientation:
 ---------------------------------------------------------------------
 Center     Atomic      Atomic             Coordinates (Angstroms)
 Number     Number       Type             X           Y           Z
 ---------------------------------------------------------------------
      1          6           0        1.663719   -3.270785   -0.000025
      2          6           0        0.996965   -2.047349   -0.000016
      3          6           0        1.713003   -0.815956   -0.000013
      4          6           0        3.120353   -0.831769   -0.000020
      5          6           0        3.772639   -2.054083   -0.000029
      6          6           0        3.058657   -3.264867   -0.000032
      7          1           0        1.109606   -4.210271   -0.000028
      8          1           0        3.670101    0.109920   -0.000017
      9          1           0        4.863750   -2.076668   -0.000034
     10          1           0        3.599538   -4.212040   -0.000039
     11          7           0        0.921831    0.286663   -0.000005
     12         16           0       -0.735190   -1.745827   -0.000008
     13          6           0       -1.374293    1.033506    0.000013
     14          6           0       -2.760853    0.827871    0.000008
     15          6           0       -0.880201    2.432963    0.000035
     16          6           0       -3.648344    1.915019    0.000021
     17          1           0       -3.158434   -0.189107   -0.000009
     18          6           0       -1.814984    3.494526    0.000048
     19          6           0       -3.184032    3.242020    0.000042
     20          1           0       -4.721797    1.719404    0.000016
     21          1           0       -1.411628    4.507833    0.000065
     22          1           0       -3.894610    4.068910    0.000053
     23          6           0       -0.405759   -0.005263   -0.000000
     24          8           0        0.382748    2.679764    0.000047
     25          1           0        0.970175    1.489157    0.000020
 ---------------------------------------------------------------------

 SCF Done:  E(RwB97XD) =  -1028.80917144     A.U. after    1 cycles

 Excitation energies and oscillator strengths:

 Excited state symmetry could not be determined.
 Excited State   1:      Singlet-?Sym    3.1500 eV  393.60 nm  f=0.4714  <S**2>=0.000
      59 -> 60         0.69436
 This state for optimization and/or second-order correction.
 Total Energy, E(TD-HF/TD-DFT) =  -1028.69340969
 Copying the excited state density for this state as the 1-particle RhoCI density.

 Excited state symmetry could not be determined.
 Excited State   2:      Singlet-?Sym    4.3521 eV  284.89 nm  f=0.3747  <S**2>=0.000
      57 -> 60        -0.10100
      58 -> 60         0.67284

 Excited state symmetry could not be determined.
 Excited State   3:      Singlet-?Sym    4.3821 eV  282.93 nm  f=0.0000  <S**2>=0.000
      56 -> 60         0.68722
      56 -> 62         0.10046
      56 -> 64        -0.11047

 Alpha  occ. eigenvalues --  -89.10046 -19.23710 -14.50099 -10.41132 -10.36845
 Alpha  occ. eigenvalues --  -10.36615 -10.35779 -10.32947 -10.32291 -10.32050
 Alpha  occ. eigenvalues --  -10.31988 -10.31875 -10.31579 -10.31327 -10.29686
 Alpha  occ. eigenvalues --  -10.29146  -8.12002  -6.06866  -6.06512  -6.06036
 Alpha  occ. eigenvalues --   -1.12972  -1.09822  -0.97540  -0.95323  -0.92757
 Alpha  occ. eigenvalues --   -0.88997  -0.85908  -0.83803  -0.81955  -0.75882
 Alpha  occ. eigenvalues --   -0.71621  -0.71239  -0.68531  -0.67885  -0.63883
 Alpha  occ. eigenvalues --   -0.60887  -0.59367  -0.57425  -0.55306  -0.54958
 Alpha  occ. eigenvalues --   -0.54406  -0.53506  -0.52789  -0.50934  -0.49917
 Alpha  occ. eigenvalues --   -0.49273  -0.47587  -0.46506  -0.45384  -0.45104
 Alpha  occ. eigenvalues --   -0.44102  -0.43153  -0.41942  -0.40725  -0.36639
 Alpha  occ. eigenvalues --   -0.34296  -0.33006  -0.31247  -0.27045
 Alpha virt. eigenvalues --   -0.01876   0.04281   0.06366   0.06659   0.08372
 Alpha virt. eigenvalues --    0.10578   0.13552   0.14864   0.16202   0.17680
 Alpha virt. eigenvalues --    0.18813   0.20632   0.21326   0.21845   0.22783

 Mulliken charges:
               1
     1  C    0.015666
     2  C   -0.232907
     3  C    0.270092
     4  C   -0.013945
     5  C    0.010503
     6  C   -0.001951
     7  H    0.023156
     8  H    0.026765
     9  H    0.023977
    10  H    0.024232
    11  N   -0.266803
    12  S    0.187838
    13  C   -0.112238
    14  C   -0.022871
    15  C    0.126109
    16  C   -0.028803
    17  H    0.008487
    18  C   -0.010211
    19  C    0.029761
    20  H    0.005429
    21  H    0.008651
    22  H    0.018052
    23  C    0.069068
    24  O   -0.381961
    25  H    0.223906
 Sum of Mulliken charges =  -0.00000

 Dipole moment (field-independent basis, Debye):
    X=              0.7560    Y=             -4.1917    Z=             -0.0001  Tot=              4.2593
 Quadrupole moment (field-independent basis, Debye-Ang):
   XX=            -83.0165   YY=            -92.6318   ZZ=           -104.2911
   XY=             -6.9076   XZ=             -0.0001   YZ=              0.0000

  Exact polarizability:     355.937    -135.289     314.271      -0.002       0.003      63.295
 Approx polarizability:     274.181     -35.323     264.041      -0.001       0.002      82.253

 ******    1 imaginary frequencies (negative Signs) ******

                      1                      2                      3
                      A                      A                      A
 Frequencies --   -959.7449                39.8150                64.4221
 Red. masses --      1.1210                 6.0293                 6.1887
 Frc consts  --      0.6084                 0.0056                 0.0151
 IR Inten    --   2016.1433                 1.3922                 0.4417

                      4                      5                      6
                      A                      A                      A
 Frequencies --    115.3584               137.8212               180.2626
 Red. masses --      5.2032                 5.6914                 6.0257
 Frc consts  --      0.0408                 0.0637                 0.1154
 IR Inten    --      0.0413                 0.9420                 0.3838

                      7                      8                      9
                      A                      A                      A
 Frequencies --    219.2710               269.8853               276.9768
 Red. masses --      5.4142                 4.7019                 7.3065
 Frc consts  --      0.1534                 0.2018                 0.3303
 IR Inten    --      0.1079                 0.1574                 9.5979

                     10                     11                     12
                      A                      A                      A
 Frequencies --    367.9001               378.4645               405.9124
 Red. masses --      5.0324                 6.3736                10.7946
 Frc consts  --      0.4013                 0.5379                 1.0479
 IR Inten    --      0.5877                18.3560                 3.4029

                     13                     14                     15
                      A                      A                      A
 Frequencies --    437.6930               470.5695               499.4677
 Red. masses --      3.2515                 4.7897                 3.1640
 Frc consts  --      0.3670                 0.6249                 0.4650
 IR Inten    --      4.7060                 0.5166                 0.5016

                     16                     17                     18
                      A                      A                      A
 Frequencies --    506.0983               544.4464               557.7706
 Red. masses --      8.8830                 8.5774                 3.8720
 Frc consts  --      1.3405                 1.4980                 0.7097
 IR Inten    --      2.2110                 0.5882                 0.3526

                     19                     20                     21
                      A                      A                      A
 Frequencies --    578.2148               593.8018               660.1898
 Red. masses --      7.6444                 6.9325                 6.7297
 Frc consts  --      1.5058                 1.4402                 1.7282
 IR Inten    --     25.8460                 5.6286                58.8659

                     22                     23                     24
                      A                      A                      A
 Frequencies --    695.6105               714.2797               742.0806
 Red. masses --      1.6005                 6.3968                 2.4650
 Frc consts  --      0.4563                 1.9229                 0.7998
 IR Inten    --     40.0803                 8.2999                15.2754

                     25                     26                     27
                      A                      A                      A
 Frequencies --    758.0219               764.6735               768.5968
 Red. masses --      7.5750                 1.8540                 1.7223
 Frc consts  --      2.5645                 0.6387                 0.5995
 IR Inten    --     33.4687                 4.1653                87.0292

                     28                     29                     30
                      A                      A                      A
 Frequencies --    823.3237               826.8013               866.5124
 Red. masses --      6.2437                 1.6524                 1.3905
 Frc consts  --      2.4936                 0.6655                 0.6151
 IR Inten    --     16.1980                 0.0259                 0.9628

                     31                     32                     33
                      A                      A                      A
 Frequencies --    906.9847               922.8664               956.0448
 Red. masses --      1.3862                 6.5937                 1.3769
 Frc consts  --      0.6718                 3.3087                 0.7415
 IR Inten    --      5.5810                34.3065                 1.1682

                     34                     35                     36
                      A                      A                      A
 Frequencies --    956.5192              1000.4207              1002.7510
 Red. masses --      1.3478                 7.1795                 1.2944
 Frc consts  --      0.7265                 4.2336                 0.7669
 IR Inten    --      1.2641                78.4144                 0.0001

                     37                     38                     39
                      A                      A                      A
 Frequencies --   1043.3601              1049.9847              1090.5512
 Red. masses --      2.1283                 2.0818                 4.2235
 Frc consts  --      1.3651                 1.3522                 2.9595
 IR Inten    --      0.9524                 2.6086                70.4682

                     40                     41                     42
                      A                      A                      A
 Frequencies --   1128.7029              1152.2887              1168.7136
 Red. masses --      1.4627                 1.3344                 1.1826
 Frc consts  --      1.0979                 1.0439                 0.9517
 IR Inten    --     15.2415                11.1204               109.5347

                     43                     44                     45
                      A                      A                      A
 Frequencies --   1179.9533              1216.1777              1256.5894
 Red. masses --      1.1604                 1.0529                 1.7908
 Frc consts  --      0.9519                 0.9175                 1.6660
 IR Inten    --     16.5641                66.3523                85.3759

                     46                     47                     48
                      A                      A                      A
 Frequencies --   1267.8255              1302.7408              1347.2049
 Red. masses --      2.5532                 2.2933                 4.5113
 Frc consts  --      2.4180                 2.2931                 4.8242
 IR Inten    --     29.1910                15.6078               117.1171

                     49                     50                     51
                      A                      A                      A
 Frequencies --   1362.6387              1388.7309              1406.2099
 Red. masses --      6.3457                 2.6139                 2.2856
 Frc consts  --      6.9421                 2.9701                 2.6629
 IR Inten    --    203.6219                 7.0814                 8.9611

                     52                     53                     54
                      A                      A                      A
 Frequencies --   1446.9111              1479.1665              1499.6183
 Red. masses --      2.9389                 3.7834                 4.0951
 Frc consts  --      3.6251                 4.8771                 5.4259
 IR Inten    --    546.2197                62.5844               196.8067

                     55                     56                     57
                      A                      A                      A
 Frequencies --   1521.3769              1542.5970              1567.1215
 Red. masses --      4.6271                 4.7876                 4.3815
 Frc consts  --      6.3101                 6.7123                 6.3398
 IR Inten    --    116.6344                70.6802               114.2307

                     58                     59                     60
                      A                      A                      A
 Frequencies --   1624.2983              1636.4338              1659.2929
 Red. masses --      5.9761                 5.8271                 6.4784
 Frc consts  --      9.2896                 9.1939                10.5091
 IR Inten    --     14.2698               791.9392               103.8382

                     61                     62                     63
                      A                      A                      A
 Frequencies --   1924.5598              3202.4085              3209.7855
 Red. masses --      1.1106                 1.0880                 1.0863
 Frc consts  --      2.4236                 6.5740                 6.5941
 IR Inten    --    317.9918                18.7233                 6.4851

                     64                     65                     66
                      A                      A                      A
 Frequencies --   3216.4405              3220.5913              3226.2455
 Red. masses --      1.0875                 1.0903                 1.0930
 Frc consts  --      6.6286                 6.6629                 6.7030
 IR Inten    --      2.6514                 3.4013                16.5494

                     67                     68                     69
                      A                      A                      A
 Frequencies --   3231.9401              3237.9525              3238.3373
 Red. masses --      1.0954                 1.0988                 1.0992
 Frc consts  --      6.7412                 6.7874                 6.7917
 IR Inten    --      9.6909                35.4114                 2.5347

 - Thermochemistry -
 -------------------
 Temperature   298.150 Kelvin.  Pressure   1.00000 Atm.
 Atom     1 has atomic number  6 and mass  12.00000

 Molecular mass:   227.04049 amu.
 Principal axes and moments of inertia in atomic units:
                           1         2         3
     Eigenvalues --  1313.162346324.686717637.84905
           X           -0.70264   0.71154   0.00000
           Y            0.71154   0.70264  -0.00001
           Z            0.00001   0.00001   1.00000
 This molecule is an asymmetric top.
 Rotational symmetry number  1.
 Warning -- assumption of classical behavior for rotation
           may cause significant error
 Rotational temperatures (Kelvin)      0.06596     0.01369     0.01134
 Rotational constants (GHZ):           1.37435     0.28535     0.23629
    1 imaginary frequencies ignored.
 Zero-point vibrational energy     478844.7 (Joules/Mol)
                                  114.44662 (Kcal/Mol)
 Warning -- explicit consideration of  19 degrees of freedom as
           vibrations may cause significant error
 Vibrational temperatures:     57.28    92.69   165.98   198.29   259.36
          (Kelvin)            315.48   388.30   398.51   529.33   544.53
                              584.02   629.74   677.04   718.62   728.16
                              783.34   802.51   831.92   854.35   949.87
                             1000.83  1027.69  1067.69  1090.62  1100.19
                             1105.84  1184.58  1189.58  1246.72  1304.95
                             1327.80  1375.54  1376.22  1439.38  1442.74
                             1501.16  1510.69  1569.06  1623.95  1657.89
                             1681.52  1697.69  1749.81  1807.95  1824.12
                             1874.35  1938.33  1960.53  1998.07  2023.22
                             2081.78  2128.19  2157.62  2188.92  2219.45
                             2254.74  2337.00  2354.46  2387.35  2769.01
                             4607.55  4618.17  4627.74  4633.71  4641.85
                             4650.04  4658.69  4659.25

 Zero-point correction=                           0.182382 (Hartree/Particle)
 Thermal correction to Energy=                    0.194409
 Thermal correction to Enthalpy=                  0.195353
 Thermal correction to Gibbs Free Energy=         0.143300
 Sum of electronic and zero-point Energies=          -1028.511027
 Sum of electronic and thermal Energies=             -1028.499001
 Sum of electronic and thermal Enthalpies=           -1028.498057
 Sum of electronic and thermal Free Energies=        -1028.550110

                     E (Thermal)             CV                S
                      KCal/Mol        Cal/Mol-Kelvin    Cal/Mol-Kelvin
 Total                  121.993             48.373            109.555
 Electronic               0.000              0.000              0.000
 Translational            0.889              2.981             42.162
 Rotational               0.889              2.981             32.517
 Vibrational            120.216             42.411             34.875
 Vibration     1          0.594              1.981              5.268
 Vibration     2          0.597              1.971              4.317
 Vibration     3          0.608              1.937              3.177
 Vibration     4          0.614              1.916              2.834
 Vibration     5          0.629              1.866              2.326
 Vibration     6          0.647              1.812              1.965
 Vibration     7          0.674              1.729              1.597
 Vibration     8          0.678              1.716              1.552
 Vibration     9          0.741              1.538              1.089
 Vibration    10          0.749              1.516              1.045
 Vibration    11          0.771              1.457              0.941
 Vibration    12          0.798              1.388              0.834
 Vibration    13          0.828              1.315              0.736
 Vibration    14          0.855              1.251              0.659
 Vibration    15          0.861              1.236              0.643
 Vibration    16          0.900              1.152              0.556
 Vibration    17          0.913              1.123              0.528
 Vibration    18          0.935              1.078              0.489
 Vibration    19          0.951              1.045              0.460

                           ! Non-Optimized Parameters !
 Normal termination of Gaussian 16 at Mon Jul 13 15:46:58 2020.
