 Gaussian 16, Revision C.01,
 Gaussian 16:  ES64L-G16RevC.01  3-Jul-2019

 ----------------------------------------------------------------------
 #p opt=addgic freq td wb97xd/cc-pvdz nosymm int=ultrafine scrf=(solven
 t=CarbonTetraChloride)
 ----------------------------------------------------------------------

 ------------------------------------------------
 NM 2D-scan of HBT TD-WB97XD pVDZ in CTC Relaxed.
 ------------------------------------------------
 Symbolic Z-matrix:
 Charge =  0 Multiplicity = 1

 SCF Done:  E(RwB97XD) =  -1028.81781033     A.U. after   15 cycles
 Total Energy, E(TD-HF/TD-DFT) =  -1028.68940127
 SCF Done:  E(RwB97XD) =  -1028.81841304     A.U. after   12 cycles
 Total Energy, E(TD-HF/TD-DFT) =  -1028.69051781
 SCF Done:  E(RwB97XD) =  -1028.81825626     A.U. after   12 cycles
 Total Energy, E(TD-HF/TD-DFT) =  -1028.69062450
 SCF Done:  E(RwB97XD) =  -1028.81795307     A.U. after   11 cycles
 Total Energy, E(TD-HF/TD-DFT) =  -1028.69078362
 SCF Done:  E(RwB97XD) =  -1028.81808797     A.U. after   10 cycles
 Total Energy, E(TD-HF/TD-DFT) =  -1028.69079333
 SCF Done:  E(RwB97XD) =  -1028.81811213     A.U. after    8 cycles
 Total Energy, E(TD-HF/TD-DFT) =  -1028.69079356
 SCF Done:  E(RwB97XD) =  -1028.81813857     A.U. after    8 cycles
 Total Energy, E(TD-HF/TD-DFT) =  -1028.69079330
 SCF Done:  E(RwB97XD) =  -1028.81811763     A.U. after    8 cycles
 Total Energy, E(TD-HF/TD-DFT) =  -1028.69079381
 Optimization completed.
    -- Stationary point found.
 Normal termination of Gaussian 16 at Mon Jul 13 14:18:36 2020.

 ----------------------------------------------------------------------
 #P Geom=AllCheck Guess=TCheck SCRF=Check GenChk RwB97XD TD(FC,Read)/CC
 -pVDZ Freq
 ----------------------------------------------------------------------

 Structure from the checkpoint file:  "config_4_15.chk"
 ------------------------------------------------
 NM 2D-scan of HBT TD-WB97XD pVDZ in CTC Relaxed.
 ------------------------------------------------
 Charge =  0 Multiplicity = 1

                          Input orientation:
 ---------------------------------------------------------------------
 Center     Atomic      Atomic             Coordinates (Angstroms)
 Number     Number       Type             X           Y           Z
 ---------------------------------------------------------------------
      1          6           0        1.562740   -3.260833   -0.000043
      2          6           0        0.992938   -1.992863   -0.000031
      3          6           0        1.768286   -0.789838   -0.000010
      4          6           0        3.180789   -0.923498   -0.000003
      5          6           0        3.739370   -2.192964   -0.000014
      6          6           0        2.949178   -3.359682   -0.000034
      7          1           0        0.932508   -4.150997   -0.000058
      8          1           0        3.808177   -0.031486    0.000013
      9          1           0        4.826584   -2.291564   -0.000008
     10          1           0        3.425519   -4.340859   -0.000041
     11          7           0        1.031634    0.347057    0.000002
     12         16           0       -0.707916   -1.628455   -0.000037
     13          6           0       -1.315463    1.063387    0.000022
     14          6           0       -2.694121    0.751653    0.000043
     15          6           0       -0.917504    2.474500    0.000026
     16          6           0       -3.644613    1.764946    0.000045
     17          1           0       -3.011381   -0.292003    0.000055
     18          6           0       -1.908891    3.474801    0.000025
     19          6           0       -3.259889    3.123860    0.000032
     20          1           0       -4.704402    1.505259    0.000057
     21          1           0       -1.588610    4.517144    0.000021
     22          1           0       -4.023445    3.902345    0.000029
     23          6           0       -0.306356    0.083561   -0.000004
     24          8           0        0.356989    2.755794    0.000024
     25          1           0        0.900753    1.839917    0.000000
 ---------------------------------------------------------------------

 SCF Done:  E(RwB97XD) =  -1028.81811763     A.U. after    1 cycles

 Excitation energies and oscillator strengths:

 Excited state symmetry could not be determined.
 Excited State   1:      Singlet-?Sym    3.4647 eV  357.85 nm  f=0.6291  <S**2>=0.000
      59 -> 60         0.68973
 This state for optimization and/or second-order correction.
 Total Energy, E(TD-HF/TD-DFT) =  -1028.69079380
 Copying the excited state density for this state as the 1-particle RhoCI density.

 Excited state symmetry could not be determined.
 Excited State   2:      Singlet-?Sym    4.3870 eV  282.62 nm  f=0.2155  <S**2>=0.000
      57 -> 60         0.22965
      58 -> 60         0.62544
      59 -> 62         0.10939
      59 -> 63         0.10604

 Excited state symmetry could not be determined.
 Excited State   3:      Singlet-?Sym    4.6470 eV  266.80 nm  f=0.0861  <S**2>=0.000
      57 -> 60         0.57815
      57 -> 62        -0.14333
      58 -> 60        -0.22854
      58 -> 61        -0.13473
      59 -> 61         0.21109

 Alpha  occ. eigenvalues --  -89.08920 -19.27549 -14.47690 -10.39799 -10.37914
 Alpha  occ. eigenvalues --  -10.35497 -10.34710 -10.32237 -10.32152 -10.32050
 Alpha  occ. eigenvalues --  -10.31999 -10.31733 -10.31478 -10.31434 -10.30402
 Alpha  occ. eigenvalues --  -10.30377  -8.10983  -6.05819  -6.05478  -6.05044
 Alpha  occ. eigenvalues --   -1.16360  -1.08512  -0.96847  -0.95860  -0.92239
 Alpha  occ. eigenvalues --   -0.88833  -0.85167  -0.84368  -0.82389  -0.75926
 Alpha  occ. eigenvalues --   -0.71263  -0.70414  -0.69124  -0.68032  -0.63626
 Alpha  occ. eigenvalues --   -0.60584  -0.58980  -0.58662  -0.55877  -0.54434
 Alpha  occ. eigenvalues --   -0.54065  -0.53340  -0.53039  -0.50727  -0.50286
 Alpha  occ. eigenvalues --   -0.49467  -0.47232  -0.46029  -0.45677  -0.44833
 Alpha  occ. eigenvalues --   -0.44146  -0.42834  -0.42414  -0.40188  -0.36995
 Alpha  occ. eigenvalues --   -0.36482  -0.32147  -0.31431  -0.28093
 Alpha virt. eigenvalues --   -0.01752   0.05007   0.06824   0.07322   0.07695
 Alpha virt. eigenvalues --    0.10988   0.14457   0.15173   0.16849   0.18019
 Alpha virt. eigenvalues --    0.18627   0.21161   0.21596   0.22398   0.22566

 Mulliken charges:
               1
     1  C    0.020599
     2  C   -0.222384
     3  C    0.232465
     4  C   -0.020470
     5  C    0.005373
     6  C   -0.003182
     7  H    0.017684
     8  H    0.019530
     9  H    0.019854
    10  H    0.020775
    11  N   -0.364717
    12  S    0.164266
    13  C   -0.083283
    14  C   -0.026605
    15  C    0.100708
    16  C   -0.014138
    17  H    0.019812
    18  C   -0.002622
    19  C    0.024177
    20  H    0.010212
    21  H    0.017864
    22  H    0.022730
    23  C    0.085243
    24  O   -0.241185
    25  H    0.197293
 Sum of Mulliken charges =  -0.00000

 Dipole moment (field-independent basis, Debye):
    X=             -0.4329    Y=             -2.5376    Z=             -0.0000  Tot=              2.5743
 Quadrupole moment (field-independent basis, Debye-Ang):
   XX=            -83.1912   YY=            -89.9791   ZZ=           -104.2676
   XY=             -7.1047   XZ=             -0.0001   YZ=              0.0000

  Exact polarizability:     388.070    -177.731     364.743      -0.002       0.003      63.289
 Approx polarizability:     275.974     -35.360     258.840      -0.000       0.001      82.335

                      1                      2                      3
                      A                      A                      A
 Frequencies --     46.2408                52.9784                99.7927
 Red. masses --      5.4080                 6.5486                 5.4220
 Frc consts  --      0.0068                 0.0108                 0.0318
 IR Inten    --      1.1350                 0.4176                 0.9778

                      4                      5                      6
                      A                      A                      A
 Frequencies --    108.9439               176.2228               223.0942
 Red. masses --      5.1793                 6.2695                 5.3154
 Frc consts  --      0.0362                 0.1147                 0.1559
 IR Inten    --      0.0728                 1.2559                 0.0081

                      7                      8                      9
                      A                      A                      A
 Frequencies --    271.5912               273.2571               294.8444
 Red. masses --      7.5147                 4.8022                 5.9282
 Frc consts  --      0.3266                 0.2113                 0.3036
 IR Inten    --     28.7544                 0.0360                 6.7499

                     10                     11                     12
                      A                      A                      A
 Frequencies --    382.4782               411.6470               440.4706
 Red. masses --      4.6443                 9.5214                 3.2205
 Frc consts  --      0.4003                 0.9506                 0.3681
 IR Inten    --      0.0814                11.8311                 4.1017

                     13                     14                     15
                      A                      A                      A
 Frequencies --    483.5654               502.6257               503.2885
 Red. masses --      4.6754                 4.8306                 3.1650
 Frc consts  --      0.6441                 0.7190                 0.4723
 IR Inten    --      0.0320                10.7500                 0.0425

                     16                     17                     18
                      A                      A                      A
 Frequencies --    505.0586               533.3495               556.7428
 Red. masses --      7.7366                 7.7504                 3.9258
 Frc consts  --      1.1627                 1.2990                 0.7170
 IR Inten    --      1.8748                46.2921                 0.1443

                     19                     20                     21
                      A                      A                      A
 Frequencies --    576.7413               640.9893               712.0582
 Red. masses --      7.6436                 6.6581                 1.6322
 Frc consts  --      1.4980                 1.6118                 0.4876
 IR Inten    --     11.6769                34.7892                51.0118

                     22                     23                     24
                      A                      A                      A
 Frequencies --    717.4654               732.1955               739.8390
 Red. masses --      6.7977                 9.8371                 1.8155
 Frc consts  --      2.0616                 3.1072                 0.5855
 IR Inten    --      2.2810                35.1284                37.8760

                     25                     26                     27
                      A                      A                      A
 Frequencies --    748.3772               768.8269               809.9638
 Red. masses --      1.8666                 2.1722                 1.7669
 Frc consts  --      0.6159                 0.7565                 0.6830
 IR Inten    --     18.0471                49.4154                 1.3523

                     28                     29                     30
                      A                      A                      A
 Frequencies --    826.3420               861.2525               893.4416
 Red. masses --      6.1444                 1.4188                 6.4709
 Frc consts  --      2.4720                 0.6201                 3.0433
 IR Inten    --      9.2572                 1.0055                65.7595

                     31                     32                     33
                      A                      A                      A
 Frequencies --    911.7752               952.9208               962.7942
 Red. masses --      1.3537                 1.3463                 1.3689
 Frc consts  --      0.6630                 0.7203                 0.7476
 IR Inten    --      4.9503                 2.0174                 0.0605

                     34                     35                     36
                      A                      A                      A
 Frequencies --    976.5950               998.6159              1037.1969
 Red. masses --      7.3297                 1.3018                 2.0986
 Frc consts  --      4.1188                 0.7649                 1.3302
 IR Inten    --      6.2053                 0.0010                 2.0840

                     37                     38                     39
                      A                      A                      A
 Frequencies --   1044.9007              1086.4455              1117.7782
 Red. masses --      2.1201                 3.7495                 1.0554
 Frc consts  --      1.3638                 2.6076                 0.7769
 IR Inten    --      0.8349                78.2802                66.3903

                     40                     41                     42
                      A                      A                      A
 Frequencies --   1131.7067              1149.3721              1173.0612
 Red. masses --      1.5018                 1.3755                 1.1269
 Frc consts  --      1.1333                 1.0706                 0.9136
 IR Inten    --     61.9336                13.9535                12.4323

                     43                     44                     45
                      A                      A                      A
 Frequencies --   1176.4728              1236.2470              1249.7278
 Red. masses --      1.2336                 2.8348                 2.3573
 Frc consts  --      1.0060                 2.5526                 2.1692
 IR Inten    --     29.1537                70.5979                98.5079

                     46                     47                     48
                      A                      A                      A
 Frequencies --   1278.1264              1289.4696              1368.8666
 Red. masses --      2.4620                 2.2330                 4.6506
 Frc consts  --      2.3696                 2.1876                 5.1343
 IR Inten    --     42.7085                56.0326                64.4585

                     49                     50                     51
                      A                      A                      A
 Frequencies --   1372.5511              1401.4553              1439.8003
 Red. masses --      2.6333                 2.4814                 2.6014
 Frc consts  --      2.9229                 2.8714                 3.1773
 IR Inten    --    141.9082                 9.1094               159.1956

                     52                     53                     54
                      A                      A                      A
 Frequencies --   1467.7390              1491.4758              1536.7741
 Red. masses --      3.8810                 3.1087                 4.6407
 Frc consts  --      4.9260                 4.0744                 6.4574
 IR Inten    --     12.7381                92.5285               217.1940

                     55                     56                     57
                      A                      A                      A
 Frequencies --   1546.3316              1578.2865              1588.8817
 Red. masses --      4.1785                 7.3837                 4.2212
 Frc consts  --      5.8868                10.8366                 6.2787
 IR Inten    --     36.9139               265.6570               105.8049

                     58                     59                     60
                      A                      A                      A
 Frequencies --   1610.4498              1645.3584              1692.4482
 Red. masses --      5.9543                 6.0526                 1.4327
 Frc consts  --      9.0985                 9.6541                 2.4179
 IR Inten    --    692.4250               392.5475               375.8031

                     61                     62                     63
                      A                      A                      A
 Frequencies --   2015.0337              3205.4141              3211.8654
 Red. masses --      1.1660                 1.0862                 1.0862
 Frc consts  --      2.7894                 6.5754                 6.6020
 IR Inten    --    386.7831                 8.8218                 7.4474

                     64                     65                     66
                      A                      A                      A
 Frequencies --   3215.9908              3222.5960              3227.2963
 Red. masses --      1.0899                 1.0888                 1.0951
 Frc consts  --      6.6416                 6.6624                 6.7204
 IR Inten    --      2.2572                 7.6918                10.2583

                     67                     68                     69
                      A                      A                      A
 Frequencies --   3230.1988              3234.0719              3240.8353
 Red. masses --      1.0946                 1.0992                 1.0982
 Frc consts  --      6.7293                 6.7739                 6.7956
 IR Inten    --     13.0299                36.0713                24.7904

 - Thermochemistry -
 -------------------
 Temperature   298.150 Kelvin.  Pressure   1.00000 Atm.
 Atom     1 has atomic number  6 and mass  12.00000

 Molecular mass:   227.04049 amu.
 Principal axes and moments of inertia in atomic units:
                           1         2         3
     Eigenvalues --  1291.749916305.900147597.65005
           X           -0.70361   0.71059   0.00000
           Y            0.71059   0.70361  -0.00001
           Z            0.00001   0.00001   1.00000
 This molecule is an asymmetric top.
 Rotational symmetry number  1.
 Warning -- assumption of classical behavior for rotation
           may cause significant error
 Rotational temperatures (Kelvin)      0.06705     0.01374     0.01140
 Rotational constants (GHZ):           1.39713     0.28620     0.23754
 Zero-point vibrational energy     485747.3 (Joules/Mol)
                                  116.09640 (Kcal/Mol)
 Warning -- explicit consideration of  19 degrees of freedom as
           vibrations may cause significant error
 Vibrational temperatures:     66.53    76.22   143.58   156.75   253.55
          (Kelvin)            320.98   390.76   393.16   424.22   550.30
                              592.27   633.74   695.74   723.17   724.12
                              726.67   767.37   801.03   829.80   922.24
                             1024.49  1032.27  1053.47  1064.46  1076.75
                             1106.17  1165.36  1188.92  1239.15  1285.46
                             1311.84  1371.04  1385.25  1405.10  1436.79
                             1492.29  1503.38  1563.15  1608.23  1628.27
                             1653.69  1687.77  1692.68  1778.68  1798.08
                             1838.94  1855.26  1969.49  1974.79  2016.38
                             2071.55  2111.75  2145.90  2211.08  2224.83
                             2270.80  2286.05  2317.08  2367.30  2435.06
                             2899.18  4611.88  4621.16  4627.09  4636.60
                             4643.36  4647.54  4653.11  4662.84

 Zero-point correction=                           0.185011 (Hartree/Particle)
 Thermal correction to Energy=                    0.197310
 Thermal correction to Enthalpy=                  0.198254
 Thermal correction to Gibbs Free Energy=         0.145514
 Sum of electronic and zero-point Energies=          -1028.505782
 Sum of electronic and thermal Energies=             -1028.493484
 Sum of electronic and thermal Enthalpies=           -1028.492540
 Sum of electronic and thermal Free Energies=        -1028.545279

                     E (Thermal)             CV                S
                      KCal/Mol        Cal/Mol-Kelvin    Cal/Mol-Kelvin
 Total                  123.814             49.099            111.000
 Electronic               0.000              0.000              0.000
 Translational            0.889              2.981             42.162
 Rotational               0.889              2.981             32.493
 Vibrational            122.036             43.137             36.345
 Vibration     1          0.595              1.979              4.972
 Vibration     2          0.596              1.976              4.703
 Vibration     3          0.604              1.949              3.458
 Vibration     4          0.606              1.942              3.288
 Vibration     5          0.628              1.872              2.368
 Vibration     6          0.649              1.806              1.934
 Vibration     7          0.675              1.726              1.586
 Vibration     8          0.676              1.723              1.576
 Vibration     9          0.689              1.683              1.446
 Vibration    10          0.752              1.508              1.029
 Vibration    11          0.776              1.445              0.921
 Vibration    12          0.800              1.382              0.825
 Vibration    13          0.840              1.286              0.701
 Vibration    14          0.858              1.244              0.652
 Vibration    15          0.859              1.243              0.650
 Vibration    16          0.860              1.239              0.646
 Vibration    17          0.888              1.176              0.580
 Vibration    18          0.912              1.125              0.530
 Vibration    19          0.933              1.082              0.491

 Optimization completed.
    -- Stationary point found.
 Normal termination of Gaussian 16 at Mon Jul 13 14:36:26 2020.
