 Gaussian 16, Revision C.01,
 Gaussian 16:  ES64L-G16RevC.01  3-Jul-2019

 ----------------------------------------------------------------------
 #p opt=addgic freq td wb97xd/cc-pvdz nosymm int=ultrafine scrf=(solven
 t=CarbonTetraChloride)
 ----------------------------------------------------------------------

 ------------------------------------------------
 NM 2D-scan of HBT TD-WB97XD pVDZ in CTC Relaxed.
 ------------------------------------------------
 Symbolic Z-matrix:
 Charge =  0 Multiplicity = 1

 SCF Done:  E(RwB97XD) =  -1028.80315936     A.U. after   16 cycles
 Total Energy, E(TD-HF/TD-DFT) =  -1028.69147884
 SCF Done:  E(RwB97XD) =  -1028.79857815     A.U. after   14 cycles
 Total Energy, E(TD-HF/TD-DFT) =  -1028.69480200
 SCF Done:  E(RwB97XD) =  -1028.80504219     A.U. after   13 cycles
 Total Energy, E(TD-HF/TD-DFT) =  -1028.69788059
 SCF Done:  E(RwB97XD) =  -1028.80563610     A.U. after   11 cycles
 Total Energy, E(TD-HF/TD-DFT) =  -1028.69794218
 SCF Done:  E(RwB97XD) =  -1028.80567223     A.U. after    9 cycles
 Total Energy, E(TD-HF/TD-DFT) =  -1028.69794517
 SCF Done:  E(RwB97XD) =  -1028.80567785     A.U. after    9 cycles
 Total Energy, E(TD-HF/TD-DFT) =  -1028.69794522
 Optimization completed.
    -- Stationary point found.
 Normal termination of Gaussian 16 at Mon Jul 13 15:54:55 2020.

 ----------------------------------------------------------------------
 #P Geom=AllCheck Guess=TCheck SCRF=Check GenChk RwB97XD TD(FC,Read)/CC
 -pVDZ Freq
 ----------------------------------------------------------------------

 Structure from the checkpoint file:  "config_8_14.chk"
 ------------------------------------------------
 NM 2D-scan of HBT TD-WB97XD pVDZ in CTC Relaxed.
 ------------------------------------------------
 Charge =  0 Multiplicity = 1

                          Input orientation:
 ---------------------------------------------------------------------
 Center     Atomic      Atomic             Coordinates (Angstroms)
 Number     Number       Type             X           Y           Z
 ---------------------------------------------------------------------
      1          6           0        1.587622   -3.283877    0.000317
      2          6           0        0.992499   -2.024607    0.000110
      3          6           0        1.765582   -0.831570   -0.000184
      4          6           0        3.166911   -0.922719   -0.000317
      5          6           0        3.751994   -2.182216   -0.000099
      6          6           0        2.979012   -3.354389    0.000222
      7          1           0        0.978530   -4.188633    0.000526
      8          1           0        3.772214   -0.015892   -0.000573
      9          1           0        4.840373   -2.260455   -0.000189
     10          1           0        3.469914   -4.328262    0.000371
     11          7           0        1.003969    0.307443   -0.000374
     12         16           0       -0.719357   -1.653560    0.000062
     13          6           0       -1.329200    1.083484   -0.000104
     14          6           0       -2.694165    0.783328   -0.000245
     15          6           0       -0.909243    2.503666    0.000194
     16          6           0       -3.662107    1.804672   -0.000191
     17          1           0       -3.025874   -0.257543   -0.000447
     18          6           0       -1.926647    3.494151    0.000363
     19          6           0       -3.280177    3.150906    0.000109
     20          1           0       -4.718978    1.534476   -0.000338
     21          1           0       -1.597805    4.534438    0.000722
     22          1           0       -4.040411    3.932959    0.000218
     23          6           0       -0.335651    0.064981   -0.000155
     24          8           0        0.327302    2.819355    0.000875
     25          1           0        1.164987    1.380510   -0.000775
 ---------------------------------------------------------------------

 SCF Done:  E(RwB97XD) =  -1028.80567785     A.U. after    1 cycles

 Excitation energies and oscillator strengths:

 Excited state symmetry could not be determined.
 Excited State   1:      Singlet-?Sym    2.9316 eV  422.93 nm  f=0.4424  <S**2>=0.000
      59 -> 60         0.69646
 This state for optimization and/or second-order correction.
 Total Energy, E(TD-HF/TD-DFT) =  -1028.69794523
 Copying the excited state density for this state as the 1-particle RhoCI density.

 Excited state symmetry could not be determined.
 Excited State   2:      Singlet-?Sym    3.8003 eV  326.25 nm  f=0.0000  <S**2>=0.000
      57 -> 60         0.68402
      57 -> 62         0.11597
      57 -> 64         0.11674

 Excited state symmetry could not be determined.
 Excited State   3:      Singlet-?Sym    4.2976 eV  288.49 nm  f=0.3617  <S**2>=0.000
      58 -> 60         0.68143

 Alpha  occ. eigenvalues --  -89.10282 -19.21582 -14.52369 -10.41748 -10.37620
 Alpha  occ. eigenvalues --  -10.36204 -10.36033 -10.33282 -10.32853 -10.32448
 Alpha  occ. eigenvalues --  -10.32313 -10.31614 -10.31049 -10.30983 -10.29356
 Alpha  occ. eigenvalues --  -10.28582  -8.12291  -6.07159  -6.06798  -6.06312
 Alpha  occ. eigenvalues --   -1.12475  -1.09150  -0.98199  -0.95459  -0.93220
 Alpha  occ. eigenvalues --   -0.89090  -0.86598  -0.83701  -0.81498  -0.75890
 Alpha  occ. eigenvalues --   -0.72576  -0.72080  -0.68593  -0.67637  -0.64895
 Alpha  occ. eigenvalues --   -0.60997  -0.59625  -0.56812  -0.55666  -0.55351
 Alpha  occ. eigenvalues --   -0.54927  -0.53853  -0.53053  -0.50514  -0.49201
 Alpha  occ. eigenvalues --   -0.48808  -0.48358  -0.46865  -0.45408  -0.44960
 Alpha  occ. eigenvalues --   -0.44181  -0.43072  -0.42127  -0.40259  -0.36775
 Alpha  occ. eigenvalues --   -0.33506  -0.32272  -0.31363  -0.26208
 Alpha virt. eigenvalues --   -0.02025   0.03846   0.05737   0.06498   0.09060
 Alpha virt. eigenvalues --    0.10655   0.13729   0.14765   0.16283   0.17440
 Alpha virt. eigenvalues --    0.18518   0.20205   0.20714   0.21344   0.22660

 Mulliken charges:
               1
     1  C    0.019084
     2  C   -0.231381
     3  C    0.262152
     4  C   -0.011695
     5  C    0.010458
     6  C    0.001146
     7  H    0.025283
     8  H    0.030295
     9  H    0.026621
    10  H    0.026289
    11  N   -0.178556
    12  S    0.198411
    13  C   -0.091744
    14  C   -0.032350
    15  C    0.117594
    16  C   -0.031267
    17  H    0.011593
    18  C   -0.020405
    19  C    0.031843
    20  H    0.002668
    21  H    0.003676
    22  H    0.015631
    23  C    0.057060
    24  O   -0.417316
    25  H    0.174911
 Sum of Mulliken charges =   0.00000

 Dipole moment (field-independent basis, Debye):
    X=              1.5067    Y=             -5.4558    Z=             -0.0025  Tot=              5.6601
 Quadrupole moment (field-independent basis, Debye-Ang):
   XX=            -82.1990   YY=            -95.6771   ZZ=           -104.2370
   XY=             -6.7129   XZ=             -0.0028   YZ=             -0.0069

  Exact polarizability:     347.531    -123.720     301.317       0.003       0.000      63.218
 Approx polarizability:     272.710     -35.457     265.212       0.003       0.004      82.050

                      1                      2                      3
                      A                      A                      A
 Frequencies --     33.3772                57.6882               110.9365
 Red. masses --      6.4117                 4.9180                 5.7295
 Frc consts  --      0.0042                 0.0096                 0.0415
 IR Inten    --      1.6656                 0.6634                16.3935

                      4                      5                      6
                      A                      A                      A
 Frequencies --    117.6081               183.0447               219.9976
 Red. masses --      5.8713                 5.9179                 5.4989
 Frc consts  --      0.0478                 0.1168                 0.1568
 IR Inten    --      0.7909                 0.0982                 0.1824

                      7                      8                      9
                      A                      A                      A
 Frequencies --    261.5694               270.2849               302.4213
 Red. masses --      7.9389                 4.6296                 6.9474
 Frc consts  --      0.3200                 0.1993                 0.3744
 IR Inten    --      7.7970                 0.1931                11.2655

                     10                     11                     12
                      A                      A                      A
 Frequencies --    357.8305               399.2030               435.3541
 Red. masses --      4.9377                 9.0702                 3.3548
 Frc consts  --      0.3725                 0.8516                 0.3746
 IR Inten    --      0.9359                 4.5185                 3.2941

                     13                     14                     15
                      A                      A                      A
 Frequencies --    459.7582               506.4255               507.9980
 Red. masses --      4.5366                 8.8185                 3.1991
 Frc consts  --      0.5650                 1.3325                 0.4864
 IR Inten    --      2.4838                 8.7206                 0.4277

                     16                     17                     18
                      A                      A                      A
 Frequencies --    543.1782               552.1228               558.5292
 Red. masses --      8.6574                 6.0311                 3.8639
 Frc consts  --      1.5050                 1.0832                 0.7102
 IR Inten    --      3.7065                59.2191                 0.4580

                     19                     20                     21
                      A                      A                      A
 Frequencies --    569.2336               625.3239               695.7613
 Red. masses --      7.2386                 5.7665                 1.5461
 Frc consts  --      1.3819                 1.3285                 0.4410
 IR Inten    --     14.2537                84.2085                39.5110

                     22                     23                     24
                      A                      A                      A
 Frequencies --    713.2907               718.8283               743.1331
 Red. masses --      8.2196                 6.0096                 2.6953
 Frc consts  --      2.4640                 1.8295                 0.8770
 IR Inten    --      3.1842                 2.9460                14.0472

                     25                     26                     27
                      A                      A                      A
 Frequencies --    760.9862               767.4101               823.1959
 Red. masses --      1.7159                 1.6536                 6.2793
 Frc consts  --      0.5854                 0.5738                 2.5071
 IR Inten    --      2.9301                88.3065                13.9770

                     28                     29                     30
                      A                      A                      A
 Frequencies --    830.2583               850.3050               869.2508
 Red. masses --      1.8155                 3.8734                 1.3801
 Frc consts  --      0.7374                 1.6500                 0.6144
 IR Inten    --      0.1432                26.5497                 0.9444

                     31                     32                     33
                      A                      A                      A
 Frequencies --    902.9403               953.3360               955.2574
 Red. masses --      1.4168                 1.3652                 5.4484
 Frc consts  --      0.6806                 0.7310                 2.9293
 IR Inten    --      6.0750                 0.1115                 6.1303

                     34                     35                     36
                      A                      A                      A
 Frequencies --    957.7501              1004.0180              1019.2595
 Red. masses --      1.3511                 1.2963                 1.0657
 Frc consts  --      0.7302                 0.7699                 0.6523
 IR Inten    --      2.4563                 0.3630                73.0787

                     37                     38                     39
                      A                      A                      A
 Frequencies --   1049.5069              1051.8007              1085.3508
 Red. masses --      2.0942                 2.0772                 4.1420
 Frc consts  --      1.3591                 1.3540                 2.8747
 IR Inten    --      2.7122                 9.3714                 6.8695

                     40                     41                     42
                      A                      A                      A
 Frequencies --   1121.2557              1153.3768              1165.3428
 Red. masses --      1.5158                 1.3636                 1.2209
 Frc consts  --      1.1228                 1.0687                 0.9769
 IR Inten    --     35.2412                37.4325                66.5777

                     43                     44                     45
                      A                      A                      A
 Frequencies --   1176.5813              1201.9271              1258.5607
 Red. masses --      1.1680                 1.6494                 1.8479
 Frc consts  --      0.9526                 1.4039                 1.7246
 IR Inten    --     64.7707               126.7598                87.4659

                     46                     47                     48
                      A                      A                      A
 Frequencies --   1265.4322              1307.7524              1344.6220
 Red. masses --      2.4172                 2.0171                 5.4697
 Frc consts  --      2.2806                 2.0325                 5.8266
 IR Inten    --     30.4837                14.9016                 5.6381

                     49                     50                     51
                      A                      A                      A
 Frequencies --   1358.1551              1390.2687              1403.5793
 Red. masses --      6.7074                 2.9688                 2.1768
 Frc consts  --      7.2896                 3.3809                 2.5266
 IR Inten    --    183.2925                32.4426                 4.2072

                     52                     53                     54
                      A                      A                      A
 Frequencies --   1436.3321              1482.9096              1496.0486
 Red. masses --      3.1340                 2.8481                 3.2673
 Frc consts  --      3.8094                 3.6900                 4.3086
 IR Inten    --    429.0950                 4.0234                46.9427

                     55                     56                     57
                      A                      A                      A
 Frequencies --   1528.3161              1550.3200              1573.5282
 Red. masses --      3.7800                 5.6192                 4.1306
 Frc consts  --      5.2020                 7.9573                 6.0258
 IR Inten    --     67.2588               163.4593                69.2619

                     58                     59                     60
                      A                      A                      A
 Frequencies --   1617.7992              1635.2910              1663.3637
 Red. masses --      6.0800                 6.1564                 6.7207
 Frc consts  --      9.3757                 9.6999                10.9556
 IR Inten    --    274.2027               102.8709               115.9892

                     61                     62                     63
                      A                      A                      A
 Frequencies --   2710.3331              3200.2293              3211.5445
 Red. masses --      1.0932                 1.0879                 1.0861
 Frc consts  --      4.7315                 6.5644                 6.5999
 IR Inten    --   1107.4682                26.1704                 3.5735

                     64                     65                     66
                      A                      A                      A
 Frequencies --   3214.5656              3221.1537              3225.3538
 Red. masses --      1.0870                 1.0904                 1.0928
 Frc consts  --      6.6179                 6.6656                 6.6982
 IR Inten    --      3.5500                 3.4238                16.4325

                     67                     68                     69
                      A                      A                      A
 Frequencies --   3231.3337              3237.1830              3238.1257
 Red. masses --      1.0956                 1.0988                 1.0996
 Frc consts  --      6.7403                 6.7842                 6.7931
 IR Inten    --      7.7543                28.3637                 9.3549

 - Thermochemistry -
 -------------------
 Temperature   298.150 Kelvin.  Pressure   1.00000 Atm.
 Atom     1 has atomic number  6 and mass  12.00000

 Molecular mass:   227.04049 amu.
 Principal axes and moments of inertia in atomic units:
                           1         2         3
     Eigenvalues --  1298.322366393.362907691.68510
           X           -0.70111   0.71305  -0.00003
           Y            0.71305   0.70111  -0.00005
           Z            0.00002   0.00006   1.00000
 This molecule is an asymmetric top.
 Rotational symmetry number  1.
 Warning -- assumption of classical behavior for rotation
           may cause significant error
 Rotational temperatures (Kelvin)      0.06671     0.01355     0.01126
 Rotational constants (GHZ):           1.39006     0.28228     0.23464
 Zero-point vibrational energy     487144.0 (Joules/Mol)
                                  116.43020 (Kcal/Mol)
 Warning -- explicit consideration of  19 degrees of freedom as
           vibrations may cause significant error
 Vibrational temperatures:     48.02    83.00   159.61   169.21   263.36
          (Kelvin)            316.53   376.34   388.88   435.12   514.84
                              574.36   626.38   661.49   728.63   730.90
                              781.51   794.38   803.60   819.00   899.70
                             1001.05  1026.27  1034.23  1069.20  1094.89
                             1104.13  1184.40  1194.56  1223.40  1250.66
                             1299.13  1371.64  1374.40  1377.99  1444.56
                             1466.49  1510.01  1513.31  1561.58  1613.24
                             1659.45  1676.67  1692.84  1729.31  1810.79
                             1820.67  1881.56  1934.61  1954.08  2000.29
                             2019.44  2066.56  2133.58  2152.48  2198.91
                             2230.56  2263.96  2327.65  2352.82  2393.21
                             3899.56  4604.42  4620.70  4625.04  4634.52
                             4640.56  4649.17  4657.58  4658.94

 Zero-point correction=                           0.185543 (Hartree/Particle)
 Thermal correction to Energy=                    0.197885
 Thermal correction to Enthalpy=                  0.198829
 Thermal correction to Gibbs Free Energy=         0.145920
 Sum of electronic and zero-point Energies=          -1028.512402
 Sum of electronic and thermal Energies=             -1028.500061
 Sum of electronic and thermal Enthalpies=           -1028.499117
 Sum of electronic and thermal Free Energies=        -1028.552025

                     E (Thermal)             CV                S
                      KCal/Mol        Cal/Mol-Kelvin    Cal/Mol-Kelvin
 Total                  124.174             49.389            111.355
 Electronic               0.000              0.000              0.000
 Translational            0.889              2.981             42.162
 Rotational               0.889              2.981             32.523
 Vibrational            122.397             43.428             36.670
 Vibration     1          0.594              1.983              5.618
 Vibration     2          0.596              1.974              4.535
 Vibration     3          0.607              1.940              3.252
 Vibration     4          0.608              1.935              3.139
 Vibration     5          0.631              1.863              2.297
 Vibration     6          0.647              1.811              1.959
 Vibration     7          0.669              1.743              1.651
 Vibration     8          0.674              1.728              1.594
 Vibration     9          0.694              1.669              1.403
 Vibration    10          0.733              1.559              1.132
 Vibration    11          0.765              1.472              0.966
 Vibration    12          0.796              1.393              0.841
 Vibration    13          0.818              1.339              0.767
 Vibration    14          0.862              1.236              0.642
 Vibration    15          0.863              1.232              0.638
 Vibration    16          0.898              1.155              0.558
 Vibration    17          0.907              1.135              0.540
 Vibration    18          0.914              1.121              0.527
 Vibration    19          0.925              1.098              0.506

 Optimization completed.
    -- Stationary point found.
 Normal termination of Gaussian 16 at Mon Jul 13 16:13:17 2020.
