 Gaussian 16, Revision C.01,
 Gaussian 16:  ES64L-G16RevC.01  3-Jul-2019

 ----------------------------------------------------------------------
 #p opt=addgic freq td wb97xd/cc-pvdz nosymm int=ultrafine scrf=(solven
 t=CarbonTetraChloride)
 ----------------------------------------------------------------------

 ------------------------------------------------
 NM 2D-scan of HBT TD-WB97XD pVDZ in CTC Relaxed.
 ------------------------------------------------
 Symbolic Z-matrix:
 Charge =  0 Multiplicity = 1

 SCF Done:  E(RwB97XD) =  -1028.73968848     A.U. after   16 cycles
 Total Energy, E(TD-HF/TD-DFT) =  -1028.63373923
 SCF Done:  E(RwB97XD) =  -1028.78740616     A.U. after   14 cycles
 Total Energy, E(TD-HF/TD-DFT) =  -1028.68540151
 SCF Done:  E(RwB97XD) =  -1028.79513485     A.U. after   13 cycles
 Total Energy, E(TD-HF/TD-DFT) =  -1028.69065563
 SCF Done:  E(RwB97XD) =  -1028.79317544     A.U. after   12 cycles
 Total Energy, E(TD-HF/TD-DFT) =  -1028.69086241
 SCF Done:  E(RwB97XD) =  -1028.79424974     A.U. after   12 cycles
 Total Energy, E(TD-HF/TD-DFT) =  -1028.69117992
 SCF Done:  E(RwB97XD) =  -1028.79422192     A.U. after    9 cycles
 Total Energy, E(TD-HF/TD-DFT) =  -1028.69118317
 Optimization completed.
    -- Stationary point found.
 Normal termination of Gaussian 16 at Mon Jul 13 19:25:23 2020.

 ----------------------------------------------------------------------
 #P Geom=AllCheck Guess=TCheck SCRF=Check GenChk RwB97XD TD(FC,Read)/CC
 -pVDZ Freq
 ----------------------------------------------------------------------

 Structure from the checkpoint file:  "config_11_3.chk"
 ------------------------------------------------
 NM 2D-scan of HBT TD-WB97XD pVDZ in CTC Relaxed.
 ------------------------------------------------
 Charge =  0 Multiplicity = 1

                          Input orientation:
 ---------------------------------------------------------------------
 Center     Atomic      Atomic             Coordinates (Angstroms)
 Number     Number       Type             X           Y           Z
 ---------------------------------------------------------------------
      1          6           0        1.757157   -3.288780    0.000057
      2          6           0        1.027384   -2.103752    0.000010
      3          6           0        1.701412   -0.880829   -0.000069
      4          6           0        3.098899   -0.789508   -0.000094
      5          6           0        3.814774   -1.978053   -0.000044
      6          6           0        3.153967   -3.213011    0.000029
      7          1           0        1.256747   -4.257297    0.000114
      8          1           0        3.590457    0.183829   -0.000148
      9          1           0        4.905367   -1.948184   -0.000061
     10          1           0        3.735267   -4.135618    0.000066
     11          7           0        0.834877    0.155900   -0.000108
     12         16           0       -0.734387   -1.814486    0.000020
     13          6           0       -1.437112    1.048509   -0.000025
     14          6           0       -2.814745    0.921242   -0.000085
     15          6           0       -0.857290    2.427494    0.000071
     16          6           0       -3.689024    2.054714   -0.000018
     17          1           0       -3.264355   -0.075105   -0.000184
     18          6           0       -1.788417    3.520967    0.000145
     19          6           0       -3.178258    3.344653    0.000106
     20          1           0       -4.766360    1.882372   -0.000059
     21          1           0       -1.343524    4.517808    0.000247
     22          1           0       -3.846820    4.206675    0.000167
     23          6           0       -0.505769   -0.066883   -0.000049
     24          8           0        0.380541    2.617924    0.000130
     25          1           0        1.204202    1.088566   -0.000147
 ---------------------------------------------------------------------

 SCF Done:  E(RwB97XD) =  -1028.79422192     A.U. after    1 cycles

 Excitation energies and oscillator strengths:

 Excited state symmetry could not be determined.
 Excited State   1:      Singlet-?Sym    2.8038 eV  442.20 nm  f=0.4286  <S**2>=0.000
      59 -> 60         0.69625
 This state for optimization and/or second-order correction.
 Total Energy, E(TD-HF/TD-DFT) =  -1028.69118323
 Copying the excited state density for this state as the 1-particle RhoCI density.

 Excited state symmetry could not be determined.
 Excited State   2:      Singlet-?Sym    3.5295 eV  351.28 nm  f=0.0000  <S**2>=0.000
      58 -> 60         0.68363
      58 -> 62         0.11749
      58 -> 64         0.11089

 Excited state symmetry could not be determined.
 Excited State   3:      Singlet-?Sym    4.3376 eV  285.83 nm  f=0.4907  <S**2>=0.000
      57 -> 60         0.68091

 Alpha  occ. eigenvalues --  -89.10880 -19.20816 -14.52022 -10.42619 -10.37135
 Alpha  occ. eigenvalues --  -10.36382 -10.35843 -10.33663 -10.33142 -10.32789
 Alpha  occ. eigenvalues --  -10.32557 -10.31461 -10.31405 -10.30532 -10.29050
 Alpha  occ. eigenvalues --  -10.28132  -8.12787  -6.07680  -6.07290  -6.06803
 Alpha  occ. eigenvalues --   -1.13488  -1.09647  -0.98551  -0.95034  -0.93205
 Alpha  occ. eigenvalues --   -0.89213  -0.86563  -0.84212  -0.80745  -0.76106
 Alpha  occ. eigenvalues --   -0.73937  -0.71722  -0.69259  -0.67453  -0.64881
 Alpha  occ. eigenvalues --   -0.60967  -0.59837  -0.56595  -0.56170  -0.55839
 Alpha  occ. eigenvalues --   -0.55021  -0.53556  -0.53047  -0.50842  -0.48945
 Alpha  occ. eigenvalues --   -0.48745  -0.48177  -0.46976  -0.45559  -0.44762
 Alpha  occ. eigenvalues --   -0.44379  -0.42812  -0.42044  -0.40152  -0.36916
 Alpha  occ. eigenvalues --   -0.33805  -0.31547  -0.31314  -0.25577
 Alpha virt. eigenvalues --   -0.02201   0.03571   0.05966   0.06324   0.09504
 Alpha virt. eigenvalues --    0.10675   0.11625   0.14510   0.16048   0.17086
 Alpha virt. eigenvalues --    0.18740   0.19920   0.20991   0.21331   0.22950

 Mulliken charges:
               1
     1  C    0.011208
     2  C   -0.253252
     3  C    0.245604
     4  C   -0.010493
     5  C    0.015534
     6  C    0.000582
     7  H    0.027374
     8  H    0.035057
     9  H    0.029045
    10  H    0.027756
    11  N   -0.081539
    12  S    0.197698
    13  C   -0.114714
    14  C   -0.022565
    15  C    0.119151
    16  C   -0.040850
    17  H    0.000083
    18  C   -0.038188
    19  C    0.035004
    20  H    0.001897
    21  H   -0.000731
    22  H    0.013349
    23  C    0.074763
    24  O   -0.394406
    25  H    0.122632
 Sum of Mulliken charges =  -0.00000

 Dipole moment (field-independent basis, Debye):
    X=              2.2304    Y=             -5.7437    Z=             -0.0004  Tot=              6.1615
 Quadrupole moment (field-independent basis, Debye-Ang):
   XX=            -82.2218   YY=            -95.2994   ZZ=           -104.2579
   XY=             -6.4660   XZ=             -0.0005   YZ=             -0.0008

  Exact polarizability:     349.019    -121.193     296.052      -0.001       0.002      63.373
 Approx polarizability:     276.351     -39.649     266.784      -0.001       0.002      82.141

 ******    1 imaginary frequencies (negative Signs) ******

                      1                      2                      3
                      A                      A                      A
 Frequencies --   -105.3430                45.0494                98.0043
 Red. masses --      7.2276                 6.4657                 4.6937
 Frc consts  --      0.0473                 0.0077                 0.0266
 IR Inten    --      2.0549                 1.5610                 0.0285

                      4                      5                      6
                      A                      A                      A
 Frequencies --    110.5848               169.9341               227.3906
 Red. masses --      5.7562                 4.9706                 5.5003
 Frc consts  --      0.0415                 0.0846                 0.1676
 IR Inten    --      7.7601                 0.0136                 0.6225

                      7                      8                      9
                      A                      A                      A
 Frequencies --    262.5497               268.8907               321.2077
 Red. masses --      7.5726                 4.5026                 7.6045
 Frc consts  --      0.3076                 0.1918                 0.4623
 IR Inten    --      1.1413                 1.7991                 2.9526

                     10                     11                     12
                      A                      A                      A
 Frequencies --    346.2523               374.6885               426.9978
 Red. masses --      4.6504                 8.2466                 3.4594
 Frc consts  --      0.3285                 0.6821                 0.3716
 IR Inten    --      0.9770                 7.4073                 5.2733

                     13                     14                     15
                      A                      A                      A
 Frequencies --    445.1083               498.3956               510.1798
 Red. masses --      4.4662                 8.1586                 3.1905
 Frc consts  --      0.5213                 1.1940                 0.4893
 IR Inten    --      3.8762                10.4978                 0.4191

                     16                     17                     18
                      A                      A                      A
 Frequencies --    538.2487               553.2435               560.6862
 Red. masses --      8.7685                 3.6370                 6.9756
 Frc consts  --      1.4967                 0.6559                 1.2920
 IR Inten    --     12.1144                 2.9024                34.6602

                     19                     20                     21
                      A                      A                      A
 Frequencies --    568.1003               642.4118               669.5358
 Red. masses --      7.4361                 6.1832                 1.2403
 Frc consts  --      1.4140                 1.5035                 0.3276
 IR Inten    --     15.1267                42.6646                65.6717

                     22                     23                     24
                      A                      A                      A
 Frequencies --    694.9693               695.8874               730.1725
 Red. masses --      6.3036                 1.3560                 8.1037
 Frc consts  --      1.7938                 0.3869                 2.5456
 IR Inten    --      1.0126                 2.1355                 3.7555

                     25                     26                     27
                      A                      A                      A
 Frequencies --    741.8100               761.5216               769.1298
 Red. masses --      2.4947                 1.7164                 1.7101
 Frc consts  --      0.8088                 0.5865                 0.5960
 IR Inten    --     15.6694                 1.1147               116.5898

                     28                     29                     30
                      A                      A                      A
 Frequencies --    806.8775               844.0479               861.7640
 Red. masses --      6.4949                 1.8036                 1.3909
 Frc consts  --      2.4914                 0.7570                 0.6086
 IR Inten    --     18.7580                 1.0791                 2.3080

                     31                     32                     33
                      A                      A                      A
 Frequencies --    898.6971               907.7784               953.9837
 Red. masses --      5.4721                 1.4315                 1.3594
 Frc consts  --      2.6039                 0.6950                 0.7289
 IR Inten    --      0.9416                 9.1753                 0.7277

                     34                     35                     36
                      A                      A                      A
 Frequencies --    956.0544               957.4533              1003.0411
 Red. masses --      1.3494                 5.1189                 1.2942
 Frc consts  --      0.7267                 2.7648                 0.7671
 IR Inten    --      1.7765                 1.2399                 0.0014

                     37                     38                     39
                      A                      A                      A
 Frequencies --   1039.6619              1053.4098              1078.1184
 Red. masses --      2.3213                 2.3100                 3.6779
 Frc consts  --      1.4783                 1.5103                 2.5187
 IR Inten    --      1.4683                12.1263                 0.8865

                     40                     41                     42
                      A                      A                      A
 Frequencies --   1101.8629              1150.8007              1158.7056
 Red. masses --      1.6531                 1.3165                 1.1899
 Frc consts  --      1.1825                 1.0272                 0.9413
 IR Inten    --     42.5915                 4.3939                82.0529

                     43                     44                     45
                      A                      A                      A
 Frequencies --   1178.8598              1193.2346              1241.5667
 Red. masses --      1.1495                 1.7442                 2.4091
 Frc consts  --      0.9412                 1.4632                 2.1880
 IR Inten    --     40.6859                81.7755                14.9505

                     46                     47                     48
                      A                      A                      A
 Frequencies --   1269.2000              1295.8793              1334.3246
 Red. masses --      2.2062                 1.5736                 3.4782
 Frc consts  --      2.0939                 1.5569                 3.6486
 IR Inten    --     97.1873                12.5198                36.3485

                     49                     50                     51
                      A                      A                      A
 Frequencies --   1368.2516              1389.5466              1402.3772
 Red. masses --      2.6313                 2.3041                 4.5182
 Frc consts  --      2.9024                 2.6212                 5.2353
 IR Inten    --     64.0052                31.8066                61.5881

                     52                     53                     54
                      A                      A                      A
 Frequencies --   1446.4171              1472.6424              1519.6371
 Red. masses --      3.0832                 2.8290                 2.9114
 Frc consts  --      3.8005                 3.6148                 3.9612
 IR Inten    --    177.8500                 7.1165                37.1821

                     55                     56                     57
                      A                      A                      A
 Frequencies --   1525.6513              1573.6051              1603.6938
 Red. masses --      3.6127                 6.0859                 5.1674
 Frc consts  --      4.9544                 8.8791                 7.8301
 IR Inten    --     58.2591               171.3013               122.1358

                     58                     59                     60
                      A                      A                      A
 Frequencies --   1638.1914              1664.5178              1678.5958
 Red. masses --      7.7775                 7.0162                 6.9351
 Frc consts  --     12.2976                11.4533                11.5132
 IR Inten    --    142.5912                40.0503               142.0435

                     61                     62                     63
                      A                      A                      A
 Frequencies --   3187.9945              3208.0622              3213.8227
 Red. masses --      1.0894                 1.0862                 1.0863
 Frc consts  --      6.5232                 6.5861                 6.6105
 IR Inten    --     20.9198                 1.5230                 5.8433

                     64                     65                     66
                      A                      A                      A
 Frequencies --   3220.6618              3224.3721              3232.5178
 Red. masses --      1.0916                 1.0900                 1.0962
 Frc consts  --      6.6710                 6.6770                 6.7486
 IR Inten    --     13.0503                 2.3827                 6.5178

                     67                     68                     69
                      A                      A                      A
 Frequencies --   3232.9499              3240.9443              3666.7116
 Red. masses --      1.0991                 1.0994                 1.0815
 Frc consts  --      6.7682                 6.8035                 8.5668
 IR Inten    --     25.3664                14.1552               646.3986

 - Thermochemistry -
 -------------------
 Temperature   298.150 Kelvin.  Pressure   1.00000 Atm.
 Atom     1 has atomic number  6 and mass  12.00000

 Molecular mass:   227.04049 amu.
 Principal axes and moments of inertia in atomic units:
                           1         2         3
     Eigenvalues --  1310.982286468.536757779.51902
           X           -0.70374   0.71046  -0.00000
           Y            0.71046   0.70374  -0.00001
           Z            0.00001   0.00001   1.00000
 This molecule is an asymmetric top.
 Rotational symmetry number  1.
 Warning -- assumption of classical behavior for rotation
           may cause significant error
 Rotational temperatures (Kelvin)      0.06607     0.01339     0.01113
 Rotational constants (GHZ):           1.37663     0.27900     0.23199
    1 imaginary frequencies ignored.
 Zero-point vibrational energy     490633.0 (Joules/Mol)
                                  117.26411 (Kcal/Mol)
 Warning -- explicit consideration of  18 degrees of freedom as
           vibrations may cause significant error
 Vibrational temperatures:     64.82   141.01   159.11   244.50   327.16
          (Kelvin)            377.75   386.87   462.15   498.18   539.09
                              614.35   640.41   717.08   734.04   774.42
                              795.99   806.70   817.37   924.29   963.31
                              999.91  1001.23  1050.56  1067.30  1095.66
                             1106.61  1160.92  1214.40  1239.89  1293.02
                             1306.09  1372.57  1375.55  1377.56  1443.15
                             1495.84  1515.62  1551.17  1585.33  1655.75
                             1667.12  1696.12  1716.80  1786.34  1826.10
                             1864.48  1919.80  1968.61  1999.25  2017.71
                             2081.07  2118.80  2186.42  2195.07  2264.07
                             2307.36  2356.99  2394.87  2415.12  4586.81
                             4615.69  4623.97  4633.81  4639.15  4650.87
                             4651.49  4663.00  5275.58

 Zero-point correction=                           0.186872 (Hartree/Particle)
 Thermal correction to Energy=                    0.198540
 Thermal correction to Enthalpy=                  0.199484
 Thermal correction to Gibbs Free Energy=         0.148613
 Sum of electronic and zero-point Energies=          -1028.504311
 Sum of electronic and thermal Energies=             -1028.492644
 Sum of electronic and thermal Enthalpies=           -1028.491699
 Sum of electronic and thermal Free Energies=        -1028.542570

                     E (Thermal)             CV                S
                      KCal/Mol        Cal/Mol-Kelvin    Cal/Mol-Kelvin
 Total                  124.586             48.020            107.066
 Electronic               0.000              0.000              0.000
 Translational            0.889              2.981             42.162
 Rotational               0.889              2.981             32.556
 Vibrational            122.808             42.058             32.348
 Vibration     1          0.595              1.979              5.024
 Vibration     2          0.603              1.951              3.494
 Vibration     3          0.606              1.941              3.259
 Vibration     4          0.625              1.879              2.436
 Vibration     5          0.651              1.799              1.899
 Vibration     6          0.670              1.741              1.645
 Vibration     7          0.673              1.730              1.603
 Vibration     8          0.707              1.633              1.304
 Vibration     9          0.724              1.583              1.183
 Vibration    10          0.746              1.524              1.061
 Vibration    11          0.789              1.411              0.869
 Vibration    12          0.804              1.372              0.811
 Vibration    13          0.854              1.254              0.662
 Vibration    14          0.865              1.227              0.633
 Vibration    15          0.893              1.165              0.569
 Vibration    16          0.909              1.133              0.537
 Vibration    17          0.916              1.116              0.522
 Vibration    18          0.924              1.100              0.508

 Optimization completed.
    -- Stationary point found.
 Normal termination of Gaussian 16 at Mon Jul 13 19:43:16 2020.
