 Gaussian 16, Revision C.01,
 Gaussian 16:  ES64L-G16RevC.01  3-Jul-2019

 ----------------------------------------------------------------------
 #p opt=addgic freq td wb97xd/cc-pvdz nosymm int=ultrafine scrf=(solven
 t=CarbonTetraChloride)
 ----------------------------------------------------------------------

 ------------------------------------------------
 NM 2D-scan of HBT TD-WB97XD pVDZ in CTC Relaxed.
 ------------------------------------------------
 Symbolic Z-matrix:
 Charge =  0 Multiplicity = 1

 SCF Done:  E(RwB97XD) =  -1028.80926935     A.U. after   15 cycles
 Total Energy, E(TD-HF/TD-DFT) =  -1028.69266145
 SCF Done:  E(RwB97XD) =  -1028.80280065     A.U. after   14 cycles
 Total Energy, E(TD-HF/TD-DFT) =  -1028.69210127
 SCF Done:  E(RwB97XD) =  -1028.80733628     A.U. after   11 cycles
 Total Energy, E(TD-HF/TD-DFT) =  -1028.69349315
 SCF Done:  E(RwB97XD) =  -1028.80737077     A.U. after   11 cycles
 Total Energy, E(TD-HF/TD-DFT) =  -1028.69351270
 SCF Done:  E(RwB97XD) =  -1028.80735208     A.U. after   10 cycles
 Total Energy, E(TD-HF/TD-DFT) =  -1028.69351628
 SCF Done:  E(RwB97XD) =  -1028.80735779     A.U. after    9 cycles
 Total Energy, E(TD-HF/TD-DFT) =  -1028.69351670
 SCF Done:  E(RwB97XD) =  -1028.80735901     A.U. after    8 cycles
 Total Energy, E(TD-HF/TD-DFT) =  -1028.69351708
 Optimization completed.
    -- Stationary point found.
 Normal termination of Gaussian 16 at Mon Jul 13 15:15:41 2020.

 ----------------------------------------------------------------------
 #P Geom=AllCheck Guess=TCheck SCRF=Check GenChk RwB97XD TD(FC,Read)/CC
 -pVDZ Freq
 ----------------------------------------------------------------------

 Structure from the checkpoint file:  "config_7_11.chk"
 ------------------------------------------------
 NM 2D-scan of HBT TD-WB97XD pVDZ in CTC Relaxed.
 ------------------------------------------------
 Charge =  0 Multiplicity = 1

                          Input orientation:
 ---------------------------------------------------------------------
 Center     Atomic      Atomic             Coordinates (Angstroms)
 Number     Number       Type             X           Y           Z
 ---------------------------------------------------------------------
      1          6           0        1.621938   -3.272285   -0.000157
      2          6           0        0.993076   -2.029140   -0.000068
      3          6           0        1.736976   -0.812541    0.000054
      4          6           0        3.142702   -0.872593    0.000102
      5          6           0        3.759430   -2.114940    0.000010
      6          6           0        3.015030   -3.306994   -0.000121
      7          1           0        1.037788   -4.193419   -0.000245
      8          1           0        3.723301    0.050371    0.000207
      9          1           0        4.849537   -2.166646    0.000043
     10          1           0        3.530454   -4.268214   -0.000187
     11          7           0        0.964573    0.312289    0.000135
     12         16           0       -0.727799   -1.698135   -0.000050
     13          6           0       -1.350343    1.051390    0.000048
     14          6           0       -2.728583    0.797640    0.000112
     15          6           0       -0.892619    2.459479   -0.000070
     16          6           0       -3.650171    1.854432    0.000109
     17          1           0       -3.093751   -0.231470    0.000184
     18          6           0       -1.861527    3.490531   -0.000089
     19          6           0       -3.222990    3.193055    0.000015
     20          1           0       -4.717200    1.626756    0.000173
     21          1           0       -1.493278    4.517184   -0.000201
     22          1           0       -3.958128    3.998319   -0.000000
     23          6           0       -0.366372    0.030886    0.000048
     24          8           0        0.364313    2.732321   -0.000288
     25          1           0        1.016393    1.489719    0.000334
 ---------------------------------------------------------------------

 SCF Done:  E(RwB97XD) =  -1028.80735901     A.U. after    1 cycles

 Excitation energies and oscillator strengths:

 Excited state symmetry could not be determined.
 Excited State   1:      Singlet-?Sym    3.0978 eV  400.23 nm  f=0.4595  <S**2>=0.000
      59 -> 60         0.69490
 This state for optimization and/or second-order correction.
 Total Energy, E(TD-HF/TD-DFT) =  -1028.69351705
 Copying the excited state density for this state as the 1-particle RhoCI density.

 Excited state symmetry could not be determined.
 Excited State   2:      Singlet-?Sym    4.2600 eV  291.04 nm  f=0.0000  <S**2>=0.000
      56 -> 60         0.68642
      56 -> 62         0.10642
      56 -> 64         0.11334

 Excited state symmetry could not be determined.
 Excited State   3:      Singlet-?Sym    4.3339 eV  286.08 nm  f=0.3562  <S**2>=0.000
      58 -> 60         0.67581

 Alpha  occ. eigenvalues --  -89.10045 -19.23172 -14.50791 -10.41220 -10.36964
 Alpha  occ. eigenvalues --  -10.36640 -10.35870 -10.32997 -10.32433 -10.32132
 Alpha  occ. eigenvalues --  -10.32055 -10.31823 -10.31350 -10.31290 -10.29625
 Alpha  occ. eigenvalues --  -10.29049  -8.12034  -6.06895  -6.06543  -6.06066
 Alpha  occ. eigenvalues --   -1.12486  -1.09759  -0.97690  -0.95412  -0.92935
 Alpha  occ. eigenvalues --   -0.89012  -0.86118  -0.83730  -0.81889  -0.75853
 Alpha  occ. eigenvalues --   -0.71727  -0.71558  -0.68512  -0.67708  -0.64080
 Alpha  occ. eigenvalues --   -0.60927  -0.59436  -0.57251  -0.55239  -0.55106
 Alpha  occ. eigenvalues --   -0.54494  -0.53616  -0.52907  -0.50746  -0.49821
 Alpha  occ. eigenvalues --   -0.49137  -0.47761  -0.46593  -0.45285  -0.45169
 Alpha  occ. eigenvalues --   -0.44139  -0.43187  -0.41940  -0.40678  -0.36662
 Alpha  occ. eigenvalues --   -0.33866  -0.33102  -0.31278  -0.26887
 Alpha virt. eigenvalues --   -0.01907   0.04184   0.06163   0.06639   0.08528
 Alpha virt. eigenvalues --    0.10581   0.13824   0.14845   0.16315   0.17643
 Alpha virt. eigenvalues --    0.18748   0.20570   0.21130   0.21699   0.22847

 Mulliken charges:
               1
     1  C    0.017730
     2  C   -0.229530
     3  C    0.266885
     4  C   -0.014012
     5  C    0.009833
     6  C   -0.000784
     7  H    0.023507
     8  H    0.027569
     9  H    0.024540
    10  H    0.024665
    11  N   -0.253444
    12  S    0.191040
    13  C   -0.106182
    14  C   -0.026450
    15  C    0.127684
    16  C   -0.028599
    17  H    0.010836
    18  C   -0.012184
    19  C    0.030119
    20  H    0.004705
    21  H    0.007696
    22  H    0.017680
    23  C    0.066396
    24  O   -0.402322
    25  H    0.222624
 Sum of Mulliken charges =  -0.00000

 Dipole moment (field-independent basis, Debye):
    X=              0.8656    Y=             -4.5282    Z=              0.0008  Tot=              4.6102
 Quadrupole moment (field-independent basis, Debye-Ang):
   XX=            -82.7980   YY=            -93.4550   ZZ=           -104.2700
   XY=             -6.9174   XZ=              0.0008   YZ=              0.0025

  Exact polarizability:     351.903    -131.023     309.576      -0.003       0.003      63.253
 Approx polarizability:     273.408     -35.099     264.262      -0.002       0.001      82.191

 ******    1 imaginary frequencies (negative Signs) ******

                      1                      2                      3
                      A                      A                      A
 Frequencies --   -765.2932                36.5602                71.4374
 Red. masses --      1.2093                 6.1545                 5.2949
 Frc consts  --      0.4173                 0.0048                 0.0159
 IR Inten    --   1761.4264                 1.4837                 0.4033

                      4                      5                      6
                      A                      A                      A
 Frequencies --    117.7732               140.3279               182.1836
 Red. masses --      5.6969                 5.6445                 6.1964
 Frc consts  --      0.0466                 0.0655                 0.1212
 IR Inten    --      0.2076                 0.0501                 0.3005

                      7                      8                      9
                      A                      A                      A
 Frequencies --    218.3792               269.8268               280.0873
 Red. masses --      5.4607                 4.6618                 7.1616
 Frc consts  --      0.1534                 0.2000                 0.3310
 IR Inten    --      0.1105                 0.1148                10.7595

                     10                     11                     12
                      A                      A                      A
 Frequencies --    365.2502               384.1225               406.8997
 Red. masses --      5.0167                 6.2209                 9.8944
 Frc consts  --      0.3943                 0.5408                 0.9652
 IR Inten    --      0.6284                41.9755                 6.7554

                     13                     14                     15
                      A                      A                      A
 Frequencies --    437.4206               467.5917               501.8983
 Red. masses --      3.2562                 4.7452                 3.1752
 Frc consts  --      0.3671                 0.6113                 0.4712
 IR Inten    --      4.3629                 0.9162                 0.4900

                     16                     17                     18
                      A                      A                      A
 Frequencies --    506.5892               544.8015               558.3011
 Red. masses --      8.9044                 8.6333                 3.8675
 Frc consts  --      1.3464                 1.5097                 0.7103
 IR Inten    --      2.6224                 1.3360                 0.3620

                     19                     20                     21
                      A                      A                      A
 Frequencies --    576.0513               588.6893               661.7803
 Red. masses --      7.6623                 6.6771                 6.6248
 Frc consts  --      1.4981                 1.3634                 1.7094
 IR Inten    --     36.5496                 2.6095                29.9356

                     22                     23                     24
                      A                      A                      A
 Frequencies --    696.2677               717.6459               742.4581
 Red. masses --      1.5824                 6.3650                 2.5455
 Frc consts  --      0.4520                 1.9314                 0.8267
 IR Inten    --     40.5168                 6.3624                15.0593

                     25                     26                     27
                      A                      A                      A
 Frequencies --    760.7011               763.3151               767.9640
 Red. masses --      6.5390                 1.7991                 1.7030
 Frc consts  --      2.2294                 0.6176                 0.5918
 IR Inten    --     46.4266                 3.3660                88.0235

                     28                     29                     30
                      A                      A                      A
 Frequencies --    825.2713               825.6888               867.3786
 Red. masses --      1.7085                 6.2133                 1.3878
 Frc consts  --      0.6856                 2.4958                 0.6152
 IR Inten    --      0.0019                18.6473                 0.9532

                     31                     32                     33
                      A                      A                      A
 Frequencies --    905.2637               925.5219               955.5509
 Red. masses --      1.3907                 6.2831                 1.3751
 Frc consts  --      0.6715                 3.1710                 0.7398
 IR Inten    --      5.4778                44.5030                 0.7305

                     34                     35                     36
                      A                      A                      A
 Frequencies --    956.3088              1003.0054              1009.4684
 Red. masses --      1.3496                 1.2961                 6.5917
 Frc consts  --      0.7272                 0.7682                 3.9576
 IR Inten    --      1.6116                 0.0004               118.8966

                     37                     38                     39
                      A                      A                      A
 Frequencies --   1044.3766              1050.4364              1095.4946
 Red. masses --      2.0964                 2.0717                 3.9388
 Frc consts  --      1.3472                 1.3468                 2.7850
 IR Inten    --      2.5222                 2.6571                82.9364

                     40                     41                     42
                      A                      A                      A
 Frequencies --   1128.9779              1153.6409              1168.0087
 Red. masses --      1.4764                 1.3442                 1.1895
 Frc consts  --      1.1087                 1.0540                 0.9561
 IR Inten    --      6.0200                11.7566                92.5872

                     43                     44                     45
                      A                      A                      A
 Frequencies --   1180.2958              1186.2295              1255.4549
 Red. masses --      1.1709                 1.0536                 1.7967
 Frc consts  --      0.9611                 0.8735                 1.6685
 IR Inten    --     13.6934                68.6995                79.7885

                     46                     47                     48
                      A                      A                      A
 Frequencies --   1267.8943              1304.4765              1343.6888
 Red. masses --      2.4701                 2.3337                 4.5900
 Frc consts  --      2.3395                 2.3398                 4.8827
 IR Inten    --     29.5825                14.2931                57.2468

                     49                     50                     51
                      A                      A                      A
 Frequencies --   1358.2414              1384.7635              1405.3393
 Red. masses --      6.3230                 2.7404                 2.3678
 Frc consts  --      6.8727                 3.0961                 2.7552
 IR Inten    --    209.7519                40.6302                13.3767

                     52                     53                     54
                      A                      A                      A
 Frequencies --   1445.8397              1478.3490              1496.9188
 Red. masses --      2.9508                 3.6135                 4.0890
 Frc consts  --      3.6343                 4.6530                 5.3984
 IR Inten    --    578.8939                12.5132               162.4979

                     55                     56                     57
                      A                      A                      A
 Frequencies --   1515.5909              1543.4366              1567.7170
 Red. masses --      4.1329                 4.8812                 4.4766
 Frc consts  --      5.5933                 6.8510                 6.4824
 IR Inten    --    126.3187                60.7542                59.1792

                     58                     59                     60
                      A                      A                      A
 Frequencies --   1623.3446              1630.8592              1659.0611
 Red. masses --      5.8820                 5.7781                 6.4798
 Frc consts  --      9.1327                 9.0546                10.5084
 IR Inten    --     14.0744               695.8317               107.3671

                     61                     62                     63
                      A                      A                      A
 Frequencies --   1983.2642              3203.1409              3210.6624
 Red. masses --      1.1142                 1.0878                 1.0861
 Frc consts  --      2.5821                 6.5760                 6.5966
 IR Inten    --    540.9636                20.8249                 5.2103

                     64                     65                     66
                      A                      A                      A
 Frequencies --   3217.1753              3220.7654              3226.5604
 Red. masses --      1.0876                 1.0903                 1.0931
 Frc consts  --      6.6323                 6.6638                 6.7047
 IR Inten    --      2.9826                 3.2929                17.1745

                     67                     68                     69
                      A                      A                      A
 Frequencies --   3231.7467              3238.2289              3238.8516
 Red. masses --      1.0954                 1.0993                 1.0986
 Frc consts  --      6.7407                 6.7918                 6.7903
 IR Inten    --      9.1759                27.1126                11.0956

 - Thermochemistry -
 -------------------
 Temperature   298.150 Kelvin.  Pressure   1.00000 Atm.
 Atom     1 has atomic number  6 and mass  12.00000

 Molecular mass:   227.04049 amu.
 Principal axes and moments of inertia in atomic units:
                           1         2         3
     Eigenvalues --  1305.335366331.379757636.71509
           X           -0.70238   0.71180   0.00001
           Y            0.71180   0.70238   0.00001
           Z            0.00000  -0.00001   1.00000
 This molecule is an asymmetric top.
 Rotational symmetry number  1.
 Warning -- assumption of classical behavior for rotation
           may cause significant error
 Rotational temperatures (Kelvin)      0.06635     0.01368     0.01134
 Rotational constants (GHZ):           1.38259     0.28505     0.23632
    1 imaginary frequencies ignored.
 Zero-point vibrational energy     479084.1 (Joules/Mol)
                                  114.50386 (Kcal/Mol)
 Warning -- explicit consideration of  19 degrees of freedom as
           vibrations may cause significant error
 Vibrational temperatures:     52.60   102.78   169.45   201.90   262.12
          (Kelvin)            314.20   388.22   402.98   525.51   552.67
                              585.44   629.35   672.76   722.12   728.87
                              783.85   803.27   828.81   846.99   952.15
                             1001.77  1032.53  1068.23  1094.48  1098.24
                             1104.93  1187.38  1187.98  1247.96  1302.47
                             1331.62  1374.82  1375.92  1443.10  1452.40
                             1502.62  1511.34  1576.17  1624.35  1659.83
                             1680.50  1698.18  1706.72  1806.32  1824.22
                             1876.85  1933.27  1954.21  1992.37  2021.97
                             2080.24  2127.01  2153.73  2180.60  2220.66
                             2255.60  2335.63  2346.44  2387.02  2853.47
                             4608.61  4619.43  4628.80  4633.96  4642.30
                             4649.76  4659.09  4659.99

 Zero-point correction=                           0.182474 (Hartree/Particle)
 Thermal correction to Energy=                    0.194475
 Thermal correction to Enthalpy=                  0.195420
 Thermal correction to Gibbs Free Energy=         0.143440
 Sum of electronic and zero-point Energies=          -1028.511044
 Sum of electronic and thermal Energies=             -1028.499042
 Sum of electronic and thermal Enthalpies=           -1028.498098
 Sum of electronic and thermal Free Energies=        -1028.550077

                     E (Thermal)             CV                S
                      KCal/Mol        Cal/Mol-Kelvin    Cal/Mol-Kelvin
 Total                  122.035             48.357            109.400
 Electronic               0.000              0.000              0.000
 Translational            0.889              2.981             42.162
 Rotational               0.889              2.981             32.512
 Vibrational            120.258             42.395             34.725
 Vibration     1          0.594              1.982              5.437
 Vibration     2          0.598              1.968              4.113
 Vibration     3          0.608              1.935              3.137
 Vibration     4          0.615              1.913              2.799
 Vibration     5          0.630              1.864              2.306
 Vibration     6          0.646              1.813              1.972
 Vibration     7          0.674              1.729              1.597
 Vibration     8          0.680              1.710              1.533
 Vibration     9          0.738              1.544              1.100
 Vibration    10          0.753              1.504              1.023
 Vibration    11          0.772              1.455              0.938
 Vibration    12          0.798              1.389              0.835
 Vibration    13          0.825              1.322              0.744
 Vibration    14          0.857              1.246              0.653
 Vibration    15          0.862              1.235              0.642
 Vibration    16          0.900              1.151              0.555
 Vibration    17          0.914              1.122              0.527
 Vibration    18          0.932              1.083              0.493
 Vibration    19          0.946              1.056              0.470

 Optimization completed.
    -- Stationary point found.
 Normal termination of Gaussian 16 at Mon Jul 13 15:33:34 2020.
