 Gaussian 16, Revision C.01,
 Gaussian 16:  ES64L-G16RevC.01  3-Jul-2019

 ----------------------------------------------------------------------
 #p opt=addgic freq td wb97xd/cc-pvdz nosymm int=ultrafine scrf=(solven
 t=CarbonTetraChloride)
 ----------------------------------------------------------------------

 ------------------------------------------------
 NM 2D-scan of HBT TD-WB97XD pVDZ in CTC Relaxed.
 ------------------------------------------------
 Symbolic Z-matrix:
 Charge =  0 Multiplicity = 1

 SCF Done:  E(RwB97XD) =  -1028.81121584     A.U. after   15 cycles
 Total Energy, E(TD-HF/TD-DFT) =  -1028.68082644
 SCF Done:  E(RwB97XD) =  -1028.81957213     A.U. after   13 cycles
 Total Energy, E(TD-HF/TD-DFT) =  -1028.69054921
 SCF Done:  E(RwB97XD) =  -1028.81961413     A.U. after   12 cycles
 Total Energy, E(TD-HF/TD-DFT) =  -1028.69133994
 SCF Done:  E(RwB97XD) =  -1028.81934380     A.U. after   11 cycles
 Total Energy, E(TD-HF/TD-DFT) =  -1028.69137657
 SCF Done:  E(RwB97XD) =  -1028.81952425     A.U. after   10 cycles
 Total Energy, E(TD-HF/TD-DFT) =  -1028.69140347
 SCF Done:  E(RwB97XD) =  -1028.81953018     A.U. after    9 cycles
 Total Energy, E(TD-HF/TD-DFT) =  -1028.69140494
 SCF Done:  E(RwB97XD) =  -1028.81954613     A.U. after    7 cycles
 Total Energy, E(TD-HF/TD-DFT) =  -1028.69140505
 SCF Done:  E(RwB97XD) =  -1028.81955313     A.U. after    6 cycles
 Total Energy, E(TD-HF/TD-DFT) =  -1028.69140508
 Optimization completed.
    -- Stationary point found.
 Normal termination of Gaussian 16 at Tue Jul 14 11:07:39 2020.

 ----------------------------------------------------------------------
 #P Geom=AllCheck Guess=TCheck SCRF=Check GenChk RwB97XD TD(FC,Read)/CC
 -pVDZ Freq
 ----------------------------------------------------------------------

 Structure from the checkpoint file:  "config_3_16.chk"
 ------------------------------------------------
 NM 2D-scan of HBT TD-WB97XD pVDZ in CTC Relaxed.
 ------------------------------------------------
 Charge =  0 Multiplicity = 1

                          Input orientation:
 ---------------------------------------------------------------------
 Center     Atomic      Atomic             Coordinates (Angstroms)
 Number     Number       Type             X           Y           Z
 ---------------------------------------------------------------------
      1          6           0        1.549792   -3.269569   -0.000038
      2          6           0        0.984810   -1.998603   -0.000023
      3          6           0        1.769292   -0.797002   -0.000009
      4          6           0        3.183134   -0.940132   -0.000012
      5          6           0        3.734159   -2.210674   -0.000027
      6          6           0        2.935745   -3.374158   -0.000040
      7          1           0        0.916560   -4.157593   -0.000048
      8          1           0        3.813593   -0.050310   -0.000002
      9          1           0        4.820686   -2.316580   -0.000029
     10          1           0        3.407410   -4.357649   -0.000051
     11          7           0        1.052439    0.348062    0.000007
     12         16           0       -0.710293   -1.619787   -0.000017
     13          6           0       -1.299793    1.072515    0.000034
     14          6           0       -2.681057    0.745902    0.000048
     15          6           0       -0.927378    2.489418    0.000033
     16          6           0       -3.641776    1.744024    0.000037
     17          1           0       -2.986051   -0.301266    0.000062
     18          6           0       -1.927560    3.475343    0.000018
     19          6           0       -3.273207    3.108508    0.000016
     20          1           0       -4.698391    1.471857    0.000042
     21          1           0       -1.619005    4.521159    0.000011
     22          1           0       -4.045803    3.878134    0.000004
     23          6           0       -0.288940    0.097079    0.000011
     24          8           0        0.344839    2.807965    0.000046
     25          1           0        0.897511    1.935776    0.000047
 ---------------------------------------------------------------------

 SCF Done:  E(RwB97XD) =  -1028.81955313     A.U. after    1 cycles

 Excitation energies and oscillator strengths:

 Excited state symmetry could not be determined.
 Excited State   1:      Singlet-?Sym    3.4871 eV  355.55 nm  f=0.6748  <S**2>=0.000
      59 -> 60         0.68893
 This state for optimization and/or second-order correction.
 Total Energy, E(TD-HF/TD-DFT) =  -1028.69140506
 Copying the excited state density for this state as the 1-particle RhoCI density.

 Excited state symmetry could not be determined.
 Excited State   2:      Singlet-?Sym    4.3849 eV  282.75 nm  f=0.1660  <S**2>=0.000
      57 -> 60         0.30209
      58 -> 60         0.58991
      59 -> 62         0.12196

 Excited state symmetry could not be determined.
 Excited State   3:      Singlet-?Sym    4.6059 eV  269.18 nm  f=0.0971  <S**2>=0.000
      57 -> 60         0.55098
      57 -> 62        -0.13249
      58 -> 60        -0.29691
      58 -> 61        -0.11607
      59 -> 61         0.20763

 Alpha  occ. eigenvalues --  -89.08769 -19.28283 -14.47439 -10.39664 -10.38103
 Alpha  occ. eigenvalues --  -10.35285 -10.34589 -10.32324 -10.32269 -10.32094
 Alpha  occ. eigenvalues --  -10.32048 -10.31580 -10.31380 -10.31321 -10.30537
 Alpha  occ. eigenvalues --  -10.30531  -8.10820  -6.05656  -6.05317  -6.04884
 Alpha  occ. eigenvalues --   -1.16957  -1.08252  -0.96820  -0.95835  -0.92117
 Alpha  occ. eigenvalues --   -0.88811  -0.85070  -0.84549  -0.82305  -0.75958
 Alpha  occ. eigenvalues --   -0.71295  -0.70281  -0.69178  -0.68107  -0.63644
 Alpha  occ. eigenvalues --   -0.60471  -0.58964  -0.58721  -0.55997  -0.54472
 Alpha  occ. eigenvalues --   -0.53894  -0.53386  -0.52980  -0.50630  -0.50443
 Alpha  occ. eigenvalues --   -0.49349  -0.47452  -0.45964  -0.45665  -0.44815
 Alpha  occ. eigenvalues --   -0.44097  -0.42956  -0.42224  -0.40069  -0.37372
 Alpha  occ. eigenvalues --   -0.36461  -0.32015  -0.31557  -0.28133
 Alpha virt. eigenvalues --   -0.01803   0.05128   0.06869   0.07160   0.07784
 Alpha virt. eigenvalues --    0.11084   0.14385   0.15213   0.16871   0.18051
 Alpha virt. eigenvalues --    0.18593   0.21181   0.21543   0.22362   0.22674

 Mulliken charges:
               1
     1  C    0.020196
     2  C   -0.219045
     3  C    0.219830
     4  C   -0.020418
     5  C    0.005036
     6  C   -0.004438
     7  H    0.016955
     8  H    0.017911
     9  H    0.018953
    10  H    0.020187
    11  N   -0.367498
    12  S    0.158578
    13  C   -0.076662
    14  C   -0.026836
    15  C    0.090569
    16  C   -0.010757
    17  H    0.021945
    18  C    0.002767
    19  C    0.023046
    20  H    0.011173
    21  H    0.019401
    22  H    0.023346
    23  C    0.085941
    24  O   -0.215327
    25  H    0.185147
 Sum of Mulliken charges =  -0.00000

 Dipole moment (field-independent basis, Debye):
    X=             -0.6393    Y=             -2.2137    Z=             -0.0000  Tot=              2.3041
 Quadrupole moment (field-independent basis, Debye-Ang):
   XX=            -83.1830   YY=            -89.6168   ZZ=           -104.3009
   XY=             -7.1024   XZ=             -0.0001   YZ=              0.0000

  Exact polarizability:     395.065    -187.215     378.211      -0.003       0.003      63.313
 Approx polarizability:     277.062     -35.942     259.539      -0.001       0.001      82.349

                      1                      2                      3
                      A                      A                      A
 Frequencies --     47.1603                58.1299               109.4845
 Red. masses --      6.0010                 5.5806                 5.1660
 Frc consts  --      0.0079                 0.0111                 0.0365
 IR Inten    --      1.4847                 0.0028                 0.1326

                      4                      5                      6
                      A                      A                      A
 Frequencies --    114.1494               178.0513               223.7131
 Red. masses --      5.6165                 6.4568                 5.3156
 Frc consts  --      0.0431                 0.1206                 0.1567
 IR Inten    --      1.9873                 1.4023                 0.0001

                      7                      8                      9
                      A                      A                      A
 Frequencies --    272.4346               273.1572               302.5632
 Red. masses --      7.7192                 4.8341                 6.5369
 Frc consts  --      0.3376                 0.2125                 0.3526
 IR Inten    --     29.7029                 0.0256                 5.6772

                     10                     11                     12
                      A                      A                      A
 Frequencies --    387.0270               410.4827               441.1486
 Red. masses --      4.5805                 9.5143                 3.2382
 Frc consts  --      0.4042                 0.9445                 0.3713
 IR Inten    --      0.0577                13.2074                 3.9660

                     13                     14                     15
                      A                      A                      A
 Frequencies --    487.2201               502.4055               506.2293
 Red. masses --      4.5712                 8.2496                 3.1616
 Frc consts  --      0.6393                 1.2269                 0.4774
 IR Inten    --      0.1154                 1.8293                 0.0012

                     16                     17                     18
                      A                      A                      A
 Frequencies --    518.3011               528.8223               554.9838
 Red. masses --      4.9622                 7.8476                 3.9482
 Frc consts  --      0.7854                 1.2930                 0.7165
 IR Inten    --     14.7308                50.9623                 0.1389

                     19                     20                     21
                      A                      A                      A
 Frequencies --    576.5665               643.8166               711.6504
 Red. masses --      7.6759                 6.6199                 8.6934
 Frc consts  --      1.5034                 1.6167                 2.5940
 IR Inten    --     26.5502                26.4524                28.0160

                     22                     23                     24
                      A                      A                      A
 Frequencies --    717.8272               722.5610               738.2705
 Red. masses --      1.6154                 7.5695                 1.7643
 Frc consts  --      0.4904                 2.3285                 0.5666
 IR Inten    --     55.5166                28.0182                45.2107

                     25                     26                     27
                      A                      A                      A
 Frequencies --    744.2959               769.8716               811.5691
 Red. masses --      1.9353                 2.2609                 1.7432
 Frc consts  --      0.6317                 0.7895                 0.6765
 IR Inten    --      8.7775                47.3076                 2.6699

                     28                     29                     30
                      A                      A                      A
 Frequencies --    824.2967               860.5319               888.4260
 Red. masses --      6.2866                 1.4267                 6.4513
 Frc consts  --      2.5167                 0.6225                 3.0001
 IR Inten    --     15.7491                 0.9946                65.7155

                     31                     32                     33
                      A                      A                      A
 Frequencies --    915.2898               953.0416               965.2363
 Red. masses --      1.3491                 1.3453                 1.3586
 Frc consts  --      0.6659                 0.7199                 0.7458
 IR Inten    --      5.8052                 2.0878                 0.0212

                     34                     35                     36
                      A                      A                      A
 Frequencies --    971.4251               998.3968              1031.4457
 Red. masses --      7.4079                 1.3039                 1.0602
 Frc consts  --      4.1187                 0.7658                 0.6645
 IR Inten    --     10.2373                 0.0325                66.7388

                     37                     38                     39
                      A                      A                      A
 Frequencies --   1041.2956              1043.0895              1087.2781
 Red. masses --      2.1388                 2.0824                 4.1016
 Frc consts  --      1.3664                 1.3349                 2.8569
 IR Inten    --      2.8673                 1.4453                63.0451

                     40                     41                     42
                      A                      A                      A
 Frequencies --   1136.7774              1151.1429              1176.1390
 Red. masses --      1.4648                 1.3640                 1.1746
 Frc consts  --      1.1153                 1.0649                 0.9573
 IR Inten    --     61.0475                15.6280                20.2562

                     43                     44                     45
                      A                      A                      A
 Frequencies --   1178.5593              1230.1218              1248.2005
 Red. masses --      1.2238                 4.1997                 1.8424
 Frc consts  --      1.0015                 3.7443                 1.6912
 IR Inten    --     18.6295                43.9908               154.8702

                     46                     47                     48
                      A                      A                      A
 Frequencies --   1280.5311              1315.7982              1364.9500
 Red. masses --      1.7191                 3.9514                 2.5154
 Frc consts  --      1.6608                 4.0307                 2.7612
 IR Inten    --      0.5849               224.5119                46.5704

                     49                     50                     51
                      A                      A                      A
 Frequencies --   1370.3119              1400.5834              1443.0851
 Red. masses --      5.4195                 2.3086                 2.5293
 Frc consts  --      5.9958                 2.6682                 3.1033
 IR Inten    --    114.4481                20.0845               150.5937

                     52                     53                     54
                      A                      A                      A
 Frequencies --   1469.9143              1495.4071              1533.6882
 Red. masses --      3.7005                 3.4453                 3.4512
 Frc consts  --      4.7108                 4.5394                 4.7829
 IR Inten    --     56.8904                34.1528               224.3437

                     55                     56                     57
                      A                      A                      A
 Frequencies --   1546.7739              1580.9354              1600.1866
 Red. masses --      4.4239                 7.5183                 5.6583
 Frc consts  --      6.2360                11.0713                 8.5364
 IR Inten    --     11.6256               126.6773               172.2488

                     58                     59                     60
                      A                      A                      A
 Frequencies --   1614.0197              1640.0041              1656.8219
 Red. masses --      5.4819                 3.5083                 1.6872
 Frc consts  --      8.4139                 5.5596                 2.7288
 IR Inten    --    988.5928               338.4163                29.7205

                     61                     62                     63
                      A                      A                      A
 Frequencies --   2516.2765              3205.1726              3211.9298
 Red. masses --      1.0958                 1.0862                 1.0861
 Frc consts  --      4.0877                 6.5747                 6.6015
 IR Inten    --    140.5850                 9.2714                 6.1738

                     64                     65                     66
                      A                      A                      A
 Frequencies --   3215.9231              3222.7822              3227.4003
 Red. masses --      1.0898                 1.0887                 1.0952
 Frc consts  --      6.6406                 6.6621                 6.7214
 IR Inten    --      2.2910                 7.6081                10.0819

                     67                     68                     69
                      A                      A                      A
 Frequencies --   3230.7208              3233.8137              3240.6399
 Red. masses --      1.0949                 1.0992                 1.0983
 Frc consts  --      6.7334                 6.7724                 6.7955
 IR Inten    --     11.7565                39.0171                27.0424

 - Thermochemistry -
 -------------------
 Temperature   298.150 Kelvin.  Pressure   1.00000 Atm.
 Atom     1 has atomic number  6 and mass  12.00000

 Molecular mass:   227.04049 amu.
 Principal axes and moments of inertia in atomic units:
                           1         2         3
     Eigenvalues --  1298.484326320.031547618.51586
           X           -0.70164   0.71253   0.00000
           Y            0.71253   0.70164  -0.00001
           Z            0.00001   0.00001   1.00000
 This molecule is an asymmetric top.
 Rotational symmetry number  1.
 Warning -- assumption of classical behavior for rotation
           may cause significant error
 Rotational temperatures (Kelvin)      0.06670     0.01370     0.01137
 Rotational constants (GHZ):           1.38988     0.28556     0.23689
 Zero-point vibrational energy     488496.6 (Joules/Mol)
                                  116.75349 (Kcal/Mol)
 Warning -- explicit consideration of  19 degrees of freedom as
           vibrations may cause significant error
 Vibrational temperatures:     67.85    83.64   157.52   164.24   256.18
          (Kelvin)            321.87   391.97   393.01   435.32   556.85
                              590.59   634.71   701.00   722.85   728.35
                              745.72   760.86   798.50   829.55   926.31
                             1023.91  1032.79  1039.60  1062.21  1070.88
                             1107.67  1167.67  1185.98  1238.11  1278.25
                             1316.90  1371.21  1388.76  1397.66  1436.47
                             1484.02  1498.19  1500.77  1564.35  1635.57
                             1656.24  1692.20  1695.68  1769.87  1795.88
                             1842.40  1893.14  1963.86  1971.57  2015.13
                             2076.28  2114.88  2151.56  2206.64  2225.46
                             2274.61  2302.31  2322.21  2359.60  2383.80
                             3620.36  4611.53  4621.25  4627.00  4636.86
                             4643.51  4648.29  4652.74  4662.56

 Zero-point correction=                           0.186059 (Hartree/Particle)
 Thermal correction to Energy=                    0.198299
 Thermal correction to Enthalpy=                  0.199243
 Thermal correction to Gibbs Free Energy=         0.146776
 Sum of electronic and zero-point Energies=          -1028.505347
 Sum of electronic and thermal Energies=             -1028.493106
 Sum of electronic and thermal Enthalpies=           -1028.492162
 Sum of electronic and thermal Free Energies=        -1028.544629

                     E (Thermal)             CV                S
                      KCal/Mol        Cal/Mol-Kelvin    Cal/Mol-Kelvin
 Total                  124.435             49.106            110.427
 Electronic               0.000              0.000              0.000
 Translational            0.889              2.981             42.162
 Rotational               0.889              2.981             32.503
 Vibrational            122.657             43.144             35.762
 Vibration     1          0.595              1.979              4.933
 Vibration     2          0.596              1.974              4.520
 Vibration     3          0.606              1.942              3.278
 Vibration     4          0.607              1.938              3.197
 Vibration     5          0.628              1.869              2.349
 Vibration     6          0.649              1.805              1.929
 Vibration     7          0.675              1.724              1.581
 Vibration     8          0.676              1.723              1.576
 Vibration     9          0.694              1.669              1.403
 Vibration    10          0.755              1.498              1.012
 Vibration    11          0.775              1.447              0.925
 Vibration    12          0.801              1.380              0.823
 Vibration    13          0.843              1.278              0.691
 Vibration    14          0.858              1.245              0.652
 Vibration    15          0.861              1.236              0.643
 Vibration    16          0.873              1.209              0.614
 Vibration    17          0.884              1.186              0.590
 Vibration    18          0.910              1.129              0.534
 Vibration    19          0.933              1.082              0.492

 Optimization completed.
    -- Stationary point found.
 Normal termination of Gaussian 16 at Tue Jul 14 11:25:23 2020.
