 Gaussian 16, Revision C.01,
 Gaussian 16:  ES64L-G16RevC.01  3-Jul-2019

 ----------------------------------------------------------------------
 #p opt=addgic freq td wb97xd/cc-pvdz nosymm int=ultrafine scrf=(solven
 t=CarbonTetraChloride)
 ----------------------------------------------------------------------

 ------------------------------------------------
 NM 2D-scan of HBT TD-WB97XD pVDZ in CTC Relaxed.
 ------------------------------------------------
 Symbolic Z-matrix:
 Charge =  0 Multiplicity = 1

 SCF Done:  E(RwB97XD) =  -1028.78794850     A.U. after   15 cycles
 Total Energy, E(TD-HF/TD-DFT) =  -1028.65735210
 SCF Done:  E(RwB97XD) =  -1028.81671777     A.U. after   13 cycles
 Total Energy, E(TD-HF/TD-DFT) =  -1028.68746636
 SCF Done:  E(RwB97XD) =  -1028.81766175     A.U. after   12 cycles
 Total Energy, E(TD-HF/TD-DFT) =  -1028.68911311
 SCF Done:  E(RwB97XD) =  -1028.81783274     A.U. after   11 cycles
 Total Energy, E(TD-HF/TD-DFT) =  -1028.68927643
 SCF Done:  E(RwB97XD) =  -1028.81782213     A.U. after   10 cycles
 Total Energy, E(TD-HF/TD-DFT) =  -1028.68948166
 SCF Done:  E(RwB97XD) =  -1028.81785283     A.U. after    9 cycles
 Total Energy, E(TD-HF/TD-DFT) =  -1028.68948378
 SCF Done:  E(RwB97XD) =  -1028.81787795     A.U. after    7 cycles
 Total Energy, E(TD-HF/TD-DFT) =  -1028.68948406
 SCF Done:  E(RwB97XD) =  -1028.81789097     A.U. after    7 cycles
 Total Energy, E(TD-HF/TD-DFT) =  -1028.68948404
 Optimization completed.
    -- Stationary point found.
 Normal termination of Gaussian 16 at Tue Jul 14 16:42:52 2020.

 ----------------------------------------------------------------------
 #P Geom=AllCheck Guess=TCheck SCRF=Check GenChk RwB97XD TD(FC,Read)/CC
 -pVDZ Freq
 ----------------------------------------------------------------------

 Structure from the checkpoint file:  "config_2_19.chk"
 ------------------------------------------------
 NM 2D-scan of HBT TD-WB97XD pVDZ in CTC Relaxed.
 ------------------------------------------------
 Charge =  0 Multiplicity = 1

                          Input orientation:
 ---------------------------------------------------------------------
 Center     Atomic      Atomic             Coordinates (Angstroms)
 Number     Number       Type             X           Y           Z
 ---------------------------------------------------------------------
      1          6           0        1.509246   -3.272071   -0.000117
      2          6           0        0.980002   -1.985414   -0.000116
      3          6           0        1.790675   -0.797157    0.000040
      4          6           0        3.202093   -0.983469    0.000199
      5          6           0        3.717502   -2.268932    0.000194
      6          6           0        2.890183   -3.414118    0.000037
      7          1           0        0.849958   -4.140888   -0.000234
      8          1           0        3.859192   -0.113117    0.000319
      9          1           0        4.800916   -2.403341    0.000316
     10          1           0        3.337130   -4.409054    0.000041
     11          7           0        1.101062    0.365973   -0.000002
     12         16           0       -0.700553   -1.576390   -0.000272
     13          6           0       -1.270280    1.092144   -0.000149
     14          6           0       -2.645160    0.720377   -0.000032
     15          6           0       -0.944988    2.516403   -0.000095
     16          6           0       -3.636267    1.683152    0.000165
     17          1           0       -2.917683   -0.335169   -0.000048
     18          6           0       -1.974542    3.468278    0.000152
     19          6           0       -3.308615    3.057924    0.000279
     20          1           0       -4.683633    1.377552    0.000270
     21          1           0       -1.702278    4.524099    0.000191
     22          1           0       -4.104343    3.803812    0.000450
     23          6           0       -0.245375    0.134542   -0.000182
     24          8           0        0.321554    2.875777   -0.000393
     25          1           0        0.895959    2.037693   -0.000889
 ---------------------------------------------------------------------

 SCF Done:  E(RwB97XD) =  -1028.81789097     A.U. after    1 cycles

 Excitation energies and oscillator strengths:

 Excited state symmetry could not be determined.
 Excited State   1:      Singlet-?Sym    3.4941 eV  354.84 nm  f=0.7014  <S**2>=0.000
      59 -> 60         0.68869
 This state for optimization and/or second-order correction.
 Total Energy, E(TD-HF/TD-DFT) =  -1028.68948398
 Copying the excited state density for this state as the 1-particle RhoCI density.

 Excited state symmetry could not be determined.
 Excited State   2:      Singlet-?Sym    4.3746 eV  283.42 nm  f=0.1057  <S**2>=0.000
      57 -> 60         0.44178
      58 -> 60         0.49149
      59 -> 62         0.12728

 Excited state symmetry could not be determined.
 Excited State   3:      Singlet-?Sym    4.5770 eV  270.89 nm  f=0.1227  <S**2>=0.000
      57 -> 60         0.46130
      57 -> 62        -0.10990
      58 -> 60        -0.43146
      59 -> 61         0.19120

 Alpha  occ. eigenvalues --  -89.08546 -19.28843 -14.47414 -10.39546 -10.38241
 Alpha  occ. eigenvalues --  -10.35223 -10.34433 -10.32406 -10.32356 -10.32194
 Alpha  occ. eigenvalues --  -10.31930 -10.31523 -10.31310 -10.31243 -10.30716
 Alpha  occ. eigenvalues --  -10.30641  -8.10625  -6.05456  -6.05119  -6.04692
 Alpha  occ. eigenvalues --   -1.17325  -1.08035  -0.96880  -0.95825  -0.92127
 Alpha  occ. eigenvalues --   -0.88788  -0.85144  -0.84625  -0.82193  -0.75986
 Alpha  occ. eigenvalues --   -0.71413  -0.70254  -0.69171  -0.68099  -0.63699
 Alpha  occ. eigenvalues --   -0.60409  -0.59055  -0.58705  -0.56132  -0.54516
 Alpha  occ. eigenvalues --   -0.53795  -0.53522  -0.52917  -0.50558  -0.50477
 Alpha  occ. eigenvalues --   -0.49246  -0.47520  -0.45986  -0.45650  -0.44835
 Alpha  occ. eigenvalues --   -0.44115  -0.43041  -0.42028  -0.39994  -0.37604
 Alpha  occ. eigenvalues --   -0.36445  -0.31879  -0.31706  -0.28168
 Alpha virt. eigenvalues --   -0.01861   0.05206   0.06839   0.07063   0.07981
 Alpha virt. eigenvalues --    0.11145   0.14405   0.15257   0.17103   0.18038
 Alpha virt. eigenvalues --    0.18620   0.21065   0.21478   0.22346   0.22730

 Mulliken charges:
               1
     1  C    0.021718
     2  C   -0.214385
     3  C    0.205574
     4  C   -0.021546
     5  C    0.003691
     6  C   -0.004538
     7  H    0.016193
     8  H    0.017038
     9  H    0.018346
    10  H    0.019708
    11  N   -0.367535
    12  S    0.153919
    13  C   -0.068161
    14  C   -0.029241
    15  C    0.083928
    16  C   -0.007393
    17  H    0.026566
    18  C    0.005060
    19  C    0.022465
    20  H    0.011892
    21  H    0.020759
    22  H    0.023943
    23  C    0.085437
    24  O   -0.202132
    25  H    0.178693
 Sum of Mulliken charges =  -0.00000

 Dipole moment (field-independent basis, Debye):
    X=             -0.8544    Y=             -2.0251    Z=             -0.0004  Tot=              2.1979
 Quadrupole moment (field-independent basis, Debye-Ang):
   XX=            -83.1446   YY=            -89.5096   ZZ=           -104.3077
   XY=             -7.0977   XZ=             -0.0011   YZ=              0.0004

  Exact polarizability:     397.064    -192.061     386.468      -0.000       0.006      63.306
 Approx polarizability:     277.542     -36.370     259.966       0.002       0.007      82.350

                      1                      2                      3
                      A                      A                      A
 Frequencies --     47.4222                56.6308               110.1180
 Red. masses --      6.2610                 5.0423                 5.2280
 Frc consts  --      0.0083                 0.0095                 0.0374
 IR Inten    --      1.4065                 0.0020                 0.1571

                      4                      5                      6
                      A                      A                      A
 Frequencies --    117.5073               179.2722               225.0606
 Red. masses --      5.6871                 6.6042                 5.2989
 Frc consts  --      0.0463                 0.1251                 0.1581
 IR Inten    --      1.9558                 1.5609                 0.0063

                      7                      8                      9
                      A                      A                      A
 Frequencies --    272.8331               274.0412               298.5681
 Red. masses --      7.8806                 4.8504                 6.6193
 Frc consts  --      0.3456                 0.2146                 0.3477
 IR Inten    --     24.9176                 0.0068                12.2694

                     10                     11                     12
                      A                      A                      A
 Frequencies --    389.2658               413.6680               442.2827
 Red. masses --      4.4937                 9.4794                 3.2435
 Frc consts  --      0.4012                 0.9557                 0.3738
 IR Inten    --      0.0464                12.9320                 3.8164

                     13                     14                     15
                      A                      A                      A
 Frequencies --    488.5197               502.1120               509.2908
 Red. masses --      4.4633                 8.2243                 3.1506
 Frc consts  --      0.6276                 1.2217                 0.4815
 IR Inten    --      0.2032                 2.3054                 0.0641

                     16                     17                     18
                      A                      A                      A
 Frequencies --    519.9601               527.5176               554.2092
 Red. masses --      5.3042                 7.4388                 3.9496
 Frc consts  --      0.8449                 1.2196                 0.7147
 IR Inten    --     10.1428                54.1425                 0.1657

                     19                     20                     21
                      A                      A                      A
 Frequencies --    575.8727               645.0483               706.3453
 Red. masses --      7.7066                 6.6479                10.5453
 Frc consts  --      1.5058                 1.6298                 3.0999
 IR Inten    --     35.9190                11.2404                60.0064

                     22                     23                     24
                      A                      A                      A
 Frequencies --    720.1756               722.0995               735.9620
 Red. masses --      1.4393                 6.5209                 2.0601
 Frc consts  --      0.4398                 2.0033                 0.6574
 IR Inten    --     73.7172                11.3594                27.4019

                     25                     26                     27
                      A                      A                      A
 Frequencies --    740.0770               770.6285               809.9307
 Red. masses --      1.8637                 2.3536                 1.7713
 Frc consts  --      0.6014                 0.8235                 0.6846
 IR Inten    --     10.9197                45.0343                 5.7938

                     28                     29                     30
                      A                      A                      A
 Frequencies --    824.2048               860.2328               882.7851
 Red. masses --      6.3454                 1.4347                 6.4307
 Frc consts  --      2.5397                 0.6255                 2.9527
 IR Inten    --     19.4660                 1.0007                70.0815

                     31                     32                     33
                      A                      A                      A
 Frequencies --    916.5552               953.2197               962.6091
 Red. masses --      1.3434                 1.3452                 1.0888
 Frc consts  --      0.6649                 0.7201                 0.5944
 IR Inten    --      9.1899                 2.4104                56.4983

                     34                     35                     36
                      A                      A                      A
 Frequencies --    966.7334               966.9183               998.6275
 Red. masses --      1.3267                 7.1960                 1.3069
 Frc consts  --      0.7305                 3.9639                 0.7679
 IR Inten    --      6.8994                15.9663                 0.0327

                     37                     38                     39
                      A                      A                      A
 Frequencies --   1041.6112              1044.5442              1092.2857
 Red. masses --      2.1123                 2.1074                 3.9904
 Frc consts  --      1.3502                 1.3547                 2.8051
 IR Inten    --      0.2314                 6.3919                55.4582

                     40                     41                     42
                      A                      A                      A
 Frequencies --   1140.8282              1153.9719              1178.0785
 Red. masses --      1.4752                 1.3713                 1.2214
 Frc consts  --      1.1312                 1.0759                 0.9988
 IR Inten    --     54.8856                16.6816                31.7664

                     43                     44                     45
                      A                      A                      A
 Frequencies --   1181.3899              1219.2342              1251.5793
 Red. masses --      1.3348                 3.9820                 1.6948
 Frc consts  --      1.0976                 3.4876                 1.5642
 IR Inten    --      8.5968                41.5330               160.2897

                     46                     47                     48
                      A                      A                      A
 Frequencies --   1278.3770              1322.4954              1359.0279
 Red. masses --      1.7184                 3.8299                 2.6396
 Frc consts  --      1.6546                 3.9467                 2.8724
 IR Inten    --      0.1836               191.1297                61.2684

                     49                     50                     51
                      A                      A                      A
 Frequencies --   1369.3435              1399.9830              1445.6393
 Red. masses --      4.9706                 2.3607                 2.3388
 Frc consts  --      5.4914                 2.7261                 2.8798
 IR Inten    --     99.4309                45.3402               116.4061

                     52                     53                     54
                      A                      A                      A
 Frequencies --   1468.9139              1494.5404              1528.7218
 Red. masses --      3.6213                 3.4002                 2.7213
 Frc consts  --      4.6036                 4.4747                 3.7470
 IR Inten    --     76.9004                30.3227               225.6129

                     55                     56                     57
                      A                      A                      A
 Frequencies --   1548.7817              1582.9262              1599.6497
 Red. masses --      4.7545                 6.6247                 6.2645
 Frc consts  --      6.7195                 9.7800                 9.4446
 IR Inten    --     66.9076                 8.6681               239.8753

                     58                     59                     60
                      A                      A                      A
 Frequencies --   1614.3210              1633.3965              1647.1365
 Red. masses --      3.3123                 2.7861                 2.9301
 Frc consts  --      5.0858                 4.3796                 4.6837
 IR Inten    --   1009.5034                38.4150               133.1155

                     61                     62                     63
                      A                      A                      A
 Frequencies --   2831.8193              3204.8488              3213.1504
 Red. masses --      1.0813                 1.0862                 1.0859
 Frc consts  --      5.1088                 6.5734                 6.6055
 IR Inten    --     45.4667                 9.2527                 4.6768

                     64                     65                     66
                      A                      A                      A
 Frequencies --   3215.3993              3222.9940              3226.6201
 Red. masses --      1.0897                 1.0884                 1.0953
 Frc consts  --      6.6377                 6.6615                 6.7183
 IR Inten    --      2.0572                11.0787                10.4250

                     67                     68                     69
                      A                      A                      A
 Frequencies --   3232.0208              3233.4273              3240.0502
 Red. masses --      1.0950                 1.0993                 1.0985
 Frc consts  --      6.7390                 6.7714                 6.7943
 IR Inten    --      7.4662                41.7476                27.8631

 - Thermochemistry -
 -------------------
 Temperature   298.150 Kelvin.  Pressure   1.00000 Atm.
 Atom     1 has atomic number  6 and mass  12.00000

 Molecular mass:   227.04049 amu.
 Principal axes and moments of inertia in atomic units:
                           1         2         3
     Eigenvalues --  1296.913956329.576747626.49062
           X           -0.70011   0.71404  -0.00001
           Y            0.71404   0.70011  -0.00002
           Z            0.00000   0.00002   1.00000
 This molecule is an asymmetric top.
 Rotational symmetry number  1.
 Warning -- assumption of classical behavior for rotation
           may cause significant error
 Rotational temperatures (Kelvin)      0.06678     0.01368     0.01136
 Rotational constants (GHZ):           1.39157     0.28513     0.23664
 Zero-point vibrational energy     489891.2 (Joules/Mol)
                                  117.08681 (Kcal/Mol)
 Warning -- explicit consideration of  19 degrees of freedom as
           vibrations may cause significant error
 Vibrational temperatures:     68.23    81.48   158.44   169.07   257.93
          (Kelvin)            323.81   392.55   394.28   429.57   560.07
                              595.18   636.35   702.87   722.43   732.76
                              748.11   758.98   797.38   828.55   928.08
                             1016.27  1036.17  1038.94  1058.89  1064.81
                             1108.76  1165.31  1185.85  1237.68  1270.13
                             1318.72  1371.47  1384.98  1390.91  1391.18
                             1436.80  1498.65  1502.87  1571.56  1641.40
                             1660.31  1694.99  1699.76  1754.21  1800.74
                             1839.30  1902.78  1955.34  1970.18  2014.26
                             2079.95  2113.44  2150.31  2199.49  2228.35
                             2277.48  2301.54  2322.65  2350.09  2369.86
                             4074.36  4611.06  4623.01  4626.24  4637.17
                             4642.39  4650.16  4652.18  4661.71

 Zero-point correction=                           0.186590 (Hartree/Particle)
 Thermal correction to Energy=                    0.198830
 Thermal correction to Enthalpy=                  0.199774
 Thermal correction to Gibbs Free Energy=         0.147321
 Sum of electronic and zero-point Energies=          -1028.502894
 Sum of electronic and thermal Energies=             -1028.490654
 Sum of electronic and thermal Enthalpies=           -1028.489710
 Sum of electronic and thermal Free Energies=        -1028.542163

                     E (Thermal)             CV                S
                      KCal/Mol        Cal/Mol-Kelvin    Cal/Mol-Kelvin
 Total                  124.768             49.180            110.398
 Electronic               0.000              0.000              0.000
 Translational            0.889              2.981             42.162
 Rotational               0.889              2.981             32.504
 Vibrational            122.990             43.218             35.732
 Vibration     1          0.595              1.979              4.922
 Vibration     2          0.596              1.975              4.571
 Vibration     3          0.606              1.941              3.267
 Vibration     4          0.608              1.935              3.141
 Vibration     5          0.629              1.868              2.336
 Vibration     6          0.650              1.803              1.918
 Vibration     7          0.676              1.723              1.578
 Vibration     8          0.676              1.721              1.571
 Vibration     9          0.692              1.676              1.425
 Vibration    10          0.757              1.493              1.003
 Vibration    11          0.777              1.441              0.914
 Vibration    12          0.802              1.378              0.819
 Vibration    13          0.844              1.275              0.687
 Vibration    14          0.857              1.245              0.653
 Vibration    15          0.864              1.229              0.635
 Vibration    16          0.875              1.206              0.610
 Vibration    17          0.882              1.189              0.593
 Vibration    18          0.910              1.130              0.536
 Vibration    19          0.932              1.083              0.493

 Optimization completed.
    -- Stationary point found.
 Normal termination of Gaussian 16 at Tue Jul 14 17:00:19 2020.
