 Gaussian 16, Revision C.01,
 Gaussian 16:  ES64L-G16RevC.01  3-Jul-2019

 ----------------------------------------------------------------------
 #p opt=addgic freq td wb97xd/cc-pvdz nosymm int=ultrafine scrf=(solven
 t=CarbonTetraChloride)
 ----------------------------------------------------------------------

 ------------------------------------------------
 NM 2D-scan of HBT TD-WB97XD pVDZ in CTC Relaxed.
 ------------------------------------------------
 Symbolic Z-matrix:
 Charge =  0 Multiplicity = 1

 SCF Done:  E(RwB97XD) =  -1028.72550095     A.U. after   15 cycles
 Total Energy, E(TD-HF/TD-DFT) =  -1028.59499448
 SCF Done:  E(RwB97XD) =  -1028.80256233     A.U. after   13 cycles
 Total Energy, E(TD-HF/TD-DFT) =  -1028.67398299
 SCF Done:  E(RwB97XD) =  -1028.80646687     A.U. after   13 cycles
 Total Energy, E(TD-HF/TD-DFT) =  -1028.67866064
 SCF Done:  E(RwB97XD) =  -1028.80814311     A.U. after   13 cycles
 Total Energy, E(TD-HF/TD-DFT) =  -1028.68195589
 SCF Done:  E(RwB97XD) =  -1028.80896487     A.U. after   11 cycles
 Total Energy, E(TD-HF/TD-DFT) =  -1028.68248448
 SCF Done:  E(RwB97XD) =  -1028.80907642     A.U. after    9 cycles
 Total Energy, E(TD-HF/TD-DFT) =  -1028.68249427
 SCF Done:  E(RwB97XD) =  -1028.80910831     A.U. after    9 cycles
 Total Energy, E(TD-HF/TD-DFT) =  -1028.68249559
 SCF Done:  E(RwB97XD) =  -1028.80911234     A.U. after    7 cycles
 Total Energy, E(TD-HF/TD-DFT) =  -1028.68249582
 Optimization completed.
    -- Stationary point found.
 Normal termination of Gaussian 16 at Mon Jul 13 17:29:23 2020.

 ----------------------------------------------------------------------
 #P Geom=AllCheck Guess=TCheck SCRF=Check GenChk RwB97XD TD(FC,Read)/CC
 -pVDZ Freq
 ----------------------------------------------------------------------

 Structure from the checkpoint file:  "config_3_1.chk"
 ------------------------------------------------
 NM 2D-scan of HBT TD-WB97XD pVDZ in CTC Relaxed.
 ------------------------------------------------
 Charge =  0 Multiplicity = 1

                          Input orientation:
 ---------------------------------------------------------------------
 Center     Atomic      Atomic             Coordinates (Angstroms)
 Number     Number       Type             X           Y           Z
 ---------------------------------------------------------------------
      1          6           0        1.765443   -3.302209   -0.000009
      2          6           0        0.975722   -2.148505    0.000002
      3          6           0        1.621608   -0.866810   -0.000017
      4          6           0        3.036249   -0.755783   -0.000046
      5          6           0        3.791797   -1.901437   -0.000060
      6          6           0        3.160931   -3.166625   -0.000040
      7          1           0        1.317161   -4.296778    0.000004
      8          1           0        3.477267    0.241542   -0.000058
      9          1           0        4.881521   -1.841921   -0.000085
     10          1           0        3.775857   -4.068189   -0.000050
     11          7           0        0.842280    0.203332   -0.000002
     12         16           0       -0.777800   -1.903466    0.000023
     13          6           0       -1.401858    1.002451    0.000016
     14          6           0       -2.829162    0.915284   -0.000016
     15          6           0       -0.879228    2.403719    0.000043
     16          6           0       -3.634783    2.044890   -0.000005
     17          1           0       -3.293189   -0.072639   -0.000048
     18          6           0       -1.729532    3.514580    0.000061
     19          6           0       -3.100397    3.357320    0.000037
     20          1           0       -4.718574    1.916393   -0.000030
     21          1           0       -1.249236    4.493307    0.000090
     22          1           0       -3.760211    4.225007    0.000047
     23          6           0       -0.483096   -0.082130    0.000024
     24          8           0        0.402135    2.731752    0.000084
     25          1           0        0.920857    1.887236    0.000130
 ---------------------------------------------------------------------

 SCF Done:  E(RwB97XD) =  -1028.80911234     A.U. after    1 cycles

 Excitation energies and oscillator strengths:

 Excited state symmetry could not be determined.
 Excited State   1:      Singlet-?Sym    3.4454 eV  359.85 nm  f=0.6956  <S**2>=0.000
      59 -> 60         0.69034
 This state for optimization and/or second-order correction.
 Total Energy, E(TD-HF/TD-DFT) =  -1028.68249583
 Copying the excited state density for this state as the 1-particle RhoCI density.

 Excited state symmetry could not be determined.
 Excited State   2:      Singlet-?Sym    4.3745 eV  283.43 nm  f=0.2383  <S**2>=0.000
      57 -> 60         0.21495
      58 -> 60         0.62503
      59 -> 63        -0.16712

 Excited state symmetry could not be determined.
 Excited State   3:      Singlet-?Sym    4.5530 eV  272.32 nm  f=0.0422  <S**2>=0.000
      57 -> 60         0.57693
      57 -> 64        -0.13548
      58 -> 60        -0.20227
      58 -> 61        -0.12661
      59 -> 61         0.24998

 Alpha  occ. eigenvalues --  -89.09316 -19.28579 -14.46727 -10.40139 -10.38297
 Alpha  occ. eigenvalues --  -10.35081 -10.34655 -10.33342 -10.32398 -10.32327
 Alpha  occ. eigenvalues --  -10.31805 -10.31502 -10.31275 -10.31213 -10.30428
 Alpha  occ. eigenvalues --  -10.30105  -8.11085  -6.05958  -6.05619  -6.05127
 Alpha  occ. eigenvalues --   -1.17309  -1.08276  -0.96558  -0.95451  -0.91152
 Alpha  occ. eigenvalues --   -0.88771  -0.84865  -0.84248  -0.82271  -0.75995
 Alpha  occ. eigenvalues --   -0.70971  -0.70160  -0.69045  -0.68182  -0.63184
 Alpha  occ. eigenvalues --   -0.60150  -0.58819  -0.58423  -0.55765  -0.54359
 Alpha  occ. eigenvalues --   -0.53509  -0.52995  -0.52552  -0.51057  -0.50361
 Alpha  occ. eigenvalues --   -0.49162  -0.48043  -0.45789  -0.45465  -0.44648
 Alpha  occ. eigenvalues --   -0.43577  -0.42825  -0.42242  -0.39870  -0.37272
 Alpha  occ. eigenvalues --   -0.36401  -0.32203  -0.31399  -0.27834
 Alpha virt. eigenvalues --   -0.01879   0.05128   0.06810   0.07033   0.07093
 Alpha virt. eigenvalues --    0.11191   0.12180   0.15088   0.15709   0.17761
 Alpha virt. eigenvalues --    0.18615   0.20628   0.21695   0.22263   0.22706

 Mulliken charges:
               1
     1  C    0.002391
     2  C   -0.220289
     3  C    0.240152
     4  C   -0.015455
     5  C    0.010848
     6  C   -0.010363
     7  H    0.020376
     8  H    0.016130
     9  H    0.018362
    10  H    0.020836
    11  N   -0.342741
    12  S    0.146042
    13  C   -0.102934
    14  C   -0.012954
    15  C    0.088333
    16  C   -0.015529
    17  H    0.009934
    18  C    0.017231
    19  C    0.021055
    20  H    0.011965
    21  H    0.018801
    22  H    0.021880
    23  C    0.076741
    24  O   -0.186928
    25  H    0.166118
 Sum of Mulliken charges =  -0.00000

 Dipole moment (field-independent basis, Debye):
    X=             -0.1600    Y=             -1.6664    Z=              0.0000  Tot=              1.6741
 Quadrupole moment (field-independent basis, Debye-Ang):
   XX=            -83.1878   YY=            -88.9368   ZZ=           -104.5964
   XY=             -6.7718   XZ=             -0.0000   YZ=              0.0002

  Exact polarizability:     407.933    -195.438     393.079      -0.003       0.003      63.655
 Approx polarizability:     282.165     -36.912     265.252      -0.001       0.002      82.584

                      1                      2                      3
                      A                      A                      A
 Frequencies --     26.0489                54.9272               106.5320
 Red. masses --      5.8702                 6.4296                 4.4932
 Frc consts  --      0.0023                 0.0114                 0.0300
 IR Inten    --      1.2577                 0.0265                 0.4157

                      4                      5                      6
                      A                      A                      A
 Frequencies --    109.8036               181.5226               223.7819
 Red. masses --      5.6450                 6.5402                 5.3658
 Frc consts  --      0.0401                 0.1270                 0.1583
 IR Inten    --      2.1969                 0.7166                 0.0010

                      7                      8                      9
                      A                      A                      A
 Frequencies --    260.8066               264.9587               288.9811
 Red. masses --      8.1599                 4.8098                 6.6135
 Frc consts  --      0.3270                 0.1989                 0.3254
 IR Inten    --     19.9003                 0.2688                 8.6765

                     10                     11                     12
                      A                      A                      A
 Frequencies --    385.7799               394.8081               437.1525
 Red. masses --      8.6361                 4.7571                 3.2516
 Frc consts  --      0.7573                 0.4369                 0.3661
 IR Inten    --     13.3197                 0.2518                 4.7916

                     13                     14                     15
                      A                      A                      A
 Frequencies --    486.4689               492.3657               498.4386
 Red. masses --      4.7960                 4.5299                 8.6123
 Frc consts  --      0.6687                 0.6470                 1.2606
 IR Inten    --     27.0033                 0.1771                 0.3170

                     16                     17                     18
                      A                      A                      A
 Frequencies --    502.6030               524.4322               546.4261
 Red. masses --      3.1374                 8.0348                 3.9023
 Frc consts  --      0.4670                 1.3020                 0.6865
 IR Inten    --      0.1833                22.1332                 0.2557

                     19                     20                     21
                      A                      A                      A
 Frequencies --    578.7366               631.5145               657.6642
 Red. masses --      7.7527                 7.2866                 7.7046
 Frc consts  --      1.5299                 1.7122                 1.9634
 IR Inten    --     65.7834                62.0237                 4.6148

                     22                     23                     24
                      A                      A                      A
 Frequencies --    701.1743               713.8873               731.2763
 Red. masses --      7.0021                 1.9322                 1.8765
 Frc consts  --      2.0283                 0.5802                 0.5912
 IR Inten    --      9.1339                41.4318                29.2178

                     25                     26                     27
                      A                      A                      A
 Frequencies --    750.9568               770.1222               793.4802
 Red. masses --      1.7596                 2.0424                 6.7679
 Frc consts  --      0.5846                 0.7137                 2.5106
 IR Inten    --     33.7567                52.2986                17.2332

                     28                     29                     30
                      A                      A                      A
 Frequencies --    828.0620               854.9085               868.6229
 Red. masses --      1.5943                 1.3823                 1.1199
 Frc consts  --      0.6441                 0.5952                 0.4978
 IR Inten    --      5.6120                 1.8793                65.1610

                     31                     32                     33
                      A                      A                      A
 Frequencies --    888.3228               928.3069               943.8991
 Red. masses --      6.3544                 1.3383                 7.0734
 Frc consts  --      2.9544                 0.6795                 3.7130
 IR Inten    --     43.6597                 1.3757                11.2895

                     34                     35                     36
                      A                      A                      A
 Frequencies --    951.1649               967.3544               997.5830
 Red. masses --      1.3458                 1.3472                 1.3014
 Frc consts  --      0.7174                 0.7427                 0.7631
 IR Inten    --      2.0310                 0.0679                 0.0035

                     37                     38                     39
                      A                      A                      A
 Frequencies --   1035.4870              1037.9356              1062.1637
 Red. masses --      2.2246                 2.2701                 4.8260
 Frc consts  --      1.4054                 1.4409                 3.2079
 IR Inten    --      2.6246                 2.6472                29.3650

                     40                     41                     42
                      A                      A                      A
 Frequencies --   1132.6411              1146.0970              1173.8192
 Red. masses --      1.5328                 1.2981                 1.1556
 Frc consts  --      1.1586                 1.0046                 0.9381
 IR Inten    --     42.0214                16.1184                12.2394

                     43                     44                     45
                      A                      A                      A
 Frequencies --   1176.3192              1220.1629              1234.8857
 Red. masses --      1.1679                 3.5703                 1.9659
 Frc consts  --      0.9522                 3.1318                 1.7663
 IR Inten    --     18.8611               202.3949                73.5840

                     46                     47                     48
                      A                      A                      A
 Frequencies --   1271.4047              1276.2663              1359.7474
 Red. masses --      2.2726                 1.7639                 3.0833
 Frc consts  --      2.1644                 1.6928                 3.3588
 IR Inten    --    209.0357                43.6585                92.7070

                     49                     50                     51
                      A                      A                      A
 Frequencies --   1368.8102              1401.9290              1431.1471
 Red. masses --      4.5901                 2.0659                 2.3717
 Frc consts  --      5.0671                 2.3923                 2.8621
 IR Inten    --     19.5223                32.5769               225.5440

                     52                     53                     54
                      A                      A                      A
 Frequencies --   1470.2301              1474.2720              1518.5295
 Red. masses --      2.1471                 2.6788                 6.6920
 Frc consts  --      2.7345                 3.4304                 9.0919
 IR Inten    --    156.7813                56.7989               432.9192

                     55                     56                     57
                      A                      A                      A
 Frequencies --   1522.6018              1546.3055              1570.5809
 Red. masses --      5.3820                 4.9815                 3.1581
 Frc consts  --      7.3513                 7.0178                 4.5898
 IR Inten    --    377.5055               126.2512               121.9239

                     58                     59                     60
                      A                      A                      A
 Frequencies --   1601.6039              1636.0224              1655.2305
 Red. masses --      5.0611                 5.5459                 6.0270
 Frc consts  --      7.6491                 8.7458                 9.7291
 IR Inten    --     44.6271               399.1576               178.2000

                     61                     62                     63
                      A                      A                      A
 Frequencies --   3203.3524              3206.6616              3214.5788
 Red. masses --      1.0864                 1.0856                 1.0842
 Frc consts  --      6.5685                 6.5770                 6.6009
 IR Inten    --      3.4670                 5.3920                10.2862

                     64                     65                     66
                      A                      A                      A
 Frequencies --   3217.1801              3218.2145              3225.9281
 Red. masses --      1.0838                 1.0832                 1.0948
 Frc consts  --      6.6093                 6.6099                 6.7126
 IR Inten    --     25.2475                16.8939                10.8410

                     67                     68                     69
                      A                      A                      A
 Frequencies --   3226.3191              3234.2998              3240.0601
 Red. masses --      1.0920                 1.0997                 1.0989
 Frc consts  --      6.6968                 6.7777                 6.7971
 IR Inten    --     21.3754                38.3611                28.4415

 - Thermochemistry -
 -------------------
 Temperature   298.150 Kelvin.  Pressure   1.00000 Atm.
 Atom     1 has atomic number  6 and mass  12.00000

 Molecular mass:   227.04049 amu.
 Principal axes and moments of inertia in atomic units:
                           1         2         3
     Eigenvalues --  1384.825976365.643427750.46938
           X           -0.69378   0.72018   0.00000
           Y            0.72018   0.69378  -0.00001
           Z            0.00001   0.00000   1.00000
 This molecule is an asymmetric top.
 Rotational symmetry number  1.
 Warning -- assumption of classical behavior for rotation
           may cause significant error
 Rotational temperatures (Kelvin)      0.06254     0.01361     0.01118
 Rotational constants (GHZ):           1.30323     0.28351     0.23286
 Zero-point vibrational energy     488397.4 (Joules/Mol)
                                  116.72977 (Kcal/Mol)
 Warning -- explicit consideration of  19 degrees of freedom as
           vibrations may cause significant error
 Vibrational temperatures:     37.48    79.03   153.28   157.98   261.17
          (Kelvin)            321.97   375.24   381.22   415.78   555.05
                              568.04   628.96   699.92   708.40   717.14
                              723.13   754.54   786.19   832.67   908.61
                              946.23  1008.83  1027.12  1052.14  1080.46
                             1108.03  1141.64  1191.40  1230.02  1249.75
                             1278.10  1335.63  1358.06  1368.51  1391.81
                             1435.30  1489.83  1493.36  1528.22  1629.62
                             1648.98  1688.86  1692.46  1755.54  1776.73
                             1829.27  1836.26  1956.37  1969.41  2017.06
                             2059.10  2115.33  2121.15  2184.83  2190.68
                             2224.79  2259.72  2304.35  2353.87  2381.51
                             4608.91  4613.67  4625.06  4628.80  4630.29
                             4641.39  4641.95  4653.44  4661.72

 Zero-point correction=                           0.186021 (Hartree/Particle)
 Thermal correction to Energy=                    0.198504
 Thermal correction to Enthalpy=                  0.199448
 Thermal correction to Gibbs Free Energy=         0.145983
 Sum of electronic and zero-point Energies=          -1028.496475
 Sum of electronic and thermal Energies=             -1028.483992
 Sum of electronic and thermal Enthalpies=           -1028.483048
 Sum of electronic and thermal Free Energies=        -1028.536512

                     E (Thermal)             CV                S
                      KCal/Mol        Cal/Mol-Kelvin    Cal/Mol-Kelvin
 Total                  124.563             49.866            112.525
 Electronic               0.000              0.000              0.000
 Translational            0.889              2.981             42.162
 Rotational               0.889              2.981             32.591
 Vibrational            122.785             43.905             37.772
 Vibration     1          0.593              1.985              6.110
 Vibration     2          0.596              1.976              4.632
 Vibration     3          0.605              1.944              3.331
 Vibration     4          0.606              1.941              3.272
 Vibration     5          0.630              1.865              2.313
 Vibration     6          0.649              1.805              1.928
 Vibration     7          0.669              1.744              1.656
 Vibration     8          0.671              1.737              1.629
 Vibration     9          0.686              1.694              1.480
 Vibration    10          0.754              1.501              1.016
 Vibration    11          0.762              1.481              0.982
 Vibration    12          0.797              1.389              0.836
 Vibration    13          0.842              1.280              0.693
 Vibration    14          0.848              1.267              0.677
 Vibration    15          0.854              1.253              0.662
 Vibration    16          0.858              1.244              0.652
 Vibration    17          0.879              1.196              0.600
 Vibration    18          0.902              1.148              0.552
 Vibration    19          0.935              1.077              0.488

 Optimization completed.
    -- Stationary point found.
 Normal termination of Gaussian 16 at Mon Jul 13 17:47:20 2020.
