 Gaussian 16, Revision C.01,
 Gaussian 16:  ES64L-G16RevC.01  3-Jul-2019

 ----------------------------------------------------------------------
 #p opt=addgic freq td wb97xd/cc-pvdz nosymm int=ultrafine scrf=(solven
 t=CarbonTetraChloride)
 ----------------------------------------------------------------------

 ------------------------------------------------
 NM 2D-scan of HBT TD-WB97XD pVDZ in CTC Relaxed.
 ------------------------------------------------
 Symbolic Z-matrix:
 Charge =  0 Multiplicity = 1

 SCF Done:  E(RwB97XD) =  -1028.63916063     A.U. after   16 cycles
 Total Energy, E(TD-HF/TD-DFT) =  -1028.53469878
 SCF Done:  E(RwB97XD) =  -1028.75703379     A.U. after   14 cycles
 Total Energy, E(TD-HF/TD-DFT) =  -1028.65503701
 SCF Done:  E(RwB97XD) =  -1028.76952960     A.U. after   14 cycles
 Total Energy, E(TD-HF/TD-DFT) =  -1028.67206375
 SCF Done:  E(RwB97XD) =  -1028.78226194     A.U. after   14 cycles
 Total Energy, E(TD-HF/TD-DFT) =  -1028.67932902
 SCF Done:  E(RwB97XD) =  -1028.78274001     A.U. after   13 cycles
 Total Energy, E(TD-HF/TD-DFT) =  -1028.68247296
 SCF Done:  E(RwB97XD) =  -1028.78333138     A.U. after   11 cycles
 Total Energy, E(TD-HF/TD-DFT) =  -1028.68256662
 SCF Done:  E(RwB97XD) =  -1028.78330677     A.U. after   10 cycles
 Total Energy, E(TD-HF/TD-DFT) =  -1028.68257159
 Optimization completed.
    -- Stationary point found.
 Normal termination of Gaussian 16 at Mon Jul 13 21:31:41 2020.

 ----------------------------------------------------------------------
 #P Geom=AllCheck Guess=TCheck SCRF=Check GenChk RwB97XD TD(FC,Read)/CC
 -pVDZ Freq
 ----------------------------------------------------------------------

 Structure from the checkpoint file:  "config_12_3.chk"
 ------------------------------------------------
 NM 2D-scan of HBT TD-WB97XD pVDZ in CTC Relaxed.
 ------------------------------------------------
 Charge =  0 Multiplicity = 1

                          Input orientation:
 ---------------------------------------------------------------------
 Center     Atomic      Atomic             Coordinates (Angstroms)
 Number     Number       Type             X           Y           Z
 ---------------------------------------------------------------------
      1          6           0        1.763218   -3.293711   -0.000106
      2          6           0        1.034828   -2.109309   -0.000052
      3          6           0        1.708499   -0.895475    0.000034
      4          6           0        3.104817   -0.797181    0.000073
      5          6           0        3.821568   -1.986464    0.000020
      6          6           0        3.160556   -3.219484   -0.000069
      7          1           0        1.262258   -4.261618   -0.000177
      8          1           0        3.597966    0.175656    0.000138
      9          1           0        4.912099   -1.955410    0.000047
     10          1           0        3.741017   -4.142470   -0.000111
     11          7           0        0.834753    0.138718    0.000062
     12         16           0       -0.729064   -1.804078   -0.000077
     13          6           0       -1.450855    1.058449    0.000003
     14          6           0       -2.823327    0.930615    0.000051
     15          6           0       -0.861560    2.430858   -0.000056
     16          6           0       -3.705881    2.067185    0.000079
     17          1           0       -3.273514   -0.065600    0.000091
     18          6           0       -1.800044    3.525720   -0.000017
     19          6           0       -3.194503    3.352246    0.000050
     20          1           0       -4.782486    1.890433    0.000129
     21          1           0       -1.359482    4.524700   -0.000062
     22          1           0       -3.861177    4.216014    0.000071
     23          6           0       -0.512343   -0.060917    0.000002
     24          8           0        0.372853    2.591180   -0.000150
     25          1           0        1.303550    1.007323    0.000097
 ---------------------------------------------------------------------

 SCF Done:  E(RwB97XD) =  -1028.78330677     A.U. after    1 cycles

 Excitation energies and oscillator strengths:

 Excited state symmetry could not be determined.
 Excited State   1:      Singlet-?Sym    2.7411 eV  452.31 nm  f=0.4237  <S**2>=0.000
      59 -> 60         0.69651
 This state for optimization and/or second-order correction.
 Total Energy, E(TD-HF/TD-DFT) =  -1028.68257157
 Copying the excited state density for this state as the 1-particle RhoCI density.

 Excited state symmetry could not be determined.
 Excited State   2:      Singlet-?Sym    3.3971 eV  364.97 nm  f=0.0000  <S**2>=0.000
      58 -> 60         0.68398
      58 -> 62         0.11626
      58 -> 64         0.10573

 Excited state symmetry could not be determined.
 Excited State   3:      Singlet-?Sym    4.3317 eV  286.22 nm  f=0.5074  <S**2>=0.000
      57 -> 60         0.68159

 Alpha  occ. eigenvalues --  -89.10913 -19.20430 -14.52238 -10.42898 -10.37092
 Alpha  occ. eigenvalues --  -10.36375 -10.35626 -10.33746 -10.33310 -10.32916
 Alpha  occ. eigenvalues --  -10.32642 -10.31388 -10.31331 -10.30429 -10.28970
 Alpha  occ. eigenvalues --  -10.28015  -8.12831  -6.07726  -6.07328  -6.06845
 Alpha  occ. eigenvalues --   -1.13646  -1.09622  -0.98676  -0.95163  -0.93207
 Alpha  occ. eigenvalues --   -0.89196  -0.86633  -0.84292  -0.80519  -0.76137
 Alpha  occ. eigenvalues --   -0.74472  -0.71648  -0.69383  -0.67337  -0.64738
 Alpha  occ. eigenvalues --   -0.60984  -0.59884  -0.56540  -0.56281  -0.55974
 Alpha  occ. eigenvalues --   -0.55073  -0.53499  -0.52974  -0.50755  -0.48818
 Alpha  occ. eigenvalues --   -0.48725  -0.48109  -0.46996  -0.45595  -0.44766
 Alpha  occ. eigenvalues --   -0.44261  -0.42739  -0.42040  -0.40041  -0.36964
 Alpha  occ. eigenvalues --   -0.33884  -0.31612  -0.30875  -0.25344
 Alpha virt. eigenvalues --   -0.02282   0.03481   0.05922   0.06361   0.09709
 Alpha virt. eigenvalues --    0.10745   0.11402   0.14433   0.16018   0.16862
 Alpha virt. eigenvalues --    0.18468   0.19834   0.20932   0.21297   0.22896

 Mulliken charges:
               1
     1  C    0.010131
     2  C   -0.254863
     3  C    0.228606
     4  C   -0.012271
     5  C    0.015674
     6  C    0.001644
     7  H    0.027627
     8  H    0.036373
     9  H    0.029776
    10  H    0.028271
    11  N   -0.062140
    12  S    0.197045
    13  C   -0.108887
    14  C   -0.024717
    15  C    0.118435
    16  C   -0.042494
    17  H   -0.000491
    18  C   -0.050029
    19  C    0.035791
    20  H    0.001504
    21  H   -0.002137
    22  H    0.012877
    23  C    0.084639
    24  O   -0.385289
    25  H    0.114928
 Sum of Mulliken charges =  -0.00000

 Dipole moment (field-independent basis, Debye):
    X=              2.5394    Y=             -5.9372    Z=              0.0003  Tot=              6.4575
 Quadrupole moment (field-independent basis, Debye-Ang):
   XX=            -81.8873   YY=            -95.5974   ZZ=           -104.2524
   XY=             -6.2919   XZ=              0.0003   YZ=              0.0015

  Exact polarizability:     348.153    -119.233     292.449      -0.003       0.004      63.386
 Approx polarizability:     277.571     -41.155     266.785      -0.001       0.003      82.134

 ******    1 imaginary frequencies (negative Signs) ******

                      1                      2                      3
                      A                      A                      A
 Frequencies --   -123.1427                27.5509                82.9916
 Red. masses --      6.0601                 5.8011                 4.8491
 Frc consts  --      0.0541                 0.0026                 0.0197
 IR Inten    --      4.1115                 0.2830                 0.7265

                      4                      5                      6
                      A                      A                      A
 Frequencies --    107.2949               159.3478               218.6967
 Red. masses --      5.7495                 4.1659                 5.3436
 Frc consts  --      0.0390                 0.0623                 0.1506
 IR Inten    --      7.0683                 1.3513                 6.3772

                      7                      8                      9
                      A                      A                      A
 Frequencies --    258.0560               260.4912               315.8431
 Red. masses --      3.8180                 7.4976                 8.2954
 Frc consts  --      0.1498                 0.2998                 0.4876
 IR Inten    --      5.8828                 1.3231                 2.0359

                     10                     11                     12
                      A                      A                      A
 Frequencies --    339.1272               367.4173               398.1651
 Red. masses --      4.2357                 7.4236                 2.2355
 Frc consts  --      0.2870                 0.5904                 0.2088
 IR Inten    --      1.3748                 8.1588                30.5720

                     13                     14                     15
                      A                      A                      A
 Frequencies --    436.5522               468.2707               494.9730
 Red. masses --      4.2586                 1.7090                 7.9221
 Frc consts  --      0.4782                 0.2208                 1.1435
 IR Inten    --      6.6100                17.4148                10.7614

                     16                     17                     18
                      A                      A                      A
 Frequencies --    513.1778               537.6974               553.8234
 Red. masses --      3.2215                 8.5460                 7.0888
 Frc consts  --      0.4999                 1.4558                 1.2811
 IR Inten    --      1.3067                12.1123                45.4934

                     19                     20                     21
                      A                      A                      A
 Frequencies --    559.8372               566.3136               644.9137
 Red. masses --      3.5017                 7.4126                 6.2920
 Frc consts  --      0.6466                 1.4007                 1.5419
 IR Inten    --      0.6027                 8.7513                26.1897

                     22                     23                     24
                      A                      A                      A
 Frequencies --    684.8958               690.4677               731.8074
 Red. masses --      1.5565                 6.1820                 7.8305
 Frc consts  --      0.4302                 1.7365                 2.4708
 IR Inten    --     27.6892                 1.3834                 4.4817

                     25                     26                     27
                      A                      A                      A
 Frequencies --    740.9861               759.1683               766.6700
 Red. masses --      2.3921                 1.7092                 1.7182
 Frc consts  --      0.7738                 0.5804                 0.5950
 IR Inten    --     16.3327                 7.1457                97.4710

                     28                     29                     30
                      A                      A                      A
 Frequencies --    806.3398               843.6951               858.9720
 Red. masses --      6.4731                 1.8748                 1.3909
 Frc consts  --      2.4797                 0.7863                 0.6046
 IR Inten    --     18.7167                 1.3899                 1.5413

                     31                     32                     33
                      A                      A                      A
 Frequencies --    903.4835               907.3045               954.2199
 Red. masses --      5.9919                 1.4349                 1.3556
 Frc consts  --      2.8818                 0.6960                 0.7273
 IR Inten    --      0.6758                 9.3653                 0.4253

                     34                     35                     36
                      A                      A                      A
 Frequencies --    955.6031               963.1911              1002.8345
 Red. masses --      1.3501                 5.1919                 1.2942
 Frc consts  --      0.7264                 2.8379                 0.7668
 IR Inten    --      1.7795                 2.1948                 0.0001

                     37                     38                     39
                      A                      A                      A
 Frequencies --   1031.5155              1054.2359              1077.9271
 Red. masses --      2.3938                 2.3772                 3.4350
 Frc consts  --      1.5007                 1.5566                 2.3516
 IR Inten    --      3.4585                14.4939                 0.6605

                     40                     41                     42
                      A                      A                      A
 Frequencies --   1095.8041              1150.3659              1156.5145
 Red. masses --      1.7099                 1.3614                 1.2165
 Frc consts  --      1.2097                 1.0615                 0.9586
 IR Inten    --     37.6272                10.2919               113.7789

                     43                     44                     45
                      A                      A                      A
 Frequencies --   1171.4913              1181.2258              1227.4359
 Red. masses --      1.3963                 1.1667                 3.1110
 Frc consts  --      1.1290                 0.9591                 2.7615
 IR Inten    --     69.2494                 0.3513                18.1807

                     46                     47                     48
                      A                      A                      A
 Frequencies --   1244.0319              1297.5519              1335.4749
 Red. masses --      2.3430                 1.5988                 2.7822
 Frc consts  --      2.1364                 1.5860                 2.9236
 IR Inten    --     54.5841                10.1585                36.2949

                     49                     50                     51
                      A                      A                      A
 Frequencies --   1363.5883              1387.8575              1405.7691
 Red. masses --      2.3706                 2.2046                 5.7448
 Frc consts  --      2.5970                 2.5018                 6.6889
 IR Inten    --     33.8461                40.9254                70.9835

                     52                     53                     54
                      A                      A                      A
 Frequencies --   1451.0941              1466.1245              1516.7180
 Red. masses --      2.9401                 2.9014                 3.6156
 Frc consts  --      3.6475                 3.6746                 4.9005
 IR Inten    --    100.1581                 7.6970               107.6332

                     55                     56                     57
                      A                      A                      A
 Frequencies --   1527.9198              1566.2005              1619.1536
 Red. masses --      2.7812                 6.3588                 5.2564
 Frc consts  --      3.8255                 9.1900                 8.1192
 IR Inten    --      2.1987               169.2625               113.7697

                     58                     59                     60
                      A                      A                      A
 Frequencies --   1655.5383              1664.7984              1690.9163
 Red. masses --      9.2759                 7.0435                 7.2191
 Frc consts  --     14.9790                11.5016                12.1613
 IR Inten    --    137.3444               113.5710                45.1267

                     61                     62                     63
                      A                      A                      A
 Frequencies --   3186.6306              3206.0820              3214.0193
 Red. masses --      1.0895                 1.0862                 1.0864
 Frc consts  --      6.5187                 6.5781                 6.6123
 IR Inten    --     21.9483                 1.8888                 6.1793

                     64                     65                     66
                      A                      A                      A
 Frequencies --   3219.1691              3225.2455              3232.2547
 Red. masses --      1.0914                 1.0902                 1.0963
 Frc consts  --      6.6640                 6.6814                 6.7484
 IR Inten    --     11.9657                 1.3641                 8.4167

                     67                     68                     69
                      A                      A                      A
 Frequencies --   3232.3748              3242.2533              3911.9434
 Red. masses --      1.0989                 1.0990                 1.0785
 Frc consts  --      6.7648                 6.8067                 9.7242
 IR Inten    --     23.8457                14.0467               366.2472

 - Thermochemistry -
 -------------------
 Temperature   298.150 Kelvin.  Pressure   1.00000 Atm.
 Atom     1 has atomic number  6 and mass  12.00000

 Molecular mass:   227.04049 amu.
 Principal axes and moments of inertia in atomic units:
                           1         2         3
     Eigenvalues --  1298.828786509.714097808.54287
           X           -0.70531   0.70890   0.00000
           Y            0.70890   0.70531  -0.00001
           Z            0.00001   0.00000   1.00000
 This molecule is an asymmetric top.
 Rotational symmetry number  1.
 Warning -- assumption of classical behavior for rotation
           may cause significant error
 Rotational temperatures (Kelvin)      0.06669     0.01331     0.01109
 Rotational constants (GHZ):           1.38951     0.27724     0.23112
    1 imaginary frequencies ignored.
 Zero-point vibrational energy     489807.4 (Joules/Mol)
                                  117.06678 (Kcal/Mol)
 Warning -- explicit consideration of  19 degrees of freedom as
           vibrations may cause significant error
 Vibrational temperatures:     39.64   119.41   154.37   229.27   314.66
          (Kelvin)            371.29   374.79   454.43   487.93   528.63
                              572.87   628.10   673.74   712.16   738.35
                              773.63   796.83   805.48   814.80   927.89
                              985.41   993.43  1052.91  1066.11  1092.27
                             1103.07  1160.14  1213.89  1235.87  1299.91
                             1305.41  1372.91  1374.90  1385.82  1442.86
                             1484.12  1516.81  1550.90  1576.62  1655.12
                             1663.97  1685.51  1699.52  1766.01  1789.88
                             1866.89  1921.45  1961.90  1996.82  2022.59
                             2087.80  2109.43  2182.22  2198.34  2253.41
                             2329.60  2381.95  2395.27  2432.85  4584.85
                             4612.84  4624.26  4631.67  4640.41  4650.49
                             4650.67  4664.88  5628.41

 Zero-point correction=                           0.186558 (Hartree/Particle)
 Thermal correction to Energy=                    0.198539
 Thermal correction to Enthalpy=                  0.199483
 Thermal correction to Gibbs Free Energy=         0.147525
 Sum of electronic and zero-point Energies=          -1028.496014
 Sum of electronic and thermal Energies=             -1028.484033
 Sum of electronic and thermal Enthalpies=           -1028.483088
 Sum of electronic and thermal Free Energies=        -1028.535046

                     E (Thermal)             CV                S
                      KCal/Mol        Cal/Mol-Kelvin    Cal/Mol-Kelvin
 Total                  124.585             48.716            109.355
 Electronic               0.000              0.000              0.000
 Translational            0.889              2.981             42.162
 Rotational               0.889              2.981             32.557
 Vibrational            122.808             42.755             34.636
 Vibration     1          0.593              1.984              5.998
 Vibration     2          0.600              1.961              3.819
 Vibration     3          0.606              1.943              3.317
 Vibration     4          0.621              1.892              2.558
 Vibration     5          0.646              1.813              1.970
 Vibration     6          0.667              1.749              1.675
 Vibration     7          0.669              1.745              1.658
 Vibration     8          0.703              1.643              1.332
 Vibration     9          0.719              1.597              1.216
 Vibration    10          0.740              1.539              1.091
 Vibration    11          0.764              1.474              0.969
 Vibration    12          0.797              1.391              0.838
 Vibration    13          0.825              1.320              0.742
 Vibration    14          0.851              1.261              0.671
 Vibration    15          0.868              1.221              0.626
 Vibration    16          0.893              1.167              0.570
 Vibration    17          0.909              1.131              0.536
 Vibration    18          0.915              1.118              0.524
 Vibration    19          0.922              1.104              0.511

 Optimization completed.
    -- Stationary point found.
 Normal termination of Gaussian 16 at Mon Jul 13 21:49:13 2020.
