 Gaussian 16, Revision C.01,
 Gaussian 16:  ES64L-G16RevC.01  3-Jul-2019

 ----------------------------------------------------------------------
 #p opt=addgic freq td wb97xd/cc-pvdz nosymm int=ultrafine scrf=(solven
 t=CarbonTetraChloride)
 ----------------------------------------------------------------------

 ------------------------------------------------
 NM 2D-scan of HBT TD-WB97XD pVDZ in CTC Relaxed.
 ------------------------------------------------
 Symbolic Z-matrix:
 Charge =  0 Multiplicity = 1

 SCF Done:  E(RwB97XD) =  -1028.80981033     A.U. after   15 cycles
 Total Energy, E(TD-HF/TD-DFT) =  -1028.69153216
 SCF Done:  E(RwB97XD) =  -1028.80978033     A.U. after   10 cycles
 Total Energy, E(TD-HF/TD-DFT) =  -1028.69157503
 SCF Done:  E(RwB97XD) =  -1028.80967300     A.U. after   10 cycles
 Total Energy, E(TD-HF/TD-DFT) =  -1028.69158159
 SCF Done:  E(RwB97XD) =  -1028.80944887     A.U. after   10 cycles
 Total Energy, E(TD-HF/TD-DFT) =  -1028.69158762
 Optimization completed.
    -- Stationary point found.
 Normal termination of Gaussian 16 at Mon Jul 13 15:06:10 2020.

 ----------------------------------------------------------------------
 #P Geom=AllCheck Guess=TCheck SCRF=Check GenChk RwB97XD TD(FC,Read)/CC
 -pVDZ Freq
 ----------------------------------------------------------------------

 Structure from the checkpoint file:  "config_7_4.chk"
 ------------------------------------------------
 NM 2D-scan of HBT TD-WB97XD pVDZ in CTC Relaxed.
 ------------------------------------------------
 Charge =  0 Multiplicity = 1

                          Input orientation:
 ---------------------------------------------------------------------
 Center     Atomic      Atomic             Coordinates (Angstroms)
 Number     Number       Type             X           Y           Z
 ---------------------------------------------------------------------
      1          6           0        1.720549   -3.269883   -0.000028
      2          6           0        1.001895   -2.075212   -0.000015
      3          6           0        1.680134   -0.824690   -0.000010
      4          6           0        3.087544   -0.779361   -0.000015
      5          6           0        3.787997   -1.972099   -0.000027
      6          6           0        3.116199   -3.207504   -0.000034
      7          1           0        1.209043   -4.233215   -0.000033
      8          1           0        3.593218    0.186679   -0.000010
      9          1           0        4.879206   -1.954715   -0.000032
     10          1           0        3.691733   -4.134107   -0.000044
     11          7           0        0.865656    0.249403   -0.000002
     12         16           0       -0.744238   -1.812364   -0.000005
     13          6           0       -1.405071    1.011541    0.000008
     14          6           0       -2.801223    0.871589   -0.000004
     15          6           0       -0.866030    2.400755    0.000032
     16          6           0       -3.643420    1.995866    0.000018
     17          1           0       -3.243568   -0.126536   -0.000028
     18          6           0       -1.755623    3.499526    0.000055
     19          6           0       -3.132037    3.306417    0.000051
     20          1           0       -4.723655    1.841242    0.000011
     21          1           0       -1.306280    4.493200    0.000076
     22          1           0       -3.809739    4.160237    0.000070
     23          6           0       -0.457697   -0.053312    0.000000
     24          8           0        0.403507    2.620108    0.000034
     25          1           0        0.918468    1.484115    0.000016
 ---------------------------------------------------------------------

 SCF Done:  E(RwB97XD) =  -1028.80944887     A.U. after    1 cycles

 Excitation energies and oscillator strengths:

 Excited state symmetry could not be determined.
 Excited State   1:      Singlet-?Sym    3.2072 eV  386.58 nm  f=0.4868  <S**2>=0.000
      59 -> 60         0.69375
 This state for optimization and/or second-order correction.
 Total Energy, E(TD-HF/TD-DFT) =  -1028.69158761
 Copying the excited state density for this state as the 1-particle RhoCI density.

 Excited state symmetry could not be determined.
 Excited State   2:      Singlet-?Sym    4.3664 eV  283.95 nm  f=0.3936  <S**2>=0.000
      57 -> 60        -0.11249
      58 -> 60         0.66969

 Excited state symmetry could not be determined.
 Excited State   3:      Singlet-?Sym    4.5041 eV  275.27 nm  f=0.0000  <S**2>=0.000
      56 -> 60         0.68815
      56 -> 64        -0.10540

 Alpha  occ. eigenvalues --  -89.10047 -19.24376 -14.49284 -10.41073 -10.37094
 Alpha  occ. eigenvalues --  -10.36199 -10.35692 -10.32907 -10.32125 -10.31963
 Alpha  occ. eigenvalues --  -10.31960 -10.31917 -10.31912 -10.31358 -10.29757
 Alpha  occ. eigenvalues --  -10.29250  -8.11952  -6.06821  -6.06465  -6.05987
 Alpha  occ. eigenvalues --   -1.13727  -1.09762  -0.97367  -0.95217  -0.92473
 Alpha  occ. eigenvalues --   -0.88978  -0.85642  -0.83888  -0.82027  -0.75923
 Alpha  occ. eigenvalues --   -0.71502  -0.70849  -0.68556  -0.68138  -0.63684
 Alpha  occ. eigenvalues --   -0.60827  -0.59262  -0.57656  -0.55377  -0.54770
 Alpha  occ. eigenvalues --   -0.54334  -0.53421  -0.52600  -0.51148  -0.49955
 Alpha  occ. eigenvalues --   -0.49440  -0.47479  -0.46399  -0.45461  -0.45028
 Alpha  occ. eigenvalues --   -0.44012  -0.43058  -0.42011  -0.40676  -0.36610
 Alpha  occ. eigenvalues --   -0.34759  -0.32915  -0.31198  -0.27211
 Alpha virt. eigenvalues --   -0.01853   0.04388   0.06588   0.06687   0.08184
 Alpha virt. eigenvalues --    0.10579   0.13009   0.14903   0.16048   0.17732
 Alpha virt. eigenvalues --    0.18855   0.20693   0.21488   0.22006   0.22682

 Mulliken charges:
               1
     1  C    0.012439
     2  C   -0.236244
     3  C    0.274001
     4  C   -0.013927
     5  C    0.011347
     6  C   -0.003422
     7  H    0.022970
     8  H    0.025994
     9  H    0.023354
    10  H    0.023825
    11  N   -0.280543
    12  S    0.182510
    13  C   -0.119058
    14  C   -0.019092
    15  C    0.122206
    16  C   -0.029187
    17  H    0.006087
    18  C   -0.007154
    19  C    0.029424
    20  H    0.006392
    21  H    0.009860
    22  H    0.018400
    23  C    0.071621
    24  O   -0.350726
    25  H    0.218924
 Sum of Mulliken charges =  -0.00000

 Dipole moment (field-independent basis, Debye):
    X=              0.6565    Y=             -3.7789    Z=             -0.0000  Tot=              3.8355
 Quadrupole moment (field-independent basis, Debye-Ang):
   XX=            -83.2093   YY=            -91.7179   ZZ=           -104.3363
   XY=             -6.8960   XZ=             -0.0001   YZ=              0.0002

  Exact polarizability:     361.927    -141.511     321.664      -0.002       0.003      63.366
 Approx polarizability:     275.378     -35.534     264.024      -0.001       0.002      82.340

 ******    1 imaginary frequencies (negative Signs) ******

                      1                      2                      3
                      A                      A                      A
 Frequencies --  -1010.9986                30.0754                44.9597
 Red. masses --      1.0926                 6.2065                 7.0902
 Frc consts  --      0.6580                 0.0033                 0.0084
 IR Inten    --   1881.4655                 0.1471                 1.5875

                      4                      5                      6
                      A                      A                      A
 Frequencies --    108.1337               134.0251               177.0204
 Red. masses --      4.7086                 5.7258                 5.8014
 Frc consts  --      0.0324                 0.0606                 0.1071
 IR Inten    --      0.0016                 2.7650                 0.4367

                      7                      8                      9
                      A                      A                      A
 Frequencies --    220.5076               269.0225               272.6849
 Red. masses --      5.3519                 4.7243                 7.3837
 Frc consts  --      0.1533                 0.2014                 0.3235
 IR Inten    --      0.1015                 0.2106                10.1452

                     10                     11                     12
                      A                      A                      A
 Frequencies --    370.7575               377.3149               403.5275
 Red. masses --      5.0155                 6.3350                11.1965
 Frc consts  --      0.4062                 0.5314                 1.0742
 IR Inten    --      0.6086                 7.7838                 3.4920

                     13                     14                     15
                      A                      A                      A
 Frequencies --    437.5811               473.2569               496.2952
 Red. masses --      3.2287                 4.7837                 3.1538
 Frc consts  --      0.3643                 0.6313                 0.4577
 IR Inten    --      5.0918                 0.2090                 0.4681

                     16                     17                     18
                      A                      A                      A
 Frequencies --    505.5964               541.8759               556.3278
 Red. masses --      8.8963                 8.4543                 3.8792
 Frc consts  --      1.3399                 1.4626                 0.7074
 IR Inten    --      1.3955                 0.7921                 0.3363

                     19                     20                     21
                      A                      A                      A
 Frequencies --    579.7625               602.6101               663.2315
 Red. masses --      7.5057                 7.3411                 6.8132
 Frc consts  --      1.4864                 1.5707                 1.7658
 IR Inten    --     11.6355                10.7823               105.2231

                     22                     23                     24
                      A                      A                      A
 Frequencies --    695.2151               708.7661               740.4984
 Red. masses --      1.6381                 6.4243                 2.2819
 Frc consts  --      0.4665                 1.9014                 0.7372
 IR Inten    --     39.0007                13.6677                17.3381

                     25                     26                     27
                      A                      A                      A
 Frequencies --    753.1233               764.2678               767.6873
 Red. masses --      8.4519                 1.9002                 1.7719
 Frc consts  --      2.8245                 0.6539                 0.6153
 IR Inten    --     20.9520                 7.5596                82.2275

                     28                     29                     30
                      A                      A                      A
 Frequencies --    817.2689               827.2405               863.2769
 Red. masses --      6.2598                 1.6247                 1.4003
 Frc consts  --      2.4634                 0.6551                 0.6149
 IR Inten    --     12.6482                 0.0328                 1.0110

                     31                     32                     33
                      A                      A                      A
 Frequencies --    908.9276               919.2551               954.8621
 Red. masses --      1.3818                 6.7197                 1.3461
 Frc consts  --      0.6726                 3.3456                 0.7231
 IR Inten    --      5.5203                22.5367                 1.8462

                     34                     35                     36
                      A                      A                      A
 Frequencies --    956.1222               992.9956              1001.2543
 Red. masses --      1.3802                 7.3541                 1.2940
 Frc consts  --      0.7434                 4.2724                 0.7643
 IR Inten    --      0.6184                51.6269                 0.0029

                     37                     38                     39
                      A                      A                      A
 Frequencies --   1040.6307              1048.6302              1084.1907
 Red. masses --      2.1660                 2.1121                 4.4023
 Frc consts  --      1.3820                 1.3684                 3.0489
 IR Inten    --      0.2163                 2.3257                61.5543

                     40                     41                     42
                      A                      A                      A
 Frequencies --   1127.8136              1150.2286              1167.8281
 Red. masses --      1.4518                 1.3223                 1.1731
 Frc consts  --      1.0880                 1.0307                 0.9427
 IR Inten    --     31.1119                10.4539               116.7321

                     43                     44                     45
                      A                      A                      A
 Frequencies --   1178.4401              1234.8201              1255.0571
 Red. masses --      1.1523                 1.0537                 1.8057
 Frc consts  --      0.9428                 0.9466                 1.6758
 IR Inten    --     19.6807                63.7969                87.5673

                     46                     47                     48
                      A                      A                      A
 Frequencies --   1265.0234              1298.3330              1345.4893
 Red. masses --      2.8471                 2.1233                 3.9942
 Frc consts  --      2.6844                 2.1087                 4.2603
 IR Inten    --     30.0372                15.7205               154.0061

                     49                     50                     51
                      A                      A                      A
 Frequencies --   1366.3960              1394.5821              1404.9717
 Red. masses --      6.2327                 2.6170                 2.2123
 Frc consts  --      6.8562                 2.9988                 2.5729
 IR Inten    --    198.5165                12.9036                 7.8009

                     52                     53                     54
                      A                      A                      A
 Frequencies --   1446.7385              1477.3467              1499.1766
 Red. masses --      2.9243                 4.0013                 3.8641
 Frc consts  --      3.6062                 5.1454                 5.1168
 IR Inten    --    513.1916               194.0651               206.5028

                     55                     56                     57
                      A                      A                      A
 Frequencies --   1530.7621              1542.6726              1563.6075
 Red. masses --      5.2611                 4.9590                 4.2555
 Frc consts  --      7.2634                 6.9533                 6.1300
 IR Inten    --     59.3104               100.7863               210.9652

                     58                     59                     60
                      A                      A                      A
 Frequencies --   1623.8842              1643.1598              1658.8691
 Red. masses --      6.0475                 6.0381                 6.4455
 Frc consts  --      9.3958                 9.6053                10.4504
 IR Inten    --     44.7058               864.6656                79.0245

                     61                     62                     63
                      A                      A                      A
 Frequencies --   1876.5926              3201.9780              3209.2876
 Red. masses --      1.1046                 1.0879                 1.0862
 Frc consts  --      2.2920                 6.5719                 6.5915
 IR Inten    --    148.8895                16.1379                 7.0539

                     64                     65                     66
                      A                      A                      A
 Frequencies --   3216.2765              3219.9668              3225.8218
 Red. masses --      1.0882                 1.0901                 1.0927
 Frc consts  --      6.6325                 6.6592                 6.6992
 IR Inten    --      2.4445                 3.1293                18.8993

                     67                     68                     69
                      A                      A                      A
 Frequencies --   3230.9689              3237.5590              3238.2937
 Red. masses --      1.0953                 1.0992                 1.0988
 Frc consts  --      6.7369                 6.7885                 6.7888
 IR Inten    --     10.3471                29.3341                 8.2753

 - Thermochemistry -
 -------------------
 Temperature   298.150 Kelvin.  Pressure   1.00000 Atm.
 Atom     1 has atomic number  6 and mass  12.00000

 Molecular mass:   227.04049 amu.
 Principal axes and moments of inertia in atomic units:
                           1         2         3
     Eigenvalues --  1327.185086320.736017647.92109
           X           -0.70224   0.71194   0.00000
           Y            0.71194   0.70224  -0.00001
           Z            0.00001   0.00001   1.00000
 This molecule is an asymmetric top.
 Rotational symmetry number  1.
 Warning -- assumption of classical behavior for rotation
           may cause significant error
 Rotational temperatures (Kelvin)      0.06526     0.01370     0.01133
 Rotational constants (GHZ):           1.35983     0.28553     0.23598
    1 imaginary frequencies ignored.
 Zero-point vibrational energy     478151.7 (Joules/Mol)
                                  114.28100 (Kcal/Mol)
 Warning -- explicit consideration of  19 degrees of freedom as
           vibrations may cause significant error
 Vibrational temperatures:     43.27    64.69   155.58   192.83   254.69
          (Kelvin)            317.26   387.06   392.33   533.44   542.87
                              580.59   629.58   680.91   714.06   727.44
                              779.64   800.43   834.15   867.02   954.24
                             1000.26  1019.76  1065.41  1083.58  1099.61
                             1104.53  1175.87  1190.21  1242.06  1307.74
                             1322.60  1373.83  1375.65  1428.70  1440.58
                             1497.24  1508.75  1559.91  1622.67  1654.92
                             1680.24  1695.51  1776.63  1805.75  1820.09
                             1868.01  1935.86  1965.94  2006.49  2021.44
                             2081.53  2125.57  2156.98  2202.43  2219.56
                             2249.68  2336.41  2364.14  2386.74  2700.00
                             4606.93  4617.45  4627.50  4632.81  4641.24
                             4648.64  4658.13  4659.18

 Zero-point correction=                           0.182118 (Hartree/Particle)
 Thermal correction to Energy=                    0.194243
 Thermal correction to Enthalpy=                  0.195187
 Thermal correction to Gibbs Free Energy=         0.142407
 Sum of electronic and zero-point Energies=          -1028.509469
 Sum of electronic and thermal Energies=             -1028.497345
 Sum of electronic and thermal Enthalpies=           -1028.496400
 Sum of electronic and thermal Free Energies=        -1028.549180

                     E (Thermal)             CV                S
                      KCal/Mol        Cal/Mol-Kelvin    Cal/Mol-Kelvin
 Total                  121.889             48.447            111.085
 Electronic               0.000              0.000              0.000
 Translational            0.889              2.981             42.162
 Rotational               0.889              2.981             32.528
 Vibrational            120.112             42.486             36.394
 Vibration     1          0.594              1.984              5.824
 Vibration     2          0.595              1.979              5.028
 Vibration     3          0.606              1.943              3.302
 Vibration     4          0.613              1.919              2.887
 Vibration     5          0.628              1.871              2.360
 Vibration     6          0.647              1.810              1.955
 Vibration     7          0.673              1.730              1.602
 Vibration     8          0.676              1.724              1.579
 Vibration     9          0.743              1.532              1.077
 Vibration    10          0.748              1.518              1.050
 Vibration    11          0.769              1.463              0.950
 Vibration    12          0.798              1.388              0.834
 Vibration    13          0.830              1.309              0.728
 Vibration    14          0.852              1.258              0.667
 Vibration    15          0.861              1.238              0.644
 Vibration    16          0.897              1.157              0.561
 Vibration    17          0.912              1.126              0.531
 Vibration    18          0.936              1.075              0.486
 Vibration    19          0.961              1.026              0.445

 Optimization completed.
    -- Stationary point found.
 Normal termination of Gaussian 16 at Mon Jul 13 15:23:41 2020.
