 Gaussian 16, Revision C.01,
 Gaussian 16:  ES64L-G16RevC.01  3-Jul-2019

 ----------------------------------------------------------------------
 #p opt=addgic freq td wb97xd/cc-pvdz nosymm int=ultrafine scrf=(solven
 t=CarbonTetraChloride)
 ----------------------------------------------------------------------

 ------------------------------------------------
 NM 2D-scan of HBT TD-WB97XD pVDZ in CTC Relaxed.
 ------------------------------------------------
 Symbolic Z-matrix:
 Charge =  0 Multiplicity = 1

 SCF Done:  E(RwB97XD) =  -1028.73047665     A.U. after   16 cycles
 Total Energy, E(TD-HF/TD-DFT) =  -1028.62411570
 SCF Done:  E(RwB97XD) =  -1028.78620529     A.U. after   14 cycles
 Total Energy, E(TD-HF/TD-DFT) =  -1028.68421309
 SCF Done:  E(RwB97XD) =  -1028.79908789     A.U. after   13 cycles
 Total Energy, E(TD-HF/TD-DFT) =  -1028.69734574
 SCF Done:  E(RwB97XD) =  -1028.80062832     A.U. after   12 cycles
 Total Energy, E(TD-HF/TD-DFT) =  -1028.69834477
 SCF Done:  E(RwB97XD) =  -1028.80042632     A.U. after   11 cycles
 Total Energy, E(TD-HF/TD-DFT) =  -1028.69840314
 SCF Done:  E(RwB97XD) =  -1028.80037569     A.U. after   10 cycles
 Total Energy, E(TD-HF/TD-DFT) =  -1028.69841051
 Optimization completed.
    -- Stationary point found.
 Normal termination of Gaussian 16 at Tue Jul 14 13:30:08 2020.

 ----------------------------------------------------------------------
 #P Geom=AllCheck Guess=TCheck SCRF=Check GenChk RwB97XD TD(FC,Read)/CC
 -pVDZ Freq
 ----------------------------------------------------------------------

 Structure from the checkpoint file:  "config_10_17.chk"
 ------------------------------------------------
 NM 2D-scan of HBT TD-WB97XD pVDZ in CTC Relaxed.
 ------------------------------------------------
 Charge =  0 Multiplicity = 1

                          Input orientation:
 ---------------------------------------------------------------------
 Center     Atomic      Atomic             Coordinates (Angstroms)
 Number     Number       Type             X           Y           Z
 ---------------------------------------------------------------------
      1          6           0        1.560014   -3.291151   -0.000010
      2          6           0        1.006468   -2.016886   -0.000007
      3          6           0        1.807827   -0.862894   -0.000018
      4          6           0        3.205207   -0.980406   -0.000032
      5          6           0        3.753927   -2.260294   -0.000035
      6          6           0        2.948178   -3.406500   -0.000024
      7          1           0        0.921088   -4.174634   -0.000002
      8          1           0        3.838110   -0.092450   -0.000039
      9          1           0        4.839607   -2.368774   -0.000045
     10          1           0        3.408239   -4.395054   -0.000027
     11          7           0        1.041876    0.274087   -0.000015
     12         16           0       -0.696167   -1.592170    0.000010
     13          6           0       -1.329615    1.121422    0.000020
     14          6           0       -2.674418    0.778946    0.000012
     15          6           0       -0.937038    2.543513    0.000048
     16          6           0       -3.692892    1.769196    0.000022
     17          1           0       -2.975247   -0.271576   -0.000007
     18          6           0       -2.005591    3.499617    0.000045
     19          6           0       -3.357142    3.117836    0.000035
     20          1           0       -4.737147    1.453503    0.000016
     21          1           0       -1.718960    4.553027    0.000060
     22          1           0       -4.140533    3.877339    0.000038
     23          6           0       -0.312989    0.106435    0.000005
     24          8           0        0.282529    2.849212    0.000056
     25          1           0        1.423261    1.210193   -0.000010
 ---------------------------------------------------------------------

 SCF Done:  E(RwB97XD) =  -1028.80037569     A.U. after    1 cycles

 Excitation energies and oscillator strengths:

 Excited state symmetry could not be determined.
 Excited State   1:      Singlet-?Sym    2.7746 eV  446.85 nm  f=0.4426  <S**2>=0.000
      59 -> 60         0.69760
 This state for optimization and/or second-order correction.
 Total Energy, E(TD-HF/TD-DFT) =  -1028.69841052
 Copying the excited state density for this state as the 1-particle RhoCI density.

 Excited state symmetry could not be determined.
 Excited State   2:      Singlet-?Sym    3.4228 eV  362.23 nm  f=0.0000  <S**2>=0.000
      58 -> 60         0.68363
      58 -> 62         0.11600
      58 -> 64         0.10799

 Excited state symmetry could not be determined.
 Excited State   3:      Singlet-?Sym    4.2726 eV  290.18 nm  f=0.3858  <S**2>=0.000
      57 -> 60         0.68400

 Alpha  occ. eigenvalues --  -89.10336 -19.20358 -14.53231 -10.42305 -10.37707
 Alpha  occ. eigenvalues --  -10.36182 -10.35412 -10.33446 -10.33307 -10.32771
 Alpha  occ. eigenvalues --  -10.32508 -10.31383 -10.30791 -10.30671 -10.29091
 Alpha  occ. eigenvalues --  -10.28230  -8.12395  -6.07267  -6.06887  -6.06415
 Alpha  occ. eigenvalues --   -1.13099  -1.08819  -0.98605  -0.95730  -0.93297
 Alpha  occ. eigenvalues --   -0.89073  -0.86914  -0.83839  -0.80953  -0.75865
 Alpha  occ. eigenvalues --   -0.73982  -0.72242  -0.69103  -0.67591  -0.65165
 Alpha  occ. eigenvalues --   -0.61074  -0.59733  -0.56563  -0.56157  -0.55995
 Alpha  occ. eigenvalues --   -0.55093  -0.53859  -0.53058  -0.50347  -0.48680
 Alpha  occ. eigenvalues --   -0.48645  -0.48459  -0.47061  -0.45584  -0.44891
 Alpha  occ. eigenvalues --   -0.44037  -0.42834  -0.42287  -0.39880  -0.36889
 Alpha  occ. eigenvalues --   -0.33782  -0.31470  -0.30932  -0.25528
 Alpha virt. eigenvalues --   -0.02155   0.03611   0.05551   0.06720   0.09586
 Alpha virt. eigenvalues --    0.10883   0.13786   0.14667   0.16125   0.17026
 Alpha virt. eigenvalues --    0.17950   0.19837   0.20700   0.21213   0.22578

 Mulliken charges:
               1
     1  C    0.020060
     2  C   -0.236639
     3  C    0.233702
     4  C   -0.010245
     5  C    0.011061
     6  C    0.003795
     7  H    0.025452
     8  H    0.031496
     9  H    0.028579
    10  H    0.027480
    11  N   -0.117813
    12  S    0.199816
    13  C   -0.068050
    14  C   -0.040285
    15  C    0.101322
    16  C   -0.035099
    17  H    0.011876
    18  C   -0.044709
    19  C    0.034171
    20  H    0.000851
    21  H   -0.000075
    22  H    0.014058
    23  C    0.071371
    24  O   -0.391611
    25  H    0.129437
 Sum of Mulliken charges =  -0.00000

 Dipole moment (field-independent basis, Debye):
    X=              2.3578    Y=             -6.1457    Z=             -0.0001  Tot=              6.5825
 Quadrupole moment (field-independent basis, Debye-Ang):
   XX=            -81.3770   YY=            -97.4121   ZZ=           -104.1455
   XY=             -6.0392   XZ=             -0.0002   YZ=             -0.0002

  Exact polarizability:     346.698    -119.575     294.003      -0.002       0.002      63.216
 Approx polarizability:     273.999     -37.809     264.329      -0.001       0.001      81.942

 ******    1 imaginary frequencies (negative Signs) ******

                      1                      2                      3
                      A                      A                      A
 Frequencies --    -50.5672                48.0669               109.7825
 Red. masses --      5.0926                 6.2394                 5.8227
 Frc consts  --      0.0077                 0.0085                 0.0413
 IR Inten    --      1.8492                 1.0914                 8.4466

                      4                      5                      6
                      A                      A                      A
 Frequencies --    110.8820               180.5865               226.2392
 Red. masses --      5.7508                 5.5370                 5.5830
 Frc consts  --      0.0417                 0.1064                 0.1684
 IR Inten    --      1.0772                 0.0321                 0.3851

                      7                      8                      9
                      A                      A                      A
 Frequencies --    262.3587               274.0641               288.3942
 Red. masses --      8.6250                 4.4846                 7.5493
 Frc consts  --      0.3498                 0.1985                 0.3699
 IR Inten    --      2.3166                 1.1079                 1.6729

                     10                     11                     12
                      A                      A                      A
 Frequencies --    345.5604               385.5347               428.0602
 Red. masses --      4.5350                 7.3685                 3.7709
 Frc consts  --      0.3191                 0.6453                 0.4071
 IR Inten    --      1.1672                 7.9654                 2.7934

                     13                     14                     15
                      A                      A                      A
 Frequencies --    447.3238               505.1132               513.8359
 Red. masses --      4.0481                 8.4531                 3.2230
 Frc consts  --      0.4772                 1.2707                 0.5014
 IR Inten    --      5.2499                12.1839                 0.2230

                     16                     17                     18
                      A                      A                      A
 Frequencies --    541.6575               543.0087               559.2106
 Red. masses --      6.1287                 8.9795                 3.7942
 Frc consts  --      1.0594                 1.5600                 0.6991
 IR Inten    --     27.0993                22.2409                 1.1898

                     19                     20                     21
                      A                      A                      A
 Frequencies --    567.5785               636.7026               660.7399
 Red. masses --      7.2590                 6.2349                 1.0997
 Frc consts  --      1.3778                 1.4892                 0.2829
 IR Inten    --      7.9522                23.1517                82.4349

                     22                     23                     24
                      A                      A                      A
 Frequencies --    694.8381               716.5412               736.1395
 Red. masses --      1.4621                 5.8391                 7.7142
 Frc consts  --      0.4159                 1.7664                 2.4630
 IR Inten    --     17.3356                 2.3812                 5.2920

                     25                     26                     27
                      A                      A                      A
 Frequencies --    746.0861               757.7372               766.6736
 Red. masses --      2.4697                 1.6913                 1.6999
 Frc consts  --      0.8100                 0.5721                 0.5887
 IR Inten    --     26.0179                12.1505                80.6154

                     28                     29                     30
                      A                      A                      A
 Frequencies --    824.2080               834.4383               868.8335
 Red. masses --      6.3624                 2.0130                 1.3772
 Frc consts  --      2.5465                 0.8258                 0.6125
 IR Inten    --     17.4994                 1.4247                 0.9931

                     31                     32                     33
                      A                      A                      A
 Frequencies --    878.7040               899.1869               951.9865
 Red. masses --      4.8543                 1.4497                 1.3595
 Frc consts  --      2.2083                 0.6906                 0.7259
 IR Inten    --      1.5067                 8.8156                 0.3856

                     34                     35                     36
                      A                      A                      A
 Frequencies --    958.3028               960.7327              1003.6504
 Red. masses --      1.3525                 4.8762                 1.2979
 Frc consts  --      0.7318                 2.6518                 0.7703
 IR Inten    --      1.7355                 0.1728                 0.0063

                     37                     38                     39
                      A                      A                      A
 Frequencies --   1054.8676              1056.8889              1093.0405
 Red. masses --      2.1825                 2.1171                 3.7722
 Frc consts  --      1.4309                 1.3933                 2.6553
 IR Inten    --      0.1844                10.0547                 1.0618

                     40                     41                     42
                      A                      A                      A
 Frequencies --   1108.7157              1155.3629              1162.0689
 Red. masses --      1.6663                 1.2711                 1.3580
 Frc consts  --      1.2068                 0.9997                 1.0805
 IR Inten    --     29.6525                39.1267                58.1534

                     43                     44                     45
                      A                      A                      A
 Frequencies --   1175.3863              1187.2882              1254.8789
 Red. masses --      1.1990                 1.4257                 2.5973
 Frc consts  --      0.9760                 1.1841                 2.4097
 IR Inten    --     31.3848                14.5812                23.2098

                     46                     47                     48
                      A                      A                      A
 Frequencies --   1261.9591              1298.2316              1337.9467
 Red. masses --      2.1242                 1.7365                 4.5533
 Frc consts  --      1.9932                 1.7244                 4.8023
 IR Inten    --     50.0005                 2.4915                 1.9999

                     49                     50                     51
                      A                      A                      A
 Frequencies --   1362.7174              1395.9096              1410.9282
 Red. masses --      3.3179                 3.8810                 2.4594
 Frc consts  --      3.6301                 4.4556                 2.8846
 IR Inten    --    128.0909                18.2637                 6.1174

                     52                     53                     54
                      A                      A                      A
 Frequencies --   1440.1290              1475.2428              1511.1146
 Red. masses --      2.5534                 3.3087                 2.9403
 Frc consts  --      3.1201                 4.2427                 3.9559
 IR Inten    --    177.9027                 2.0840                36.9761

                     55                     56                     57
                      A                      A                      A
 Frequencies --   1522.8088              1547.4520              1594.6589
 Red. masses --      3.8249                 4.7748                 5.0495
 Frc consts  --      5.2259                 6.7366                 7.5654
 IR Inten    --     39.4575               207.6097               118.9665

                     58                     59                     60
                      A                      A                      A
 Frequencies --   1623.6652              1659.0412              1668.0172
 Red. masses --      6.7421                 6.8776                 6.8987
 Frc consts  --     10.4722                11.1533                11.3089
 IR Inten    --    148.4451                22.0607               120.7965

                     61                     62                     63
                      A                      A                      A
 Frequencies --   3196.6417              3209.1654              3211.5817
 Red. masses --      1.0881                 1.0867                 1.0862
 Frc consts  --      6.5509                 6.5939                 6.6010
 IR Inten    --     28.5241                 4.3179                 4.0378

                     64                     65                     66
                      A                      A                      A
 Frequencies --   3220.8495              3221.9671              3230.5962
 Red. masses --      1.0920                 1.0901                 1.0958
 Frc consts  --      6.6743                 6.6677                 6.7383
 IR Inten    --     14.4877                 2.8533                 6.6864

                     67                     68                     69
                      A                      A                      A
 Frequencies --   3234.4263              3238.3915              3643.4508
 Red. masses --      1.0989                 1.0997                 1.0805
 Frc consts  --      6.7735                 6.7948                 8.4506
 IR Inten    --     28.2825                12.2176               349.0845

 - Thermochemistry -
 -------------------
 Temperature   298.150 Kelvin.  Pressure   1.00000 Atm.
 Atom     1 has atomic number  6 and mass  12.00000

 Molecular mass:   227.04049 amu.
 Principal axes and moments of inertia in atomic units:
                           1         2         3
     Eigenvalues --  1270.631356498.156607768.78794
           X           -0.70334   0.71085   0.00000
           Y            0.71085   0.70334  -0.00001
           Z            0.00001   0.00000   1.00000
 This molecule is an asymmetric top.
 Rotational symmetry number  1.
 Warning -- assumption of classical behavior for rotation
           may cause significant error
 Rotational temperatures (Kelvin)      0.06817     0.01333     0.01115
 Rotational constants (GHZ):           1.42035     0.27773     0.23231
    1 imaginary frequencies ignored.
 Zero-point vibrational energy     490457.9 (Joules/Mol)
                                  117.22224 (Kcal/Mol)
 Warning -- explicit consideration of  18 degrees of freedom as
           vibrations may cause significant error
 Vibrational temperatures:     69.16   157.95   159.53   259.82   325.51
          (Kelvin)            377.48   394.32   414.93   497.18   554.70
                              615.88   643.60   726.75   739.30   779.32
                              781.27   804.58   816.62   916.07   950.66
                              999.72  1030.94  1059.14  1073.45  1090.21
                             1103.07  1185.85  1200.57  1250.06  1264.26
                             1293.73  1369.70  1378.78  1382.28  1444.03
                             1517.72  1520.63  1572.64  1595.19  1662.31
                             1671.96  1691.12  1708.24  1805.49  1815.68
                             1867.87  1925.01  1960.65  2008.40  2030.01
                             2072.02  2122.55  2174.16  2190.98  2226.44
                             2294.36  2336.09  2386.99  2399.90  4599.25
                             4617.27  4620.75  4634.08  4635.69  4648.11
                             4653.62  4659.32  5242.11

 Zero-point correction=                           0.186806 (Hartree/Particle)
 Thermal correction to Energy=                    0.198441
 Thermal correction to Enthalpy=                  0.199385
 Thermal correction to Gibbs Free Energy=         0.148710
 Sum of electronic and zero-point Energies=          -1028.511605
 Sum of electronic and thermal Energies=             -1028.499970
 Sum of electronic and thermal Enthalpies=           -1028.499026
 Sum of electronic and thermal Free Energies=        -1028.549700

                     E (Thermal)             CV                S
                      KCal/Mol        Cal/Mol-Kelvin    Cal/Mol-Kelvin
 Total                  124.523             47.983            106.654
 Electronic               0.000              0.000              0.000
 Translational            0.889              2.981             42.162
 Rotational               0.889              2.981             32.528
 Vibrational            122.746             42.021             31.964
 Vibration     1          0.595              1.978              4.895
 Vibration     2          0.606              1.941              3.273
 Vibration     3          0.607              1.940              3.253
 Vibration     4          0.630              1.866              2.322
 Vibration     5          0.650              1.801              1.909
 Vibration     6          0.670              1.742              1.646
 Vibration     7          0.676              1.721              1.570
 Vibration     8          0.685              1.695              1.483
 Vibration     9          0.724              1.584              1.186
 Vibration    10          0.754              1.501              1.017
 Vibration    11          0.790              1.409              0.865
 Vibration    12          0.806              1.367              0.804
 Vibration    13          0.860              1.239              0.645
 Vibration    14          0.869              1.219              0.624
 Vibration    15          0.897              1.158              0.562
 Vibration    16          0.898              1.155              0.559
 Vibration    17          0.915              1.120              0.525
 Vibration    18          0.924              1.101              0.509

 Optimization completed.
    -- Stationary point found.
 Normal termination of Gaussian 16 at Tue Jul 14 13:47:21 2020.
