 Gaussian 16, Revision C.01,
 Gaussian 16:  ES64L-G16RevC.01  3-Jul-2019

 ----------------------------------------------------------------------
 #p opt=addgic freq td wb97xd/cc-pvdz nosymm int=ultrafine scrf=(solven
 t=CarbonTetraChloride)
 ----------------------------------------------------------------------

 ------------------------------------------------
 NM 2D-scan of HBT TD-WB97XD pVDZ in CTC Relaxed.
 ------------------------------------------------
 Symbolic Z-matrix:
 Charge =  0 Multiplicity = 1

 SCF Done:  E(RwB97XD) =  -1028.81447935     A.U. after   15 cycles
 Total Energy, E(TD-HF/TD-DFT) =  -1028.69165098
 SCF Done:  E(RwB97XD) =  -1028.81452282     A.U. after    9 cycles
 Total Energy, E(TD-HF/TD-DFT) =  -1028.69165147
 SCF Done:  E(RwB97XD) =  -1028.81449536     A.U. after    9 cycles
 Total Energy, E(TD-HF/TD-DFT) =  -1028.69165195
 SCF Done:  E(RwB97XD) =  -1028.81449001     A.U. after    7 cycles
 Total Energy, E(TD-HF/TD-DFT) =  -1028.69165265
 Optimization completed.
    -- Stationary point found.
 Normal termination of Gaussian 16 at Mon Jul 13 14:50:37 2020.

 ----------------------------------------------------------------------
 #P Geom=AllCheck Guess=TCheck SCRF=Check GenChk RwB97XD TD(FC,Read)/CC
 -pVDZ Freq
 ----------------------------------------------------------------------

 Structure from the checkpoint file:  "config_6_6.chk"
 ------------------------------------------------
 NM 2D-scan of HBT TD-WB97XD pVDZ in CTC Relaxed.
 ------------------------------------------------
 Charge =  0 Multiplicity = 1

                          Input orientation:
 ---------------------------------------------------------------------
 Center     Atomic      Atomic             Coordinates (Angstroms)
 Number     Number       Type             X           Y           Z
 ---------------------------------------------------------------------
      1          6           0        1.690846   -3.267088   -0.000033
      2          6           0        1.000518   -2.057697   -0.000024
      3          6           0        1.695522   -0.814423   -0.000008
      4          6           0        3.107100   -0.804198    0.000001
      5          6           0        3.780738   -2.012829   -0.000008
      6          6           0        3.086030   -3.236312   -0.000025
      7          1           0        1.155567   -4.217376   -0.000046
      8          1           0        3.637050    0.148792    0.000014
      9          1           0        4.872183   -2.018038   -0.000002
     10          1           0        3.642790   -4.174310   -0.000032
     11          7           0        0.896294    0.269744   -0.000005
     12         16           0       -0.737297   -1.776746   -0.000030
     13          6           0       -1.389653    1.017335   -0.000002
     14          6           0       -2.785944    0.847556    0.000000
     15          6           0       -0.877451    2.410093    0.000019
     16          6           0       -3.645336    1.952467    0.000035
     17          1           0       -3.204913   -0.160303   -0.000019
     18          6           0       -1.781121    3.494412    0.000057
     19          6           0       -3.154391    3.273836    0.000067
     20          1           0       -4.723119    1.781587    0.000039
     21          1           0       -1.354015    4.497780    0.000074
     22          1           0       -3.847730    4.115017    0.000095
     23          6           0       -0.429298   -0.027887   -0.000016
     24          8           0        0.397851    2.633849   -0.000003
     25          1           0        0.898788    1.607131   -0.000053
 ---------------------------------------------------------------------

 SCF Done:  E(RwB97XD) =  -1028.81449001     A.U. after    1 cycles

 Excitation energies and oscillator strengths:

 Excited state symmetry could not be determined.
 Excited State   1:      Singlet-?Sym    3.3426 eV  370.92 nm  f=0.5403  <S**2>=0.000
      59 -> 60         0.69240
 This state for optimization and/or second-order correction.
 Total Energy, E(TD-HF/TD-DFT) =  -1028.69165267
 Copying the excited state density for this state as the 1-particle RhoCI density.

 Excited state symmetry could not be determined.
 Excited State   2:      Singlet-?Sym    4.3857 eV  282.70 nm  f=0.3527  <S**2>=0.000
      57 -> 60         0.14226
      58 -> 60         0.65926
      59 -> 64        -0.10628

 Excited state symmetry could not be determined.
 Excited State   3:      Singlet-?Sym    4.7095 eV  263.26 nm  f=0.0444  <S**2>=0.000
      55 -> 61        -0.11044
      57 -> 60         0.57943
      57 -> 62        -0.15187
      58 -> 60        -0.14216
      58 -> 61        -0.18946
      59 -> 61        -0.23633

 Alpha  occ. eigenvalues --  -89.09630 -19.25818 -14.48242 -10.40523 -10.37488
 Alpha  occ. eigenvalues --  -10.35732 -10.35291 -10.32604 -10.32104 -10.32053
 Alpha  occ. eigenvalues --  -10.31894 -10.31745 -10.31696 -10.31612 -10.30019
 Alpha  occ. eigenvalues --  -10.29696  -8.11568  -6.06428  -6.06077  -6.05615
 Alpha  occ. eigenvalues --   -1.15020  -1.09234  -0.97052  -0.95453  -0.92214
 Alpha  occ. eigenvalues --   -0.88903  -0.85349  -0.83983  -0.82327  -0.75916
 Alpha  occ. eigenvalues --   -0.71219  -0.70552  -0.68767  -0.68235  -0.63479
 Alpha  occ. eigenvalues --   -0.60737  -0.59095  -0.58152  -0.55558  -0.54388
 Alpha  occ. eigenvalues --   -0.54330  -0.53283  -0.52712  -0.51120  -0.49836
 Alpha  occ. eigenvalues --   -0.49832  -0.47303  -0.46217  -0.45560  -0.44897
 Alpha  occ. eigenvalues --   -0.43994  -0.42852  -0.42375  -0.40451  -0.36545
 Alpha  occ. eigenvalues --   -0.35800  -0.32601  -0.31199  -0.27658
 Alpha virt. eigenvalues --   -0.01761   0.04677   0.06787   0.07062   0.07778
 Alpha virt. eigenvalues --    0.10758   0.13546   0.15015   0.16127   0.17866
 Alpha virt. eigenvalues --    0.18759   0.20865   0.21641   0.22307   0.22531

 Mulliken charges:
               1
     1  C    0.013979
     2  C   -0.233147
     3  C    0.264737
     4  C   -0.015432
     5  C    0.009698
     6  C   -0.003825
     7  H    0.020759
     8  H    0.022606
     9  H    0.021695
    10  H    0.022507
    11  N   -0.325791
    12  S    0.173782
    13  C   -0.108347
    14  C   -0.019771
    15  C    0.113303
    16  C   -0.024108
    17  H    0.008854
    18  C   -0.004545
    19  C    0.027209
    20  H    0.008145
    21  H    0.013240
    22  H    0.020226
    23  C    0.077651
    24  O   -0.295542
    25  H    0.212116
 Sum of Mulliken charges =  -0.00000

 Dipole moment (field-independent basis, Debye):
    X=              0.2505    Y=             -3.1248    Z=             -0.0000  Tot=              3.1348
 Quadrupole moment (field-independent basis, Debye-Ang):
   XX=            -83.2695   YY=            -90.6604   ZZ=           -104.3245
   XY=             -6.9412   XZ=             -0.0001   YZ=              0.0003

  Exact polarizability:     374.228    -156.775     338.715      -0.002       0.004      63.355
 Approx polarizability:     275.928     -35.346     261.395      -0.001       0.002      82.361

 ******    1 imaginary frequencies (negative Signs) ******

                      1                      2                      3
                      A                      A                      A
 Frequencies --   -721.0866                31.6130                49.2124
 Red. masses --      1.1964                 6.2575                 6.8495
 Frc consts  --      0.3665                 0.0037                 0.0098
 IR Inten    --    708.3728                 0.3511                 1.2270

                      4                      5                      6
                      A                      A                      A
 Frequencies --    108.3215               142.3248               176.7487
 Red. masses --      4.7134                 5.7115                 5.9429
 Frc consts  --      0.0326                 0.0682                 0.1094
 IR Inten    --      0.0402                 7.6850                 0.6885

                      7                      8                      9
                      A                      A                      A
 Frequencies --    221.9260               270.3567               270.5412
 Red. masses --      5.3546                 7.4080                 4.7645
 Frc consts  --      0.1554                 0.3190                 0.2055
 IR Inten    --      0.0516                15.0050                 0.1629

                     10                     11                     12
                      A                      A                      A
 Frequencies --    376.8582               386.8124               412.1304
 Red. masses --      4.8617                 5.8655                10.5182
 Frc consts  --      0.4068                 0.5171                 1.0526
 IR Inten    --      0.3537                 2.5853                 6.2540

                     13                     14                     15
                      A                      A                      A
 Frequencies --    437.8900               479.7901               496.4915
 Red. masses --      3.2302                 4.7644                 3.1676
 Frc consts  --      0.3649                 0.6462                 0.4600
 IR Inten    --      4.7924                 0.0118                 0.3055

                     16                     17                     18
                      A                      A                      A
 Frequencies --    505.2556               537.4830               556.4198
 Red. masses --      8.8247                 8.3106                 3.9108
 Frc consts  --      1.3273                 1.4145                 0.7134
 IR Inten    --      0.4837                11.8807                 0.2150

                     19                     20                     21
                      A                      A                      A
 Frequencies --    579.2726               625.0305               699.0145
 Red. masses --      7.5140                 7.1363                 1.6495
 Frc consts  --      1.4856                 1.6426                 0.4749
 IR Inten    --      0.0987                11.4533                41.8742

                     22                     23                     24
                      A                      A                      A
 Frequencies --    700.4036               740.4058               742.8350
 Red. masses --      6.7246                 2.1263                 9.7147
 Frc consts  --      1.9436                 0.6868                 3.1584
 IR Inten    --     29.5251                20.7341                 4.8231

                     25                     26                     27
                      A                      A                      A
 Frequencies --    746.2792               761.1788               768.6325
 Red. masses --      5.4837                 1.9426                 1.8416
 Frc consts  --      1.7994                 0.6631                 0.6411
 IR Inten    --    237.7006                24.6241                62.9113

                     28                     29                     30
                      A                      A                      A
 Frequencies --    821.2265               821.3387               862.6146
 Red. masses --      6.2283                 1.6309                 1.4049
 Frc consts  --      2.4748                 0.6482                 0.6159
 IR Inten    --      5.6484                 0.0143                 0.9852

                     31                     32                     33
                      A                      A                      A
 Frequencies --    909.4449               915.7469               954.5422
 Red. masses --      1.3690                 6.7072                 1.3443
 Frc consts  --      0.6671                 3.3139                 0.7217
 IR Inten    --      5.2901                12.0513                 1.8009

                     34                     35                     36
                      A                      A                      A
 Frequencies --    958.2368               987.4729              1000.7044
 Red. masses --      1.3809                 7.3430                 1.2945
 Frc consts  --      0.7471                 4.2187                 0.7638
 IR Inten    --      0.5270                 6.6242                 0.0039

                     37                     38                     39
                      A                      A                      A
 Frequencies --   1037.2218              1048.5306              1084.0923
 Red. masses --      2.1524                 2.0571                 4.6009
 Frc consts  --      1.3643                 1.3325                 3.1859
 IR Inten    --      0.3900                 2.3046                62.5137

                     40                     41                     42
                      A                      A                      A
 Frequencies --   1132.0199              1150.5622              1170.3016
 Red. masses --      1.4223                 1.3304                 1.1486
 Frc consts  --      1.0739                 1.0377                 0.9269
 IR Inten    --     54.5957                16.9837                86.5605

                     43                     44                     45
                      A                      A                      A
 Frequencies --   1178.8681              1218.4796              1249.7193
 Red. masses --      1.1586                 1.0535                 1.8383
 Frc consts  --      0.9486                 0.9216                 1.6916
 IR Inten    --     36.1420                64.0302                90.1372

                     46                     47                     48
                      A                      A                      A
 Frequencies --   1262.1624              1293.6449              1357.6663
 Red. masses --      3.1620                 2.0068                 3.3072
 Frc consts  --      2.9678                 1.9788                 3.5916
 IR Inten    --     42.1875                13.0846               169.9802

                     49                     50                     51
                      A                      A                      A
 Frequencies --   1371.6426              1400.7668              1403.9128
 Red. masses --      5.7568                 2.6036                 2.3943
 Frc consts  --      6.3813                 3.0100                 2.7804
 IR Inten    --    209.9533                69.0170                12.0430

                     52                     53                     54
                      A                      A                      A
 Frequencies --   1446.2610              1480.2983              1512.4088
 Red. masses --      3.1595                 3.3085                 4.9184
 Frc consts  --      3.8937                 4.2714                 6.6284
 IR Inten    --    339.3876               174.2782               359.5543

                     55                     56                     57
                      A                      A                      A
 Frequencies --   1529.4437              1541.8764              1562.9739
 Red. masses --      4.8964                 4.8390                 4.5460
 Frc consts  --      6.7483                 6.7781                 6.5431
 IR Inten    --     44.0116                93.3411               427.4162

                     58                     59                     60
                      A                      A                      A
 Frequencies --   1620.2723              1647.9689              1656.0222
 Red. masses --      6.0478                 6.0229                 6.1425
 Frc consts  --      9.3546                 9.6373                 9.9249
 IR Inten    --    146.4229              1054.1449                 0.6934

                     61                     62                     63
                      A                      A                      A
 Frequencies --   1832.9744              3204.7031              3208.0821
 Red. masses --      1.0907                 1.0877                 1.0864
 Frc consts  --      2.1590                 6.5816                 6.5877
 IR Inten    --     54.2760                12.4903                 8.6643

                     64                     65                     66
                      A                      A                      A
 Frequencies --   3217.6308              3219.7966              3226.5585
 Red. masses --      1.0884                 1.0900                 1.0932
 Frc consts  --      6.6388                 6.6579                 6.7052
 IR Inten    --      2.4473                 3.1464                17.2236

                     67                     68                     69
                      A                      A                      A
 Frequencies --   3231.2812              3237.4254              3238.7248
 Red. masses --      1.0953                 1.0991                 1.0987
 Frc consts  --      6.7378                 6.7872                 6.7899
 IR Inten    --     10.6931                33.0097                12.8815

 - Thermochemistry -
 -------------------
 Temperature   298.150 Kelvin.  Pressure   1.00000 Atm.
 Atom     1 has atomic number  6 and mass  12.00000

 Molecular mass:   227.04049 amu.
 Principal axes and moments of inertia in atomic units:
                           1         2         3
     Eigenvalues --  1317.929516313.762547631.69206
           X           -0.70314   0.71105   0.00000
           Y            0.71105   0.70314  -0.00001
           Z            0.00001   0.00001   1.00000
 This molecule is an asymmetric top.
 Rotational symmetry number  1.
 Warning -- assumption of classical behavior for rotation
           may cause significant error
 Rotational temperatures (Kelvin)      0.06572     0.01372     0.01135
 Rotational constants (GHZ):           1.36938     0.28584     0.23648
    1 imaginary frequencies ignored.
 Zero-point vibrational energy     478678.8 (Joules/Mol)
                                  114.40698 (Kcal/Mol)
 Warning -- explicit consideration of  18 degrees of freedom as
           vibrations may cause significant error
 Vibrational temperatures:     45.48    70.81   155.85   204.77   254.30
          (Kelvin)            319.30   388.98   389.25   542.21   556.54
                              592.96   630.03   690.31   714.34   726.95
                              773.32   800.56   833.44   899.28  1005.73
                             1007.72  1065.28  1068.77  1073.73  1095.17
                             1105.89  1181.56  1181.72  1241.11  1308.49
                             1317.56  1373.37  1378.69  1420.75  1439.79
                             1492.33  1508.60  1559.77  1628.72  1655.40
                             1683.80  1696.13  1753.12  1798.07  1815.97
                             1861.27  1953.38  1973.49  2015.39  2019.92
                             2080.85  2129.82  2176.02  2200.53  2218.42
                             2248.77  2331.21  2371.06  2382.65  2637.24
                             4610.85  4615.71  4629.45  4632.57  4642.30
                             4649.09  4657.93  4659.80

 Zero-point correction=                           0.182319 (Hartree/Particle)
 Thermal correction to Energy=                    0.194353
 Thermal correction to Enthalpy=                  0.195297
 Thermal correction to Gibbs Free Energy=         0.142812
 Sum of electronic and zero-point Energies=          -1028.509334
 Sum of electronic and thermal Energies=             -1028.497300
 Sum of electronic and thermal Enthalpies=           -1028.496355
 Sum of electronic and thermal Free Energies=        -1028.548840

                     E (Thermal)             CV                S
                      KCal/Mol        Cal/Mol-Kelvin    Cal/Mol-Kelvin
 Total                  121.958             48.225            110.464
 Electronic               0.000              0.000              0.000
 Translational            0.889              2.981             42.162
 Rotational               0.889              2.981             32.518
 Vibrational            120.181             42.263             35.783
 Vibration     1          0.594              1.983              5.726
 Vibration     2          0.595              1.978              4.849
 Vibration     3          0.606              1.943              3.299
 Vibration     4          0.616              1.911              2.772
 Vibration     5          0.628              1.871              2.362
 Vibration     6          0.648              1.808              1.943
 Vibration     7          0.674              1.728              1.594
 Vibration     8          0.674              1.727              1.593
 Vibration     9          0.747              1.519              1.052
 Vibration    10          0.755              1.498              1.012
 Vibration    11          0.776              1.444              0.919
 Vibration    12          0.798              1.388              0.833
 Vibration    13          0.836              1.295              0.711
 Vibration    14          0.852              1.258              0.667
 Vibration    15          0.861              1.238              0.645
 Vibration    16          0.893              1.167              0.571
 Vibration    17          0.912              1.126              0.531
 Vibration    18          0.936              1.076              0.487

 Optimization completed.
    -- Stationary point found.
 Normal termination of Gaussian 16 at Mon Jul 13 15:08:20 2020.
