 Gaussian 16, Revision C.01,
 Gaussian 16:  ES64L-G16RevC.01  3-Jul-2019

 ----------------------------------------------------------------------
 #p opt=addgic freq td wb97xd/cc-pvdz nosymm int=ultrafine scrf=(solven
 t=CarbonTetraChloride)
 ----------------------------------------------------------------------

 ------------------------------------------------
 NM 2D-scan of HBT TD-WB97XD pVDZ in CTC Relaxed.
 ------------------------------------------------
 Symbolic Z-matrix:
 Charge =  0 Multiplicity = 1

 SCF Done:  E(RwB97XD) =  -1028.80116695     A.U. after   15 cycles
 Total Energy, E(TD-HF/TD-DFT) =  -1028.67903142
 SCF Done:  E(RwB97XD) =  -1028.80404953     A.U. after   12 cycles
 Total Energy, E(TD-HF/TD-DFT) =  -1028.68044747
 SCF Done:  E(RwB97XD) =  -1028.80427369     A.U. after   11 cycles
 Total Energy, E(TD-HF/TD-DFT) =  -1028.68032321
 SCF Done:  E(RwB97XD) =  -1028.80412917     A.U. after   10 cycles
 Total Energy, E(TD-HF/TD-DFT) =  -1028.68051634
 SCF Done:  E(RwB97XD) =  -1028.80423666     A.U. after    9 cycles
 Total Energy, E(TD-HF/TD-DFT) =  -1028.68051922
 SCF Done:  E(RwB97XD) =  -1028.80433367     A.U. after   10 cycles
 Total Energy, E(TD-HF/TD-DFT) =  -1028.68051963
 SCF Done:  E(RwB97XD) =  -1028.80433571     A.U. after    8 cycles
 Total Energy, E(TD-HF/TD-DFT) =  -1028.68052059
 Optimization completed.
    -- Stationary point found.
 Normal termination of Gaussian 16 at Tue Jul 14 17:35:56 2020.

 ----------------------------------------------------------------------
 #P Geom=AllCheck Guess=TCheck SCRF=Check GenChk RwB97XD TD(FC,Read)/CC
 -pVDZ Freq
 ----------------------------------------------------------------------

 Structure from the checkpoint file:  "config_5_20.chk"
 ------------------------------------------------
 NM 2D-scan of HBT TD-WB97XD pVDZ in CTC Relaxed.
 ------------------------------------------------
 Charge =  0 Multiplicity = 1

                          Input orientation:
 ---------------------------------------------------------------------
 Center     Atomic      Atomic             Coordinates (Angstroms)
 Number     Number       Type             X           Y           Z
 ---------------------------------------------------------------------
      1          6           0        1.491746   -3.235852   -0.000113
      2          6           0        1.006480   -1.934790   -0.000104
      3          6           0        1.823882   -0.763170   -0.000003
      4          6           0        3.224003   -0.987347    0.000079
      5          6           0        3.708499   -2.295366    0.000070
      6          6           0        2.865431   -3.421176   -0.000021
      7          1           0        0.799095   -4.078542   -0.000183
      8          1           0        3.915775   -0.144032    0.000155
      9          1           0        4.789491   -2.448425    0.000140
     10          1           0        3.287492   -4.426700   -0.000018
     11          7           0        1.093265    0.403265    0.000009
     12         16           0       -0.675254   -1.537366   -0.000188
     13          6           0       -1.288781    1.084133    0.000002
     14          6           0       -2.640018    0.695130    0.000098
     15          6           0       -0.930280    2.497730   -0.000022
     16          6           0       -3.641539    1.661940    0.000120
     17          1           0       -2.908883   -0.361261    0.000162
     18          6           0       -1.976593    3.452833    0.000019
     19          6           0       -3.313816    3.032772    0.000076
     20          1           0       -4.687834    1.352418    0.000181
     21          1           0       -1.718023    4.512365   -0.000012
     22          1           0       -4.112077    3.775799    0.000089
     23          6           0       -0.246247    0.141551   -0.000061
     24          8           0        0.339402    2.765949   -0.000111
     25          1           0        0.949396    1.762926   -0.000246
 ---------------------------------------------------------------------

 SCF Done:  E(RwB97XD) =  -1028.80433571     A.U. after    1 cycles

 Excitation energies and oscillator strengths:

 Excited state symmetry could not be determined.
 Excited State   1:      Singlet-?Sym    3.3692 eV  368.00 nm  f=0.5368  <S**2>=0.000
      59 -> 60         0.69191
 This state for optimization and/or second-order correction.
 Total Energy, E(TD-HF/TD-DFT) =  -1028.68052061
 Copying the excited state density for this state as the 1-particle RhoCI density.

 Excited state symmetry could not be determined.
 Excited State   2:      Singlet-?Sym    4.3554 eV  284.67 nm  f=0.2216  <S**2>=0.000
      57 -> 60         0.13387
      58 -> 60         0.66005

 Excited state symmetry could not be determined.
 Excited State   3:      Singlet-?Sym    4.7317 eV  262.03 nm  f=0.1044  <S**2>=0.000
      57 -> 60        -0.60271
      57 -> 62         0.15264
      58 -> 60         0.14330
      58 -> 61         0.15417
      59 -> 61         0.19718

 Alpha  occ. eigenvalues --  -89.08926 -19.26086 -14.48910 -10.40008 -10.37497
 Alpha  occ. eigenvalues --  -10.36297 -10.34829 -10.32271 -10.32203 -10.32056
 Alpha  occ. eigenvalues --  -10.31897 -10.31736 -10.31632 -10.31433 -10.30200
 Alpha  occ. eigenvalues --  -10.30190  -8.11105  -6.05934  -6.05587  -6.05162
 Alpha  occ. eigenvalues --   -1.14643  -1.08920  -0.97109  -0.96042  -0.92725
 Alpha  occ. eigenvalues --   -0.88861  -0.85660  -0.83991  -0.82357  -0.75832
 Alpha  occ. eigenvalues --   -0.71552  -0.70888  -0.68835  -0.67579  -0.63577
 Alpha  occ. eigenvalues --   -0.60818  -0.59219  -0.58350  -0.55697  -0.54433
 Alpha  occ. eigenvalues --   -0.54376  -0.53681  -0.52990  -0.50661  -0.49904
 Alpha  occ. eigenvalues --   -0.49477  -0.46546  -0.46278  -0.45796  -0.44935
 Alpha  occ. eigenvalues --   -0.44413  -0.42659  -0.42538  -0.40473  -0.36510
 Alpha  occ. eigenvalues --   -0.36172  -0.32341  -0.31354  -0.27937
 Alpha virt. eigenvalues --   -0.01743   0.04739   0.06468   0.07690   0.07819
 Alpha virt. eigenvalues --    0.10801   0.14772   0.15092   0.17361   0.17864
 Alpha virt. eigenvalues --    0.18796   0.21020   0.21390   0.22212   0.22474

 Mulliken charges:
               1
     1  C    0.024732
     2  C   -0.218060
     3  C    0.240427
     4  C   -0.024576
     5  C    0.002952
     6  C    0.001252
     7  H    0.019309
     8  H    0.023589
     9  H    0.021751
    10  H    0.021935
    11  N   -0.355748
    12  S    0.173792
    13  C   -0.088053
    14  C   -0.033653
    15  C    0.127328
    16  C   -0.017713
    17  H    0.025153
    18  C   -0.016756
    19  C    0.026373
    20  H    0.008221
    21  H    0.015464
    22  H    0.021811
    23  C    0.086723
    24  O   -0.319940
    25  H    0.233685
 Sum of Mulliken charges =  -0.00000

 Dipole moment (field-independent basis, Debye):
    X=             -0.1609    Y=             -3.3677    Z=             -0.0001  Tot=              3.3715
 Quadrupole moment (field-independent basis, Debye-Ang):
   XX=            -82.9737   YY=            -91.4098   ZZ=           -104.1826
   XY=             -7.0841   XZ=             -0.0001   YZ=              0.0002

  Exact polarizability:     367.339    -155.345     337.369      -0.002       0.005      63.200
 Approx polarizability:     273.438     -34.264     258.130       0.002       0.003      82.295

 ******    1 imaginary frequencies (negative Signs) ******

                      1                      2                      3
                      A                      A                      A
 Frequencies --  -1157.3324                33.4930                48.0655
 Red. masses --      1.0975                 5.0084                 6.6691
 Frc consts  --      0.8661                 0.0033                 0.0091
 IR Inten    --    788.9459                 0.0000                 1.4613

                      4                      5                      6
                      A                      A                      A
 Frequencies --    117.1559               151.4731               176.2892
 Red. masses --      5.5641                 5.6186                 6.3802
 Frc consts  --      0.0450                 0.0760                 0.1168
 IR Inten    --      0.0107                 5.0442                 1.0949

                      7                      8                      9
                      A                      A                      A
 Frequencies --    221.8700               274.1757               278.0069
 Red. masses --      5.2944                 4.7233                 7.3749
 Frc consts  --      0.1536                 0.2092                 0.3358
 IR Inten    --      0.0178                 0.0070                20.0529

                     10                     11                     12
                      A                      A                      A
 Frequencies --    372.7378               381.8765               427.4873
 Red. masses --      4.7599                 6.0900                11.6010
 Frc consts  --      0.3896                 0.5233                 1.2491
 IR Inten    --      0.0959                 2.5845                 6.6329

                     13                     14                     15
                      A                      A                      A
 Frequencies --    440.6444               472.7080               501.9554
 Red. masses --      3.1911                 4.7308                 3.1644
 Frc consts  --      0.3651                 0.6228                 0.4698
 IR Inten    --      3.8812                 0.1075                 0.2308

                     16                     17                     18
                      A                      A                      A
 Frequencies --    509.5298               543.5744               561.0312
 Red. masses --      8.7032                 8.3033                 3.8736
 Frc consts  --      1.3313                 1.4455                 0.7184
 IR Inten    --      2.1298                20.3242                 0.1810

                     19                     20                     21
                      A                      A                      A
 Frequencies --    573.7523               619.3254               678.0975
 Red. masses --      7.6858                 6.9354                 6.9477
 Frc consts  --      1.4907                 1.5673                 1.8823
 IR Inten    --      1.0615                 3.5605               109.2808

                     22                     23                     24
                      A                      A                      A
 Frequencies --    704.3495               739.0353               743.2040
 Red. masses --      1.5474                 6.6179                 1.9882
 Frc consts  --      0.4523                 2.1296                 0.6470
 IR Inten    --     54.6097                 2.2046                41.7006

                     25                     26                     27
                      A                      A                      A
 Frequencies --    747.5171               755.6731               767.2600
 Red. masses --      1.7832                 8.4103                 1.9619
 Frc consts  --      0.5871                 2.8296                 0.6805
 IR Inten    --      4.1709                63.7942                55.7456

                     28                     29                     30
                      A                      A                      A
 Frequencies --    801.8549               838.2416               864.2958
 Red. masses --      1.9814                 6.1784                 1.4011
 Frc consts  --      0.7506                 2.5578                 0.6166
 IR Inten    --      1.9139                 4.3596                 0.9184

                     31                     32                     33
                      A                      A                      A
 Frequencies --    905.3264               906.3530               953.7588
 Red. masses --      1.3640                 6.7973                 1.3505
 Frc consts  --      0.6587                 3.2899                 0.7238
 IR Inten    --      4.4022                29.2725                 1.9252

                     34                     35                     36
                      A                      A                      A
 Frequencies --    957.8933              1000.1834              1000.2455
 Red. masses --      1.3809                 1.3015                 7.9165
 Frc consts  --      0.7465                 0.7671                 4.6665
 IR Inten    --      0.0769                 0.0036                 1.3253

                     37                     38                     39
                      A                      A                      A
 Frequencies --   1036.2814              1049.2403              1102.1993
 Red. masses --      2.0152                 2.0525                 3.2916
 Frc consts  --      1.2750                 1.3313                 2.3560
 IR Inten    --      4.5234                 1.2004                84.1754

                     40                     41                     42
                      A                      A                      A
 Frequencies --   1136.4918              1158.8116              1172.3850
 Red. masses --      1.4514                 1.4097                 1.1280
 Frc consts  --      1.1045                 1.1153                 0.9135
 IR Inten    --     36.2518                46.9226                24.8435

                     43                     44                     45
                      A                      A                      A
 Frequencies --   1180.6973              1212.9467              1239.9202
 Red. masses --      1.2673                 1.0493                 1.9504
 Frc consts  --      1.0409                 0.9096                 1.7667
 IR Inten    --     26.7489                67.6741                99.4237

                     46                     47                     48
                      A                      A                      A
 Frequencies --   1260.3066              1295.9415              1329.3194
 Red. masses --      2.8767                 2.4279                 3.0053
 Frc consts  --      2.6921                 2.4024                 3.1289
 IR Inten    --     36.6277                12.7090                12.4664

                     49                     50                     51
                      A                      A                      A
 Frequencies --   1366.7174              1381.6042              1408.1499
 Red. masses --      5.6237                 2.4488                 3.1684
 Frc consts  --      6.1891                 2.7540                 3.7015
 IR Inten    --    280.6083                44.6853                79.3071

                     52                     53                     54
                      A                      A                      A
 Frequencies --   1437.3210              1472.2106              1498.8247
 Red. masses --      3.1446                 3.0020                 3.0978
 Frc consts  --      3.8276                 3.8335                 4.1002
 IR Inten    --    345.3412                37.0200                29.1851

                     55                     56                     57
                      A                      A                      A
 Frequencies --   1534.0725              1555.2371              1580.1988
 Red. masses --      4.5832                 4.6776                 6.8973
 Frc consts  --      6.3549                 6.6660                10.1474
 IR Inten    --    310.0542                59.9130               131.4297

                     58                     59                     60
                      A                      A                      A
 Frequencies --   1615.1444              1632.1286              1651.5360
 Red. masses --      6.0103                 6.3459                 6.1284
 Frc consts  --      9.2378                 9.9599                 9.8487
 IR Inten    --    207.7729              1307.0713                58.4670

                     61                     62                     63
                      A                      A                      A
 Frequencies --   1808.4301              3205.0465              3213.4421
 Red. masses --      1.0942                 1.0862                 1.0861
 Frc consts  --      2.1085                 6.5737                 6.6078
 IR Inten    --    133.6566                 6.7592                 6.4742

                     64                     65                     66
                      A                      A                      A
 Frequencies --   3214.2892              3222.0404              3225.0374
 Red. masses --      1.0903                 1.0886                 1.0949
 Frc consts  --      6.6368                 6.6586                 6.7096
 IR Inten    --      1.9428                20.2712                11.1603

                     67                     68                     69
                      A                      A                      A
 Frequencies --   3230.5259              3233.8779              3239.5030
 Red. masses --      1.0945                 1.0995                 1.0983
 Frc consts  --      6.7302                 6.7749                 6.7909
 IR Inten    --      9.2071                29.2645                19.0509

 - Thermochemistry -
 -------------------
 Temperature   298.150 Kelvin.  Pressure   1.00000 Atm.
 Atom     1 has atomic number  6 and mass  12.00000

 Molecular mass:   227.04049 amu.
 Principal axes and moments of inertia in atomic units:
                           1         2         3
     Eigenvalues --  1266.299406274.769617541.06900
           X           -0.70638   0.70784  -0.00001
           Y            0.70784   0.70638  -0.00002
           Z            0.00001   0.00002   1.00000
 This molecule is an asymmetric top.
 Rotational symmetry number  1.
 Warning -- assumption of classical behavior for rotation
           may cause significant error
 Rotational temperatures (Kelvin)      0.06840     0.01380     0.01149
 Rotational constants (GHZ):           1.42521     0.28762     0.23932
    1 imaginary frequencies ignored.
 Zero-point vibrational energy     478316.8 (Joules/Mol)
                                  114.32045 (Kcal/Mol)
 Warning -- explicit consideration of  19 degrees of freedom as
           vibrations may cause significant error
 Vibrational temperatures:     48.19    69.16   168.56   217.94   253.64
          (Kelvin)            319.22   394.48   399.99   536.29   549.44
                              615.06   633.99   680.12   722.20   733.10
                              782.08   807.20   825.50   891.07   975.63
                             1013.40  1063.31  1069.30  1075.51  1087.25
                             1103.92  1153.69  1206.04  1243.53  1302.56
                             1304.04  1372.25  1378.19  1439.04  1439.13
                             1490.98  1509.62  1585.82  1635.16  1667.27
                             1686.80  1698.76  1745.16  1783.97  1813.30
                             1864.57  1912.59  1966.40  1987.82  2026.01
                             2067.98  2118.18  2156.47  2207.19  2237.64
                             2273.55  2323.83  2348.27  2376.19  2601.93
                             4611.35  4623.43  4624.65  4635.80  4640.11
                             4648.01  4652.83  4660.92

 Zero-point correction=                           0.182181 (Hartree/Particle)
 Thermal correction to Energy=                    0.194168
 Thermal correction to Enthalpy=                  0.195112
 Thermal correction to Gibbs Free Energy=         0.142847
 Sum of electronic and zero-point Energies=          -1028.498339
 Sum of electronic and thermal Energies=             -1028.486352
 Sum of electronic and thermal Enthalpies=           -1028.485408
 Sum of electronic and thermal Free Energies=        -1028.537673

                     E (Thermal)             CV                S
                      KCal/Mol        Cal/Mol-Kelvin    Cal/Mol-Kelvin
 Total                  121.842             48.224            110.001
 Electronic               0.000              0.000              0.000
 Translational            0.889              2.981             42.162
 Rotational               0.889              2.981             32.460
 Vibrational            120.065             42.262             35.379
 Vibration     1          0.594              1.983              5.611
 Vibration     2          0.595              1.978              4.895
 Vibration     3          0.608              1.935              3.147
 Vibration     4          0.619              1.901              2.654
 Vibration     5          0.628              1.872              2.367
 Vibration     6          0.648              1.808              1.944
 Vibration     7          0.676              1.721              1.570
 Vibration     8          0.679              1.714              1.546
 Vibration     9          0.744              1.528              1.069
 Vibration    10          0.751              1.509              1.032
 Vibration    11          0.789              1.410              0.867
 Vibration    12          0.801              1.382              0.825
 Vibration    13          0.830              1.311              0.730
 Vibration    14          0.857              1.246              0.653
 Vibration    15          0.865              1.229              0.635
 Vibration    16          0.899              1.154              0.558
 Vibration    17          0.917              1.116              0.522
 Vibration    18          0.930              1.088              0.497
 Vibration    19          0.979              0.991              0.418

 Optimization completed.
    -- Stationary point found.
 Normal termination of Gaussian 16 at Tue Jul 14 17:53:25 2020.
