 Gaussian 16, Revision C.01,
 Gaussian 16:  ES64L-G16RevC.01  3-Jul-2019

 ----------------------------------------------------------------------
 #p opt=addgic freq td wb97xd/cc-pvdz nosymm int=ultrafine scrf=(solven
 t=CarbonTetraChloride)
 ----------------------------------------------------------------------

 ------------------------------------------------
 NM 2D-scan of HBT TD-WB97XD pVDZ in CTC Relaxed.
 ------------------------------------------------
 Symbolic Z-matrix:
 Charge =  0 Multiplicity = 1

 SCF Done:  E(RwB97XD) =  -1028.81661137     A.U. after   15 cycles
 Total Energy, E(TD-HF/TD-DFT) =  -1028.68856310
 SCF Done:  E(RwB97XD) =  -1028.81722197     A.U. after   11 cycles
 Total Energy, E(TD-HF/TD-DFT) =  -1028.68945045
 SCF Done:  E(RwB97XD) =  -1028.81731943     A.U. after   12 cycles
 Total Energy, E(TD-HF/TD-DFT) =  -1028.68957754
 SCF Done:  E(RwB97XD) =  -1028.81702523     A.U. after   11 cycles
 Total Energy, E(TD-HF/TD-DFT) =  -1028.68973978
 SCF Done:  E(RwB97XD) =  -1028.81702346     A.U. after    9 cycles
 Total Energy, E(TD-HF/TD-DFT) =  -1028.68974351
 SCF Done:  E(RwB97XD) =  -1028.81702903     A.U. after    8 cycles
 Total Energy, E(TD-HF/TD-DFT) =  -1028.68974365
 SCF Done:  E(RwB97XD) =  -1028.81703489     A.U. after    9 cycles
 Total Energy, E(TD-HF/TD-DFT) =  -1028.68974359
 SCF Done:  E(RwB97XD) =  -1028.81703963     A.U. after    8 cycles
 Total Energy, E(TD-HF/TD-DFT) =  -1028.68974393
 Optimization completed.
    -- Stationary point found.
 Normal termination of Gaussian 16 at Tue Jul 14 11:07:27 2020.

 ----------------------------------------------------------------------
 #P Geom=AllCheck Guess=TCheck SCRF=Check GenChk RwB97XD TD(FC,Read)/CC
 -pVDZ Freq
 ----------------------------------------------------------------------

 Structure from the checkpoint file:  "config_4_16.chk"
 ------------------------------------------------
 NM 2D-scan of HBT TD-WB97XD pVDZ in CTC Relaxed.
 ------------------------------------------------
 Charge =  0 Multiplicity = 1

                          Input orientation:
 ---------------------------------------------------------------------
 Center     Atomic      Atomic             Coordinates (Angstroms)
 Number     Number       Type             X           Y           Z
 ---------------------------------------------------------------------
      1          6           0        1.548657   -3.257381   -0.000047
      2          6           0        0.994562   -1.982820   -0.000037
      3          6           0        1.778503   -0.785448   -0.000011
      4          6           0        3.189620   -0.936507    0.000000
      5          6           0        3.733963   -2.213282   -0.000010
      6          6           0        2.933071   -3.372523   -0.000032
      7          1           0        0.906519   -4.139003   -0.000064
      8          1           0        3.829163   -0.053137    0.000018
      9          1           0        4.820163   -2.322753    0.000001
     10          1           0        3.399215   -4.358548   -0.000038
     11          7           0        1.045495    0.356710    0.000001
     12         16           0       -0.702151   -1.610747   -0.000048
     13          6           0       -1.308890    1.067938    0.000023
     14          6           0       -2.683549    0.740807    0.000050
     15          6           0       -0.921026    2.479956    0.000024
     16          6           0       -3.643987    1.744467    0.000051
     17          1           0       -2.990969   -0.305612    0.000067
     18          6           0       -1.922535    3.471180    0.000022
     19          6           0       -3.270863    3.106346    0.000031
     20          1           0       -4.701301    1.474892    0.000066
     21          1           0       -1.614396    4.517188    0.000015
     22          1           0       -4.041603    3.877771    0.000028
     23          6           0       -0.293436    0.095559   -0.000008
     24          8           0        0.353003    2.761635    0.000019
     25          1           0        0.902242    1.843967   -0.000007
 ---------------------------------------------------------------------

 SCF Done:  E(RwB97XD) =  -1028.81703963     A.U. after    1 cycles

 Excitation energies and oscillator strengths:

 Excited state symmetry could not be determined.
 Excited State   1:      Singlet-?Sym    3.4639 eV  357.93 nm  f=0.6249  <S**2>=0.000
      59 -> 60         0.68975
 This state for optimization and/or second-order correction.
 Total Energy, E(TD-HF/TD-DFT) =  -1028.68974394
 Copying the excited state density for this state as the 1-particle RhoCI density.

 Excited state symmetry could not be determined.
 Excited State   2:      Singlet-?Sym    4.3846 eV  282.77 nm  f=0.2084  <S**2>=0.000
      57 -> 60         0.22790
      58 -> 60         0.62632
      59 -> 62         0.10721
      59 -> 63         0.10547

 Excited state symmetry could not be determined.
 Excited State   3:      Singlet-?Sym    4.6505 eV  266.61 nm  f=0.0916  <S**2>=0.000
      57 -> 60         0.58002
      57 -> 62        -0.14377
      58 -> 60        -0.22776
      58 -> 61        -0.13355
      59 -> 61         0.20708

 Alpha  occ. eigenvalues --  -89.08877 -19.27519 -14.47763 -10.39779 -10.37904
 Alpha  occ. eigenvalues --  -10.35556 -10.34680 -10.32231 -10.32135 -10.32014
 Alpha  occ. eigenvalues --  -10.31994 -10.31772 -10.31486 -10.31440 -10.30407
 Alpha  occ. eigenvalues --  -10.30406  -8.10960  -6.05794  -6.05452  -6.05022
 Alpha  occ. eigenvalues --   -1.16304  -1.08511  -0.96865  -0.95894  -0.92295
 Alpha  occ. eigenvalues --   -0.88833  -0.85200  -0.84367  -0.82385  -0.75923
 Alpha  occ. eigenvalues --   -0.71296  -0.70454  -0.69116  -0.67987  -0.63648
 Alpha  occ. eigenvalues --   -0.60600  -0.58997  -0.58673  -0.55886  -0.54439
 Alpha  occ. eigenvalues --   -0.54088  -0.53395  -0.53037  -0.50698  -0.50282
 Alpha  occ. eigenvalues --   -0.49453  -0.47165  -0.46041  -0.45694  -0.44842
 Alpha  occ. eigenvalues --   -0.44178  -0.42838  -0.42407  -0.40200  -0.36989
 Alpha  occ. eigenvalues --   -0.36482  -0.32133  -0.31442  -0.28110
 Alpha virt. eigenvalues --   -0.01752   0.04999   0.06796   0.07328   0.07754
 Alpha virt. eigenvalues --    0.10977   0.14517   0.15181   0.16963   0.18008
 Alpha virt. eigenvalues --    0.18642   0.21173   0.21576   0.22400   0.22549

 Mulliken charges:
               1
     1  C    0.021529
     2  C   -0.221665
     3  C    0.231270
     4  C   -0.021230
     5  C    0.004853
     6  C   -0.002676
     7  H    0.017637
     8  H    0.019808
     9  H    0.019943
    10  H    0.020775
    11  N   -0.365905
    12  S    0.164676
    13  C   -0.082289
    14  C   -0.027799
    15  C    0.102363
    16  C   -0.013983
    17  H    0.021012
    18  C   -0.003994
    19  C    0.024270
    20  H    0.010157
    21  H    0.017930
    22  H    0.022794
    23  C    0.085863
    24  O   -0.244638
    25  H    0.199301
 Sum of Mulliken charges =  -0.00000

 Dipole moment (field-independent basis, Debye):
    X=             -0.4544    Y=             -2.5814    Z=             -0.0000  Tot=              2.6211
 Quadrupole moment (field-independent basis, Debye-Ang):
   XX=            -83.1749   YY=            -90.0572   ZZ=           -104.2539
   XY=             -7.1199   XZ=             -0.0001   YZ=              0.0000

  Exact polarizability:     386.895    -176.872     363.669      -0.002       0.003      63.277
 Approx polarizability:     275.696     -35.247     258.574      -0.000       0.001      82.331

                      1                      2                      3
                      A                      A                      A
 Frequencies --     46.0363                52.3110                98.4260
 Red. masses --      5.2546                 6.7593                 5.3886
 Frc consts  --      0.0066                 0.0109                 0.0308
 IR Inten    --      0.9111                 0.6381                 0.7121

                      4                      5                      6
                      A                      A                      A
 Frequencies --    109.7555               175.9317               223.1101
 Red. masses --      5.2266                 6.2516                 5.3042
 Frc consts  --      0.0371                 0.1140                 0.1556
 IR Inten    --      0.0597                 1.2887                 0.0084

                      7                      8                      9
                      A                      A                      A
 Frequencies --    273.6395               274.9918               289.7427
 Red. masses --      4.8020                 7.5232                 5.8075
 Frc consts  --      0.2118                 0.3352                 0.2873
 IR Inten    --      0.0289                30.8305                 6.7655

                     10                     11                     12
                      A                      A                      A
 Frequencies --    381.9217               413.7467               440.7841
 Red. masses --      4.6492                 9.5075                 3.2174
 Frc consts  --      0.3996                 0.9589                 0.3683
 IR Inten    --      0.0703                11.3217                 4.0395

                     13                     14                     15
                      A                      A                      A
 Frequencies --    482.7983               499.4100               503.4926
 Red. masses --      4.6794                 4.5283                 3.1646
 Frc consts  --      0.6426                 0.6654                 0.4727
 IR Inten    --      0.0228                11.6492                 0.0480

                     16                     17                     18
                      A                      A                      A
 Frequencies --    505.3982               534.4773               557.2553
 Red. masses --      8.6099                 7.7240                 3.9163
 Frc consts  --      1.2957                 1.3000                 0.7165
 IR Inten    --      0.1953                46.6234                 0.1500

                     19                     20                     21
                      A                      A                      A
 Frequencies --    576.5369               640.9730               712.0419
 Red. masses --      7.6559                 6.6658                 1.6171
 Frc consts  --      1.4993                 1.6135                 0.4830
 IR Inten    --     10.5372                32.6854                52.4294

                     22                     23                     24
                      A                      A                      A
 Frequencies --    719.8432               733.9296               740.1417
 Red. masses --      6.7120                 9.9845                 1.8056
 Frc consts  --      2.0492                 3.1687                 0.5828
 IR Inten    --      1.3694                35.6980                39.9205

                     25                     26                     27
                      A                      A                      A
 Frequencies --    747.6306               768.6470               808.6490
 Red. masses --      1.8627                 2.1931                 1.7862
 Frc consts  --      0.6134                 0.7634                 0.6882
 IR Inten    --     15.1976                48.9195                 1.5904

                     28                     29                     30
                      A                      A                      A
 Frequencies --    828.7320               861.4379               892.5876
 Red. masses --      6.2584                 1.4183                 6.4716
 Frc consts  --      2.5325                 0.6201                 3.0378
 IR Inten    --      8.5495                 1.0140                67.5854

                     31                     32                     33
                      A                      A                      A
 Frequencies --    911.3108               952.9288               962.4934
 Red. masses --      1.3539                 1.3466                 1.3695
 Frc consts  --      0.6625                 0.7205                 0.7475
 IR Inten    --      4.8800                 2.0413                 0.0493

                     34                     35                     36
                      A                      A                      A
 Frequencies --    977.8298               998.4722              1041.6019
 Red. masses --      7.3354                 1.3023                 2.1284
 Frc consts  --      4.1324                 0.7650                 1.3605
 IR Inten    --      6.8637                 0.0003                 3.0009

                     37                     38                     39
                      A                      A                      A
 Frequencies --   1045.2312              1088.3399              1123.8510
 Red. masses --      2.1067                 3.7136                 1.0548
 Frc consts  --      1.3560                 2.5917                 0.7849
 IR Inten    --      1.3735                75.5581                66.4142

                     40                     41                     42
                      A                      A                      A
 Frequencies --   1133.4305              1149.5597              1176.3843
 Red. masses --      1.5263                 1.3853                 1.2524
 Frc consts  --      1.1553                 1.0786                 1.0211
 IR Inten    --     56.1453                13.2240                27.9312

                     43                     44                     45
                      A                      A                      A
 Frequencies --   1177.0208              1241.7495              1253.5883
 Red. masses --      1.1644                 4.0855                 1.9404
 Frc consts  --      0.9504                 3.7116                 1.7966
 IR Inten    --     11.5030                62.5209               144.9394

                     46                     47                     48
                      A                      A                      A
 Frequencies --   1272.3574              1288.0735              1368.0076
 Red. masses --      2.5700                 1.9462                 4.6274
 Frc consts  --      2.4514                 1.9025                 5.1022
 IR Inten    --     19.6607                22.6191                71.7643

                     49                     50                     51
                      A                      A                      A
 Frequencies --   1374.0195              1404.9910              1443.8077
 Red. masses --      2.6500                 2.5659                 2.3687
 Frc consts  --      2.9476                 2.9842                 2.9092
 IR Inten    --    163.3178                43.9870               102.8423

                     52                     53                     54
                      A                      A                      A
 Frequencies --   1466.1382              1489.8132              1538.0655
 Red. masses --      3.8769                 3.0188                 4.6651
 Frc consts  --      4.9101                 3.9477                 6.5022
 IR Inten    --      9.5861               108.8706               204.0407

                     55                     56                     57
                      A                      A                      A
 Frequencies --   1548.1487              1577.9696              1586.9216
 Red. masses --      4.1736                 6.1147                 4.4288
 Frc consts  --      5.8937                 8.9706                 6.5712
 IR Inten    --     42.3986                97.3777               230.1601

                     58                     59                     60
                      A                      A                      A
 Frequencies --   1610.3852              1645.3280              1695.6672
 Red. masses --      5.9452                 6.0836                 1.4599
 Frc consts  --      9.0840                 9.7032                 2.4732
 IR Inten    --    689.5570               402.4359               436.3586

                     61                     62                     63
                      A                      A                      A
 Frequencies --   1959.5174              3204.7861              3212.4068
 Red. masses --      1.1839                 1.0862                 1.0861
 Frc consts  --      2.6783                 6.5730                 6.6039
 IR Inten    --    391.6532                 8.8065                 7.2855

                     64                     65                     66
                      A                      A                      A
 Frequencies --   3215.3858              3223.0465              3226.4951
 Red. masses --      1.0899                 1.0886                 1.0951
 Frc consts  --      6.6390                 6.6627                 6.7168
 IR Inten    --      2.0881                11.2366                10.3993

                     67                     68                     69
                      A                      A                      A
 Frequencies --   3230.7952              3233.6159              3240.6713
 Red. masses --      1.0948                 1.0993                 1.0982
 Frc consts  --      6.7328                 6.7722                 6.7950
 IR Inten    --     10.5406                35.7943                24.2315

 - Thermochemistry -
 -------------------
 Temperature   298.150 Kelvin.  Pressure   1.00000 Atm.
 Atom     1 has atomic number  6 and mass  12.00000

 Molecular mass:   227.04049 amu.
 Principal axes and moments of inertia in atomic units:
                           1         2         3
     Eigenvalues --  1287.289386302.021207589.31058
           X           -0.70399   0.71021   0.00000
           Y            0.71021   0.70399  -0.00001
           Z            0.00001   0.00001   1.00000
 This molecule is an asymmetric top.
 Rotational symmetry number  1.
 Warning -- assumption of classical behavior for rotation
           may cause significant error
 Rotational temperatures (Kelvin)      0.06728     0.01374     0.01141
 Rotational constants (GHZ):           1.40197     0.28637     0.23780
 Zero-point vibrational energy     485591.7 (Joules/Mol)
                                  116.05919 (Kcal/Mol)
 Warning -- explicit consideration of  19 degrees of freedom as
           vibrations may cause significant error
 Vibrational temperatures:     66.24    75.26   141.61   157.91   253.13
          (Kelvin)            321.01   393.71   395.65   416.88   549.50
                              595.29   634.19   694.64   718.54   724.41
                              727.16   768.99   801.77   829.51   922.22
                             1024.47  1035.69  1055.96  1064.90  1075.67
                             1105.91  1163.47  1192.36  1239.42  1284.23
                             1311.17  1371.05  1384.81  1406.88  1436.58
                             1498.63  1503.85  1565.88  1616.97  1630.75
                             1653.96  1692.55  1693.47  1786.60  1803.63
                             1830.64  1853.25  1968.26  1976.91  2021.47
                             2077.32  2109.45  2143.51  2212.93  2227.44
                             2270.35  2283.23  2316.99  2367.26  2439.69
                             2819.31  4610.97  4621.94  4626.22  4637.25
                             4642.21  4648.39  4652.45  4662.60

 Zero-point correction=                           0.184952 (Hartree/Particle)
 Thermal correction to Energy=                    0.197252
 Thermal correction to Enthalpy=                  0.198196
 Thermal correction to Gibbs Free Energy=         0.145437
 Sum of electronic and zero-point Energies=          -1028.504792
 Sum of electronic and thermal Energies=             -1028.492492
 Sum of electronic and thermal Enthalpies=           -1028.491548
 Sum of electronic and thermal Free Energies=        -1028.544306

                     E (Thermal)             CV                S
                      KCal/Mol        Cal/Mol-Kelvin    Cal/Mol-Kelvin
 Total                  123.777             49.078            111.040
 Electronic               0.000              0.000              0.000
 Translational            0.889              2.981             42.162
 Rotational               0.889              2.981             32.487
 Vibrational            122.000             43.117             36.390
 Vibration     1          0.595              1.979              4.981
 Vibration     2          0.596              1.977              4.728
 Vibration     3          0.604              1.950              3.485
 Vibration     4          0.606              1.941              3.273
 Vibration     5          0.628              1.872              2.371
 Vibration     6          0.649              1.806              1.934
 Vibration     7          0.676              1.722              1.573
 Vibration     8          0.677              1.720              1.565
 Vibration     9          0.686              1.693              1.475
 Vibration    10          0.751              1.509              1.032
 Vibration    11          0.777              1.440              0.913
 Vibration    12          0.801              1.381              0.824
 Vibration    13          0.839              1.288              0.703
 Vibration    14          0.855              1.251              0.660
 Vibration    15          0.859              1.242              0.649
 Vibration    16          0.861              1.238              0.645
 Vibration    17          0.889              1.174              0.577
 Vibration    18          0.913              1.124              0.529
 Vibration    19          0.933              1.082              0.492

 Optimization completed.
    -- Stationary point found.
 Normal termination of Gaussian 16 at Tue Jul 14 11:24:46 2020.
