 Gaussian 16, Revision C.01,
 Gaussian 16:  ES64L-G16RevC.01  3-Jul-2019

 ----------------------------------------------------------------------
 #p opt=addgic freq td wb97xd/cc-pvdz nosymm int=ultrafine scrf=(solven
 t=CarbonTetraChloride)
 ----------------------------------------------------------------------

 ------------------------------------------------
 NM 2D-scan of HBT TD-WB97XD pVDZ in CTC Relaxed.
 ------------------------------------------------
 Symbolic Z-matrix:
 Charge =  0 Multiplicity = 1

 SCF Done:  E(RwB97XD) =  -1028.33569086     A.U. after   16 cycles
 Total Energy, E(TD-HF/TD-DFT) =  -1028.23212072
 SCF Done:  E(RwB97XD) =  -1028.63929085     A.U. after   14 cycles
 Total Energy, E(TD-HF/TD-DFT) =  -1028.53856905
 SCF Done:  E(RwB97XD) =  -1028.76397000     A.U. after   15 cycles
 Total Energy, E(TD-HF/TD-DFT) =  -1028.66861136
 SCF Done:  E(RwB97XD) =  -1028.77733333     A.U. after   14 cycles
 Total Energy, E(TD-HF/TD-DFT) =  -1028.68210839
 SCF Done:  E(RwB97XD) =  -1028.78142653     A.U. after   13 cycles
 Total Energy, E(TD-HF/TD-DFT) =  -1028.68397009
 SCF Done:  E(RwB97XD) =  -1028.78172291     A.U. after   12 cycles
 Total Energy, E(TD-HF/TD-DFT) =  -1028.68413272
 SCF Done:  E(RwB97XD) =  -1028.78184892     A.U. after   11 cycles
 Total Energy, E(TD-HF/TD-DFT) =  -1028.68415678
 SCF Done:  E(RwB97XD) =  -1028.78186175     A.U. after    9 cycles
 Total Energy, E(TD-HF/TD-DFT) =  -1028.68415770
 Optimization completed.
    -- Stationary point found.
 Normal termination of Gaussian 16 at Tue Jul 14 15:26:48 2020.

 ----------------------------------------------------------------------
 #P Geom=AllCheck Guess=TCheck SCRF=Check GenChk RwB97XD TD(FC,Read)/CC
 -pVDZ Freq
 ----------------------------------------------------------------------

 Structure from the checkpoint file:  "config_12_18.chk"
 ------------------------------------------------
 NM 2D-scan of HBT TD-WB97XD pVDZ in CTC Relaxed.
 ------------------------------------------------
 Charge =  0 Multiplicity = 1

                          Input orientation:
 ---------------------------------------------------------------------
 Center     Atomic      Atomic             Coordinates (Angstroms)
 Number     Number       Type             X           Y           Z
 ---------------------------------------------------------------------
      1          6           0        1.556759   -3.296905    0.000222
      2          6           0        1.015407   -2.020020    0.000112
      3          6           0        1.825390   -0.890861   -0.000102
      4          6           0        3.221945   -1.006765   -0.000202
      5          6           0        3.761787   -2.292499   -0.000092
      6          6           0        2.944268   -3.427262    0.000116
      7          1           0        0.910139   -4.174175    0.000377
      8          1           0        3.862655   -0.123466   -0.000364
      9          1           0        4.846634   -2.408905   -0.000171
     10          1           0        3.393692   -4.420483    0.000191
     11          7           0        1.058785    0.249410   -0.000208
     12         16           0       -0.681229   -1.555327    0.000175
     13          6           0       -1.350718    1.141073   -0.000061
     14          6           0       -2.682197    0.783724   -0.000224
     15          6           0       -0.956014    2.555511    0.000177
     16          6           0       -3.722095    1.769842   -0.000135
     17          1           0       -2.975473   -0.269122   -0.000437
     18          6           0       -2.043958    3.505957    0.000264
     19          6           0       -3.400729    3.114828    0.000114
     20          1           0       -4.761146    1.436605   -0.000258
     21          1           0       -1.775602    4.564547    0.000501
     22          1           0       -4.190938    3.867735    0.000198
     23          6           0       -0.308054    0.133187   -0.000071
     24          8           0        0.262659    2.811853    0.000358
     25          1           0        1.650730    1.041000   -0.000388
 ---------------------------------------------------------------------

 SCF Done:  E(RwB97XD) =  -1028.78186175     A.U. after    1 cycles

 Excitation energies and oscillator strengths:

 Excited state symmetry could not be determined.
 Excited State   1:      Singlet-?Sym    2.6587 eV  466.34 nm  f=0.4339  <S**2>=0.000
      59 -> 60         0.69804
 This state for optimization and/or second-order correction.
 Total Energy, E(TD-HF/TD-DFT) =  -1028.68415770
 Copying the excited state density for this state as the 1-particle RhoCI density.

 Excited state symmetry could not be determined.
 Excited State   2:      Singlet-?Sym    3.2256 eV  384.38 nm  f=0.0000  <S**2>=0.000
      58 -> 60         0.68470
      58 -> 62         0.11151

 Excited state symmetry could not be determined.
 Excited State   3:      Singlet-?Sym    4.2481 eV  291.86 nm  f=0.4075  <S**2>=0.000
      57 -> 60         0.68517

 Alpha  occ. eigenvalues --  -89.10368 -19.19768 -14.53507 -10.42856 -10.37486
 Alpha  occ. eigenvalues --  -10.36078 -10.35052 -10.33587 -10.33552 -10.32989
 Alpha  occ. eigenvalues --  -10.32631 -10.31293 -10.30688 -10.30536 -10.28973
 Alpha  occ. eigenvalues --  -10.28110  -8.12454  -6.07330  -6.06933  -6.06477
 Alpha  occ. eigenvalues --   -1.13366  -1.08906  -0.98761  -0.96063  -0.93279
 Alpha  occ. eigenvalues --   -0.89023  -0.86965  -0.84012  -0.80590  -0.75959
 Alpha  occ. eigenvalues --   -0.74888  -0.72127  -0.69475  -0.67456  -0.64744
 Alpha  occ. eigenvalues --   -0.61108  -0.59767  -0.56531  -0.56328  -0.56143
 Alpha  occ. eigenvalues --   -0.55122  -0.53734  -0.53034  -0.50248  -0.48696
 Alpha  occ. eigenvalues --   -0.48689  -0.48116  -0.47118  -0.45636  -0.44917
 Alpha  occ. eigenvalues --   -0.43851  -0.42705  -0.42305  -0.39727  -0.36973
 Alpha  occ. eigenvalues --   -0.33893  -0.31565  -0.30324  -0.25163
 Alpha virt. eigenvalues --   -0.02331   0.03477   0.05520   0.06842   0.09857
 Alpha virt. eigenvalues --    0.10985   0.13696   0.14417   0.15754   0.16419
 Alpha virt. eigenvalues --    0.17685   0.19691   0.20744   0.21192   0.22564

 Mulliken charges:
               1
     1  C    0.018155
     2  C   -0.234034
     3  C    0.190707
     4  C   -0.012308
     5  C    0.011329
     6  C    0.005602
     7  H    0.025079
     8  H    0.032454
     9  H    0.029775
    10  H    0.028182
    11  N   -0.093482
    12  S    0.199270
    13  C   -0.055889
    14  C   -0.045036
    15  C    0.097441
    16  C   -0.038043
    17  H    0.012032
    18  C   -0.065335
    19  C    0.035288
    20  H    0.000133
    21  H   -0.001731
    22  H    0.013599
    23  C    0.097034
    24  O   -0.372661
    25  H    0.122436
 Sum of Mulliken charges =  -0.00000

 Dipole moment (field-independent basis, Debye):
    X=              2.9100    Y=             -6.4625    Z=             -0.0010  Tot=              7.0875
 Quadrupole moment (field-independent basis, Debye-Ang):
   XX=            -80.5873   YY=            -97.9165   ZZ=           -104.1078
   XY=             -5.6909   XZ=             -0.0018   YZ=             -0.0028

  Exact polarizability:     344.280    -115.161     286.402      -0.000       0.000      63.255
 Approx polarizability:     276.747     -40.482     264.063      -0.002       0.002      81.960

 ******    2 imaginary frequencies (negative Signs) ******

                      1                      2                      3
                      A                      A                      A
 Frequencies --   -171.2403               -50.2204                65.5137
 Red. masses --      1.5794                 6.2364                 6.2669
 Frc consts  --      0.0273                 0.0093                 0.0158
 IR Inten    --     43.9860                 0.1440                 1.9499

                      4                      5                      6
                      A                      A                      A
 Frequencies --    101.8224               141.0258               178.3056
 Red. masses --      5.8564                 3.2956                 5.6897
 Frc consts  --      0.0358                 0.0386                 0.1066
 IR Inten    --      6.9650                22.0358                 1.4133

                      7                      8                      9
                      A                      A                      A
 Frequencies --    241.9069               254.0749               278.9973
 Red. masses --      4.0179                 9.0776                 7.2550
 Frc consts  --      0.1385                 0.3453                 0.3327
 IR Inten    --      4.2086                 2.2690                 1.4418

                     10                     11                     12
                      A                      A                      A
 Frequencies --    308.9458               334.9184               376.5048
 Red. masses --      3.1867                 4.5494                 6.6597
 Frc consts  --      0.1792                 0.3007                 0.5562
 IR Inten    --     10.6665                 0.0008                 7.3100

                     13                     14                     15
                      A                      A                      A
 Frequencies --    430.2291               441.5856               502.0134
 Red. masses --      3.9798                 3.1610                 8.1005
 Frc consts  --      0.4340                 0.3632                 1.2028
 IR Inten    --      5.2235                 0.5482                14.5958

                     16                     17                     18
                      A                      A                      A
 Frequencies --    517.6503               529.6744               544.2992
 Red. masses --      3.2453                 6.0735                 8.6125
 Frc consts  --      0.5124                 1.0039                 1.5033
 IR Inten    --      0.4032                32.5049                20.9741

                     19                     20                     21
                      A                      A                      A
 Frequencies --    560.1291               565.2392               640.4909
 Red. masses --      3.8038                 7.3920                 6.4686
 Frc consts  --      0.7031                 1.3915                 1.5635
 IR Inten    --      0.1469                 3.6516                 7.4237

                     22                     23                     24
                      A                      A                      A
 Frequencies --    690.3000               708.2359               741.1418
 Red. masses --      1.4786                 5.3771                 7.2793
 Frc consts  --      0.4151                 1.5891                 2.3558
 IR Inten    --     34.8484                 1.5813                 5.4550

                     25                     26                     27
                      A                      A                      A
 Frequencies --    744.4439               755.6965               766.2058
 Red. masses --      2.2888                 1.6487                 1.7783
 Frc consts  --      0.7473                 0.5547                 0.6151
 IR Inten    --     23.8523                12.9857                77.2874

                     28                     29                     30
                      A                      A                      A
 Frequencies --    824.0455               835.5024               864.4179
 Red. masses --      6.3109                 2.1529                 1.3841
 Frc consts  --      2.5249                 0.8855                 0.6094
 IR Inten    --     14.0396                 1.7381                 1.0364

                     31                     32                     33
                      A                      A                      A
 Frequencies --    890.6490               897.2574               952.8110
 Red. masses --      5.7021                 1.4608                 1.3557
 Frc consts  --      2.6650                 0.6929                 0.7251
 IR Inten    --      3.6088                 9.4406                 0.2309

                     34                     35                     36
                      A                      A                      A
 Frequencies --    957.2132               966.7717              1002.8054
 Red. masses --      1.3543                 4.4301                 1.2980
 Frc consts  --      0.7311                 2.4395                 0.7691
 IR Inten    --      1.7161                 2.3611                 0.0001

                     37                     38                     39
                      A                      A                      A
 Frequencies --   1046.5584              1056.1957              1088.1764
 Red. masses --      2.3628                 2.1308                 2.0161
 Frc consts  --      1.5248                 1.4005                 1.4065
 IR Inten    --      0.7160                 6.8409                39.2184

                     40                     41                     42
                      A                      A                      A
 Frequencies --   1096.7488              1133.3509              1154.5055
 Red. masses --      2.8520                 1.4762                 1.3590
 Frc consts  --      2.0212                 1.1172                 1.0673
 IR Inten    --      7.9999                56.6093                 8.1497

                     43                     44                     45
                      A                      A                      A
 Frequencies --   1164.8816              1179.6458              1220.7505
 Red. masses --      1.2034                 1.1405                 4.5236
 Frc consts  --      0.9621                 0.9351                 3.9718
 IR Inten    --      6.7826                12.2462                31.6705

                     46                     47                     48
                      A                      A                      A
 Frequencies --   1247.9063              1302.1483              1329.4507
 Red. masses --      2.0830                 1.5524                 3.4347
 Frc consts  --      1.9112                 1.5509                 3.5767
 IR Inten    --     27.8234                 3.5559                 8.3087

                     49                     50                     51
                      A                      A                      A
 Frequencies --   1352.5127              1403.2963              1420.6805
 Red. masses --      2.5634                 6.2131                 2.2241
 Frc consts  --      2.7628                 7.2087                 2.6448
 IR Inten    --     46.0673                58.4108                44.0472

                     52                     53                     54
                      A                      A                      A
 Frequencies --   1443.4294              1458.4670              1510.9554
 Red. masses --      2.6191                 3.7585                 3.6493
 Frc consts  --      3.2151                 4.7105                 4.9087
 IR Inten    --     74.4876                11.2822                87.8328

                     55                     56                     57
                      A                      A                      A
 Frequencies --   1523.5098              1531.6027              1622.4395
 Red. masses --      2.8683                 4.4148                 4.9958
 Frc consts  --      3.9225                 6.1018                 7.7480
 IR Inten    --      5.5809               187.3808                81.7530

                     58                     59                     60
                      A                      A                      A
 Frequencies --   1646.3515              1665.2623              1686.9431
 Red. masses --      9.2536                 6.8681                 7.5388
 Frc consts  --     14.7776                11.2215                12.6401
 IR Inten    --    170.0688                82.7030                17.2638

                     61                     62                     63
                      A                      A                      A
 Frequencies --   3194.8541              3206.4858              3209.2805
 Red. masses --      1.0883                 1.0865                 1.0873
 Frc consts  --      6.5449                 6.5820                 6.5980
 IR Inten    --     30.3135                 4.1561                 4.1787

                     64                     65                     66
                      A                      A                      A
 Frequencies --   3218.1174              3220.3267              3228.8817
 Red. masses --      1.0913                 1.0910                 1.0947
 Frc consts  --      6.6589                 6.6662                 6.7244
 IR Inten    --     15.9805                 1.7157                 7.8249

                     67                     68                     69
                      A                      A                      A
 Frequencies --   3232.1007              3240.5347              3939.5478
 Red. masses --      1.0991                 1.0990                 1.0789
 Frc consts  --      6.7648                 6.7997                 9.8654
 IR Inten    --     26.1821                12.4059               156.5259

 - Thermochemistry -
 -------------------
 Temperature   298.150 Kelvin.  Pressure   1.00000 Atm.
 Atom     1 has atomic number  6 and mass  12.00000

 Molecular mass:   227.04049 amu.
 Principal axes and moments of inertia in atomic units:
                           1         2         3
     Eigenvalues --  1245.601526570.668787816.27024
           X           -0.70667   0.70754   0.00000
           Y            0.70754   0.70667  -0.00001
           Z            0.00001   0.00000   1.00000
 This molecule is an asymmetric top.
 Rotational symmetry number  1.
 Warning -- assumption of classical behavior for rotation
           may cause significant error
 Rotational temperatures (Kelvin)      0.06954     0.01318     0.01108
 Rotational constants (GHZ):           1.44889     0.27467     0.23090
    2 imaginary frequencies ignored.
 Zero-point vibrational energy     487997.0 (Joules/Mol)
                                  116.63408 (Kcal/Mol)
 Warning -- explicit consideration of  18 degrees of freedom as
           vibrations may cause significant error
 Vibrational temperatures:     94.26   146.50   202.90   256.54   348.05
          (Kelvin)            365.56   401.41   444.50   481.87   541.71
                              619.00   635.34   722.29   744.78   762.08
                              783.13   805.90   813.25   921.52   993.19
                             1018.99  1066.34  1071.09  1087.28  1102.40
                             1185.62  1202.10  1243.70  1281.45  1290.95
                             1370.88  1377.22  1390.97  1442.81  1505.76
                             1519.63  1565.64  1577.98  1630.64  1661.08
                             1676.00  1697.25  1756.39  1795.46  1873.50
                             1912.78  1945.96  2019.03  2044.04  2076.77
                             2098.41  2173.93  2191.99  2203.63  2334.33
                             2368.73  2395.94  2427.13  4596.68  4613.42
                             4617.44  4630.15  4633.33  4645.64  4650.27
                             4662.41  5668.13

 Zero-point correction=                           0.185868 (Hartree/Particle)
 Thermal correction to Energy=                    0.197300
 Thermal correction to Enthalpy=                  0.198244
 Thermal correction to Gibbs Free Energy=         0.148200
 Sum of electronic and zero-point Energies=          -1028.498289
 Sum of electronic and thermal Energies=             -1028.486858
 Sum of electronic and thermal Enthalpies=           -1028.485914
 Sum of electronic and thermal Free Energies=        -1028.535958

                     E (Thermal)             CV                S
                      KCal/Mol        Cal/Mol-Kelvin    Cal/Mol-Kelvin
 Total                  123.807             47.146            105.327
 Electronic               0.000              0.000              0.000
 Translational            0.889              2.981             42.162
 Rotational               0.889              2.981             32.525
 Vibrational            122.030             41.184             30.639
 Vibration     1          0.597              1.971              4.284
 Vibration     2          0.604              1.948              3.419
 Vibration     3          0.615              1.912              2.790
 Vibration     4          0.629              1.869              2.346
 Vibration     5          0.658              1.776              1.789
 Vibration     6          0.665              1.756              1.702
 Vibration     7          0.679              1.712              1.540
 Vibration     8          0.698              1.657              1.368
 Vibration     9          0.716              1.606              1.236
 Vibration    10          0.747              1.520              1.053
 Vibration    11          0.791              1.404              0.858
 Vibration    12          0.801              1.379              0.822
 Vibration    13          0.857              1.246              0.653
 Vibration    14          0.873              1.211              0.615
 Vibration    15          0.885              1.184              0.588
 Vibration    16          0.899              1.152              0.556
 Vibration    17          0.916              1.118              0.524
 Vibration    18          0.921              1.106              0.513

 Optimization completed.
    -- Stationary point found.
 Normal termination of Gaussian 16 at Tue Jul 14 15:44:15 2020.
