 Gaussian 16, Revision C.01,
 Gaussian 16:  ES64L-G16RevC.01  3-Jul-2019

 ----------------------------------------------------------------------
 #p opt=addgic freq td wb97xd/cc-pvdz nosymm int=ultrafine scrf=(solven
 t=CarbonTetraChloride)
 ----------------------------------------------------------------------

 ------------------------------------------------
 NM 2D-scan of HBT TD-WB97XD pVDZ in CTC Relaxed.
 ------------------------------------------------
 Symbolic Z-matrix:
 Charge =  0 Multiplicity = 1

 SCF Done:  E(RwB97XD) =  -1028.72333264     A.U. after   16 cycles
 Total Energy, E(TD-HF/TD-DFT) =  -1028.61727785
 SCF Done:  E(RwB97XD) =  -1028.78543795     A.U. after   14 cycles
 Total Energy, E(TD-HF/TD-DFT) =  -1028.68326013
 SCF Done:  E(RwB97XD) =  -1028.79523327     A.U. after   13 cycles
 Total Energy, E(TD-HF/TD-DFT) =  -1028.69285178
 SCF Done:  E(RwB97XD) =  -1028.79638893     A.U. after   12 cycles
 Total Energy, E(TD-HF/TD-DFT) =  -1028.69313031
 SCF Done:  E(RwB97XD) =  -1028.79578755     A.U. after   11 cycles
 Total Energy, E(TD-HF/TD-DFT) =  -1028.69330622
 SCF Done:  E(RwB97XD) =  -1028.79575301     A.U. after   10 cycles
 Total Energy, E(TD-HF/TD-DFT) =  -1028.69331207
 Optimization completed.
    -- Stationary point found.
 Normal termination of Gaussian 16 at Mon Jul 13 19:25:38 2020.

 ----------------------------------------------------------------------
 #P Geom=AllCheck Guess=TCheck SCRF=Check GenChk RwB97XD TD(FC,Read)/CC
 -pVDZ Freq
 ----------------------------------------------------------------------

 Structure from the checkpoint file:  "config_11_6.chk"
 ------------------------------------------------
 NM 2D-scan of HBT TD-WB97XD pVDZ in CTC Relaxed.
 ------------------------------------------------
 Charge =  0 Multiplicity = 1

                          Input orientation:
 ---------------------------------------------------------------------
 Center     Atomic      Atomic             Coordinates (Angstroms)
 Number     Number       Type             X           Y           Z
 ---------------------------------------------------------------------
      1          6           0        1.715903   -3.291883    0.000151
      2          6           0        1.023568   -2.085692    0.000051
      3          6           0        1.726334   -0.879002   -0.000120
      4          6           0        3.125841   -0.831152   -0.000187
      5          6           0        3.806671   -2.041529   -0.000086
      6          6           0        3.113133   -3.258091    0.000079
      7          1           0        1.184535   -4.243772    0.000281
      8          1           0        3.648649    0.125852   -0.000310
      9          1           0        4.897675   -2.041722   -0.000133
     10          1           0        3.668431   -4.196499    0.000154
     11          7           0        0.879428    0.179045   -0.000201
     12         16           0       -0.726675   -1.763444    0.000103
     13          6           0       -1.417702    1.065370   -0.000028
     14          6           0       -2.789609    0.890550   -0.000157
     15          6           0       -0.874374    2.452896    0.000170
     16          6           0       -3.697105    1.996752   -0.000079
     17          1           0       -3.207283   -0.119702   -0.000337
     18          6           0       -1.836669    3.519819    0.000231
     19          6           0       -3.222220    3.299872    0.000119
     20          1           0       -4.769118    1.793815   -0.000179
     21          1           0       -1.425494    4.531100    0.000409
     22          1           0       -3.916121    4.141736    0.000186
     23          6           0       -0.465771   -0.027801   -0.000068
     24          8           0        0.360311    2.658233    0.000306
     25          1           0        1.272445    1.098814   -0.000278
 ---------------------------------------------------------------------

 SCF Done:  E(RwB97XD) =  -1028.79575301     A.U. after    1 cycles

 Excitation energies and oscillator strengths:

 Excited state symmetry could not be determined.
 Excited State   1:      Singlet-?Sym    2.7876 eV  444.78 nm  f=0.4320  <S**2>=0.000
      59 -> 60         0.69664
 This state for optimization and/or second-order correction.
 Total Energy, E(TD-HF/TD-DFT) =  -1028.69331207
 Copying the excited state density for this state as the 1-particle RhoCI density.

 Excited state symmetry could not be determined.
 Excited State   2:      Singlet-?Sym    3.4809 eV  356.19 nm  f=0.0000  <S**2>=0.000
      58 -> 60         0.68366
      58 -> 62         0.11689
      58 -> 64         0.10961

 Excited state symmetry could not be determined.
 Excited State   3:      Singlet-?Sym    4.3294 eV  286.38 nm  f=0.4784  <S**2>=0.000
      57 -> 60         0.68142

 Alpha  occ. eigenvalues --  -89.10789 -19.20627 -14.52327 -10.42585 -10.37236
 Alpha  occ. eigenvalues --  -10.36342 -10.35693 -10.33635 -10.33209 -10.32816
 Alpha  occ. eigenvalues --  -10.32560 -10.31424 -10.31240 -10.30550 -10.29048
 Alpha  occ. eigenvalues --  -10.28133  -8.12732  -6.07620  -6.07231  -6.06749
 Alpha  occ. eigenvalues --   -1.13444  -1.09466  -0.98589  -0.95217  -0.93247
 Alpha  occ. eigenvalues --   -0.89180  -0.86659  -0.84172  -0.80749  -0.76057
 Alpha  occ. eigenvalues --   -0.74068  -0.71851  -0.69259  -0.67476  -0.64927
 Alpha  occ. eigenvalues --   -0.61012  -0.59834  -0.56563  -0.56206  -0.55902
 Alpha  occ. eigenvalues --   -0.55055  -0.53597  -0.53075  -0.50739  -0.48865
 Alpha  occ. eigenvalues --   -0.48736  -0.48241  -0.47014  -0.45570  -0.44803
 Alpha  occ. eigenvalues --   -0.44293  -0.42834  -0.42114  -0.40075  -0.36928
 Alpha  occ. eigenvalues --   -0.33814  -0.31558  -0.31144  -0.25525
 Alpha virt. eigenvalues --   -0.02203   0.03558   0.05872   0.06378   0.09565
 Alpha virt. eigenvalues --    0.10745   0.12178   0.14496   0.16057   0.16988
 Alpha virt. eigenvalues --    0.18526   0.19893   0.20939   0.21304   0.22961

 Mulliken charges:
               1
     1  C    0.013046
     2  C   -0.250744
     3  C    0.239451
     4  C   -0.010207
     5  C    0.014798
     6  C    0.001422
     7  H    0.026947
     8  H    0.034137
     9  H    0.029083
    10  H    0.027770
    11  N   -0.083871
    12  S    0.199100
    13  C   -0.102348
    14  C   -0.026539
    15  C    0.116006
    16  C   -0.040175
    17  H    0.001392
    18  C   -0.042349
    19  C    0.034783
    20  H    0.001603
    21  H   -0.000947
    22  H    0.013483
    23  C    0.075748
    24  O   -0.393082
    25  H    0.121494
 Sum of Mulliken charges =  -0.00000

 Dipole moment (field-independent basis, Debye):
    X=              2.3137    Y=             -5.8687    Z=             -0.0008  Tot=              6.3083
 Quadrupole moment (field-independent basis, Debye-Ang):
   XX=            -82.0021   YY=            -95.7374   ZZ=           -104.2222
   XY=             -6.3754   XZ=             -0.0010   YZ=             -0.0023

  Exact polarizability:     348.554    -120.701     294.757       0.000       0.001      63.330
 Approx polarizability:     276.022     -39.642     265.987      -0.001       0.002      82.081

 ******    1 imaginary frequencies (negative Signs) ******

                      1                      2                      3
                      A                      A                      A
 Frequencies --    -93.5945                46.7443               100.0120
 Red. masses --      6.5668                 6.4919                 4.8883
 Frc consts  --      0.0339                 0.0084                 0.0288
 IR Inten    --      2.2680                 1.4848                 0.0568

                      4                      5                      6
                      A                      A                      A
 Frequencies --    105.4949               173.1405               227.2651
 Red. masses --      5.7375                 5.0588                 5.5693
 Frc consts  --      0.0376                 0.0894                 0.1695
 IR Inten    --      7.9785                 0.0049                 0.7891

                      7                      8                      9
                      A                      A                      A
 Frequencies --    261.3608               270.0168               307.1640
 Red. masses --      7.5733                 4.4529                 7.8463
 Frc consts  --      0.3048                 0.1913                 0.4362
 IR Inten    --      1.4760                 2.1184                 3.1178

                     10                     11                     12
                      A                      A                      A
 Frequencies --    344.5214               375.0220               425.8641
 Red. masses --      4.5441                 7.8234                 3.5411
 Frc consts  --      0.3178                 0.6483                 0.3784
 IR Inten    --      1.0027                 8.1719                 5.6470

                     13                     14                     15
                      A                      A                      A
 Frequencies --    444.5461               498.4034               512.0950
 Red. masses --      4.3514                 8.1485                 3.2020
 Frc consts  --      0.5067                 1.1926                 0.4947
 IR Inten    --      4.6146                11.5514                 0.3100

                     16                     17                     18
                      A                      A                      A
 Frequencies --    538.6813               553.6143               553.7263
 Red. masses --      8.6128                 3.4791                 6.8374
 Frc consts  --      1.4725                 0.6282                 1.2352
 IR Inten    --     11.5651                 4.6476                42.6195

                     19                     20                     21
                      A                      A                      A
 Frequencies --    566.7393               631.3993               640.7415
 Red. masses --      7.3576                 1.1452                 6.1646
 Frc consts  --      1.3924                 0.2690                 1.4911
 IR Inten    --     10.2664                58.9666                33.6769

                     22                     23                     24
                      A                      A                      A
 Frequencies --    689.6823               698.5557               731.8700
 Red. masses --      1.5206                 6.1467                 7.9608
 Frc consts  --      0.4261                 1.7672                 2.5123
 IR Inten    --     19.5049                 1.6375                 4.1715

                     25                     26                     27
                      A                      A                      A
 Frequencies --    743.9015               760.9510               768.6837
 Red. masses --      2.6503                 1.7181                 1.6440
 Frc consts  --      0.8641                 0.5862                 0.5723
 IR Inten    --     14.0137                 6.7001               103.4759

                     28                     29                     30
                      A                      A                      A
 Frequencies --    810.8632               841.9173               865.4409
 Red. masses --      6.3816                 1.8438                 1.3780
 Frc consts  --      2.4721                 0.7700                 0.6081
 IR Inten    --     17.8217                 0.9902                 1.7169

                     31                     32                     33
                      A                      A                      A
 Frequencies --    894.8997               905.3392               953.4864
 Red. masses --      5.2594                 1.4335                 1.3601
 Frc consts  --      2.4816                 0.6923                 0.7286
 IR Inten    --      0.8017                 9.1450                 0.6836

                     34                     35                     36
                      A                      A                      A
 Frequencies --    957.8295               958.1006              1004.4721
 Red. masses --      4.9598                 1.3481                 1.2930
 Frc consts  --      2.6810                 0.7291                 0.7687
 IR Inten    --      1.0251                 1.6814                 0.0016

                     37                     38                     39
                      A                      A                      A
 Frequencies --   1038.7545              1054.6000              1081.9318
 Red. masses --      2.2676                 2.2541                 3.7615
 Frc consts  --      1.4416                 1.4771                 2.5943
 IR Inten    --      1.0194                10.3021                 0.9279

                     40                     41                     42
                      A                      A                      A
 Frequencies --   1100.0178              1151.4304              1157.9563
 Red. masses --      1.6625                 1.3238                 1.2032
 Frc consts  --      1.1852                 1.0341                 0.9506
 IR Inten    --     46.1475                 4.6847                96.3494

                     43                     44                     45
                      A                      A                      A
 Frequencies --   1176.3249              1184.6640              1239.4291
 Red. masses --      1.3124                 1.3077                 2.4400
 Frc consts  --      1.0700                 1.0813                 2.2084
 IR Inten    --     83.7190                11.5675                17.0759

                     46                     47                     48
                      A                      A                      A
 Frequencies --   1260.8817              1297.6809              1335.2691
 Red. masses --      2.4365                 1.5729                 3.9845
 Frc consts  --      2.2823                 1.5606                 4.1857
 IR Inten    --     68.4972                 7.6985                22.9494

                     49                     50                     51
                      A                      A                      A
 Frequencies --   1366.9549              1390.2549              1402.2750
 Red. masses --      2.6787                 2.3073                 4.7968
 Frc consts  --      2.9491                 2.6275                 5.5574
 IR Inten    --     61.2506                42.0268                56.7567

                     52                     53                     54
                      A                      A                      A
 Frequencies --   1445.3432              1471.5623              1518.9744
 Red. masses --      2.9854                 2.9688                 3.0137
 Frc consts  --      3.6744                 3.7878                 4.0968
 IR Inten    --    154.2482                 5.7278                53.8395

                     55                     56                     57
                      A                      A                      A
 Frequencies --   1523.5381              1564.6647              1605.1223
 Red. masses --      3.4623                 5.8975                 5.2258
 Frc consts  --      4.7351                 8.5067                 7.9327
 IR Inten    --     42.7338               181.2562               117.5093

                     58                     59                     60
                      A                      A                      A
 Frequencies --   1638.4282              1665.5314              1676.9200
 Red. masses --      8.0829                 6.9888                 7.0488
 Frc consts  --     12.7842                11.4224                11.6786
 IR Inten    --    142.4482                47.8590               118.1608

                     61                     62                     63
                      A                      A                      A
 Frequencies --   3186.6669              3207.3763              3213.4484
 Red. masses --      1.0895                 1.0861                 1.0865
 Frc consts  --      6.5183                 6.5831                 6.6104
 IR Inten    --     22.3277                 1.9799                 6.0180

                     64                     65                     66
                      A                      A                      A
 Frequencies --   3219.8184              3225.0655              3232.7497
 Red. masses --      1.0915                 1.0901                 1.0988
 Frc consts  --      6.6673                 6.6801                 6.7658
 IR Inten    --     12.6492                 2.3315                26.4602

                     67                     68                     69
                      A                      A                      A
 Frequencies --   3232.8691              3241.4468              3715.5820
 Red. masses --      1.0964                 1.0993                 1.0817
 Frc consts  --      6.7514                 6.8051                 8.7982
 IR Inten    --      6.3755                13.3502               499.9802

 - Thermochemistry -
 -------------------
 Temperature   298.150 Kelvin.  Pressure   1.00000 Atm.
 Atom     1 has atomic number  6 and mass  12.00000

 Molecular mass:   227.04049 amu.
 Principal axes and moments of inertia in atomic units:
                           1         2         3
     Eigenvalues --  1297.309896485.644527782.95437
           X           -0.70444   0.70976   0.00000
           Y            0.70976   0.70444  -0.00002
           Z            0.00001   0.00001   1.00000
 This molecule is an asymmetric top.
 Rotational symmetry number  1.
 Warning -- assumption of classical behavior for rotation
           may cause significant error
 Rotational temperatures (Kelvin)      0.06676     0.01335     0.01113
 Rotational constants (GHZ):           1.39114     0.27827     0.23188
    1 imaginary frequencies ignored.
 Zero-point vibrational energy     490385.6 (Joules/Mol)
                                  117.20498 (Kcal/Mol)
 Warning -- explicit consideration of  18 degrees of freedom as
           vibrations may cause significant error
 Vibrational temperatures:     67.25   143.89   151.78   249.11   326.98
          (Kelvin)            376.04   388.49   441.94   495.69   539.57
                              612.72   639.60   717.09   736.79   775.04
                              796.53   796.69   815.41   908.44   921.88
                              992.30  1005.07  1053.00  1070.31  1094.84
                             1105.96  1166.65  1211.33  1245.18  1287.56
                             1302.58  1371.85  1378.10  1378.49  1445.21
                             1494.54  1517.33  1556.66  1582.68  1656.65
                             1666.04  1692.47  1704.47  1783.26  1814.13
                             1867.07  1921.15  1966.74  2000.27  2017.56
                             2079.53  2117.25  2185.47  2192.03  2251.20
                             2309.41  2357.33  2396.33  2412.71  4584.90
                             4614.70  4623.44  4632.60  4640.15  4651.21
                             4651.38  4663.72  5345.89

 Zero-point correction=                           0.186778 (Hartree/Particle)
 Thermal correction to Energy=                    0.198485
 Thermal correction to Enthalpy=                  0.199430
 Thermal correction to Gibbs Free Energy=         0.148515
 Sum of electronic and zero-point Energies=          -1028.506534
 Sum of electronic and thermal Energies=             -1028.494827
 Sum of electronic and thermal Enthalpies=           -1028.493883
 Sum of electronic and thermal Free Energies=        -1028.544797

                     E (Thermal)             CV                S
                      KCal/Mol        Cal/Mol-Kelvin    Cal/Mol-Kelvin
 Total                  124.551             48.154            107.159
 Electronic               0.000              0.000              0.000
 Translational            0.889              2.981             42.162
 Rotational               0.889              2.981             32.549
 Vibrational            122.774             42.192             32.448
 Vibration     1          0.595              1.979              4.951
 Vibration     2          0.604              1.949              3.454
 Vibration     3          0.605              1.945              3.350
 Vibration     4          0.627              1.876              2.401
 Vibration     5          0.651              1.799              1.900
 Vibration     6          0.669              1.743              1.653
 Vibration     7          0.674              1.728              1.596
 Vibration     8          0.697              1.660              1.378
 Vibration     9          0.723              1.586              1.191
 Vibration    10          0.746              1.523              1.059
 Vibration    11          0.788              1.414              0.872
 Vibration    12          0.804              1.373              0.812
 Vibration    13          0.854              1.254              0.662
 Vibration    14          0.867              1.223              0.629
 Vibration    15          0.894              1.165              0.568
 Vibration    16          0.909              1.132              0.537
 Vibration    17          0.909              1.132              0.537
 Vibration    18          0.923              1.103              0.511

 Optimization completed.
    -- Stationary point found.
 Normal termination of Gaussian 16 at Mon Jul 13 19:43:14 2020.
