 Gaussian 16, Revision C.01,
 Gaussian 16:  ES64L-G16RevC.01  3-Jul-2019

 ----------------------------------------------------------------------
 #p opt=addgic freq td wb97xd/cc-pvdz nosymm int=ultrafine scrf=(solven
 t=CarbonTetraChloride)
 ----------------------------------------------------------------------

 ------------------------------------------------
 NM 2D-scan of HBT TD-WB97XD pVDZ in CTC Relaxed.
 ------------------------------------------------
 Symbolic Z-matrix:
 Charge =  0 Multiplicity = 1

 SCF Done:  E(RwB97XD) =  -1028.79719437     A.U. after   16 cycles
 Total Energy, E(TD-HF/TD-DFT) =  -1028.68767469
 SCF Done:  E(RwB97XD) =  -1028.80041054     A.U. after   14 cycles
 Total Energy, E(TD-HF/TD-DFT) =  -1028.69787759
 SCF Done:  E(RwB97XD) =  -1028.80638342     A.U. after   13 cycles
 Total Energy, E(TD-HF/TD-DFT) =  -1028.70078130
 SCF Done:  E(RwB97XD) =  -1028.80689373     A.U. after   11 cycles
 Total Energy, E(TD-HF/TD-DFT) =  -1028.70085703
 SCF Done:  E(RwB97XD) =  -1028.80684187     A.U. after    9 cycles
 Total Energy, E(TD-HF/TD-DFT) =  -1028.70085962
 Optimization completed.
    -- Stationary point found.
 Normal termination of Gaussian 16 at Mon Jul 13 16:20:54 2020.

 ----------------------------------------------------------------------
 #P Geom=AllCheck Guess=TCheck SCRF=Check GenChk RwB97XD TD(FC,Read)/CC
 -pVDZ Freq
 ----------------------------------------------------------------------

 Structure from the checkpoint file:  "config_9_11.chk"
 ------------------------------------------------
 NM 2D-scan of HBT TD-WB97XD pVDZ in CTC Relaxed.
 ------------------------------------------------
 Charge =  0 Multiplicity = 1

                          Input orientation:
 ---------------------------------------------------------------------
 Center     Atomic      Atomic             Coordinates (Angstroms)
 Number     Number       Type             X           Y           Z
 ---------------------------------------------------------------------
      1          6           0        1.634903   -3.287287   -0.000026
      2          6           0        1.002550   -2.047095   -0.000019
      3          6           0        1.750031   -0.847614   -0.000016
      4          6           0        3.152132   -0.887348   -0.000018
      5          6           0        3.773419   -2.129052   -0.000025
      6          6           0        3.029491   -3.318396   -0.000030
      7          1           0        1.054747   -4.210680   -0.000028
      8          1           0        3.726689    0.039239   -0.000014
      9          1           0        4.863406   -2.178380   -0.000027
     10          1           0        3.544619   -4.279619   -0.000035
     11          7           0        0.956830    0.260480   -0.000010
     12         16           0       -0.724155   -1.697214   -0.000009
     13          6           0       -1.359753    1.075323    0.000013
     14          6           0       -2.728896    0.821938    0.000009
     15          6           0       -0.895036    2.485911    0.000035
     16          6           0       -3.673940    1.875410    0.000030
     17          1           0       -3.092812   -0.208492   -0.000009
     18          6           0       -1.891862    3.504836    0.000045
     19          6           0       -3.257670    3.207032    0.000047
     20          1           0       -4.737046    1.630658    0.000029
     21          1           0       -1.530581    4.534634    0.000055
     22          1           0       -3.994116    4.011667    0.000059
     23          6           0       -0.384011    0.028038   -0.000005
     24          8           0        0.340481    2.768363    0.000016
     25          1           0        1.190838    1.282110    0.000023
 ---------------------------------------------------------------------

 SCF Done:  E(RwB97XD) =  -1028.80684187     A.U. after    1 cycles

 Excitation energies and oscillator strengths:

 Excited state symmetry could not be determined.
 Excited State   1:      Singlet-?Sym    2.8839 eV  429.91 nm  f=0.4410  <S**2>=0.000
      59 -> 60         0.69660
 This state for optimization and/or second-order correction.
 Total Energy, E(TD-HF/TD-DFT) =  -1028.70085963
 Copying the excited state density for this state as the 1-particle RhoCI density.

 Excited state symmetry could not be determined.
 Excited State   2:      Singlet-?Sym    3.6836 eV  336.58 nm  f=0.0000  <S**2>=0.000
      57 -> 60         0.68359
      57 -> 62         0.11720
      57 -> 64         0.11537

 Excited state symmetry could not be determined.
 Excited State   3:      Singlet-?Sym    4.3143 eV  287.38 nm  f=0.4081  <S**2>=0.000
      58 -> 60         0.68130

 Alpha  occ. eigenvalues --  -89.10496 -19.21200 -14.52362 -10.42011 -10.37502
 Alpha  occ. eigenvalues --  -10.36276 -10.35904 -10.33411 -10.32963 -10.32572
 Alpha  occ. eigenvalues --  -10.32394 -10.31535 -10.31109 -10.30806 -10.29227
 Alpha  occ. eigenvalues --  -10.28392  -8.12477  -6.07352  -6.06982  -6.06497
 Alpha  occ. eigenvalues --   -1.12858  -1.09238  -0.98344  -0.95329  -0.93240
 Alpha  occ. eigenvalues --   -0.89129  -0.86625  -0.83867  -0.81228  -0.75963
 Alpha  occ. eigenvalues --   -0.73040  -0.72052  -0.68805  -0.67650  -0.65023
 Alpha  occ. eigenvalues --   -0.60997  -0.59697  -0.56689  -0.55886  -0.55567
 Alpha  occ. eigenvalues --   -0.54980  -0.53764  -0.53078  -0.50638  -0.49037
 Alpha  occ. eigenvalues --   -0.48764  -0.48385  -0.46932  -0.45470  -0.44873
 Alpha  occ. eigenvalues --   -0.44254  -0.42997  -0.42146  -0.40180  -0.36826
 Alpha  occ. eigenvalues --   -0.33623  -0.31838  -0.31426  -0.25945
 Alpha virt. eigenvalues --   -0.02064   0.03743   0.05791   0.06422   0.09242
 Alpha virt. eigenvalues --    0.10694   0.13304   0.14660   0.16176   0.17292
 Alpha virt. eigenvalues --    0.18594   0.20098   0.20864   0.21330   0.22868

 Mulliken charges:
               1
     1  C    0.017167
     2  C   -0.239888
     3  C    0.259433
     4  C   -0.010229
     5  C    0.012207
     6  C    0.001001
     7  H    0.025896
     8  H    0.031492
     9  H    0.027475
    10  H    0.026793
    11  N   -0.140558
    12  S    0.200309
    13  C   -0.095351
    14  C   -0.029723
    15  C    0.115577
    16  C   -0.034797
    17  H    0.007119
    18  C   -0.026573
    19  C    0.032861
    20  H    0.002113
    21  H    0.001929
    22  H    0.014737
    23  C    0.059737
    24  O   -0.409249
    25  H    0.150521
 Sum of Mulliken charges =  -0.00000

 Dipole moment (field-independent basis, Debye):
    X=              1.7947    Y=             -5.6289    Z=             -0.0000  Tot=              5.9081
 Quadrupole moment (field-independent basis, Debye-Ang):
   XX=            -82.2009   YY=            -95.7586   ZZ=           -104.2229
   XY=             -6.5878   XZ=             -0.0001   YZ=              0.0002

  Exact polarizability:     348.353    -122.740     299.114      -0.002       0.002      63.255
 Approx polarizability:     273.564     -36.708     265.395      -0.001       0.002      82.048

                      1                      2                      3
                      A                      A                      A
 Frequencies --     23.8358                39.6176               112.8199
 Red. masses --      5.5366                 6.5107                 5.4095
 Frc consts  --      0.0019                 0.0060                 0.0406
 IR Inten    --      1.0810                 1.7978                 0.5059

                      4                      5                      6
                      A                      A                      A
 Frequencies --    115.5897               179.5706               222.6806
 Red. masses --      5.7524                 5.5976                 5.4416
 Frc consts  --      0.0453                 0.1063                 0.1590
 IR Inten    --     10.2538                 0.0947                 0.2133

                      7                      8                      9
                      A                      A                      A
 Frequencies --    266.7787               271.3999               307.0387
 Red. masses --      7.9121                 4.6287                 7.3043
 Frc consts  --      0.3318                 0.2009                 0.4057
 IR Inten    --      2.5387                 0.4500                 6.3952

                     10                     11                     12
                      A                      A                      A
 Frequencies --    354.0971               391.5785               433.1171
 Red. masses --      4.8479                 8.7491                 3.3877
 Frc consts  --      0.3581                 0.7904                 0.3744
 IR Inten    --      0.9523                 5.5383                 3.5150

                     13                     14                     15
                      A                      A                      A
 Frequencies --    455.7735               504.9802               509.1038
 Red. masses --      4.5719                 8.6849                 3.2038
 Frc consts  --      0.5596                 1.3049                 0.4892
 IR Inten    --      2.7823                 8.9558                 0.4694

                     16                     17                     18
                      A                      A                      A
 Frequencies --    541.6134               557.5523               557.9273
 Red. masses --      8.7060                 6.5617                 3.8446
 Frc consts  --      1.5047                 1.2018                 0.7051
 IR Inten    --      6.9327                39.6564                 0.6499

                     19                     20                     21
                      A                      A                      A
 Frequencies --    569.0843               632.5375               692.3223
 Red. masses --      7.2798                 6.0043                 1.5515
 Frc consts  --      1.3891                 1.4154                 0.4381
 IR Inten    --     13.4483                62.4532                38.6477

                     22                     23                     24
                      A                      A                      A
 Frequencies --    712.8403               724.6030               743.2445
 Red. masses --      6.3916                 7.9615                 2.6449
 Frc consts  --      1.9136                 2.4629                 0.8608
 IR Inten    --      2.3795                 3.3799                13.4084

                     25                     26                     27
                      A                      A                      A
 Frequencies --    761.6979               767.9047               819.4141
 Red. masses --      1.7249                 1.6569                 6.4166
 Frc consts  --      0.5896                 0.5756                 2.5384
 IR Inten    --      3.1619                85.1284                17.2605

                     28                     29                     30
                      A                      A                      A
 Frequencies --    835.8773               867.5409               870.7216
 Red. masses --      1.7746                 1.3825                 4.3708
 Frc consts  --      0.7305                 0.6130                 1.9524
 IR Inten    --      0.0141                 0.2988                 8.8864

                     31                     32                     33
                      A                      A                      A
 Frequencies --    903.4031               915.9598               953.5606
 Red. masses --      1.4093                 1.0868                 1.3622
 Frc consts  --      0.6777                 0.5372                 0.7298
 IR Inten    --      1.9428                79.8615                 1.9203

                     34                     35                     36
                      A                      A                      A
 Frequencies --    956.3615               957.6337              1004.3365
 Red. masses --      5.4187                 1.3502                 1.2962
 Frc consts  --      2.9200                 0.7295                 0.7703
 IR Inten    --      1.8327                 1.3389                 0.0453

                     37                     38                     39
                      A                      A                      A
 Frequencies --   1050.9224              1053.3077              1085.0439
 Red. masses --      2.1472                 2.1221                 4.1910
 Frc consts  --      1.3972                 1.3872                 2.9071
 IR Inten    --      0.8668                 9.2167                 2.2011

                     40                     41                     42
                      A                      A                      A
 Frequencies --   1114.7702              1153.4758              1162.9692
 Red. masses --      1.5613                 1.3240                 1.2191
 Frc consts  --      1.1431                 1.0379                 0.9715
 IR Inten    --     34.2231                19.6479                63.0536

                     43                     44                     45
                      A                      A                      A
 Frequencies --   1179.8838              1215.6388              1259.6863
 Red. masses --      1.1478                 1.7811                 2.0901
 Frc consts  --      0.9415                 1.5507                 1.9540
 IR Inten    --     35.9286                91.0790                47.5294

                     46                     47                     48
                      A                      A                      A
 Frequencies --   1276.0817              1305.3414              1342.4904
 Red. masses --      1.8289                 2.0034                 5.8303
 Frc consts  --      1.7547                 2.0113                 6.1911
 IR Inten    --     82.8157                22.5798                10.5569

                     49                     50                     51
                      A                      A                      A
 Frequencies --   1365.9619              1398.4352              1400.3473
 Red. masses --      5.2707                 2.6939                 2.3391
 Frc consts  --      5.7943                 3.1039                 2.7025
 IR Inten    --    161.3663                 1.5313                 2.2439

                     52                     53                     54
                      A                      A                      A
 Frequencies --   1437.4553              1482.0631              1503.6867
 Red. masses --      3.0637                 2.8476                 3.1079
 Frc consts  --      3.7297                 3.6852                 4.1404
 IR Inten    --    336.7705                 1.0384                37.9201

                     55                     56                     57
                      A                      A                      A
 Frequencies --   1530.4410              1559.3189              1579.0446
 Red. masses --      4.0524                 5.1403                 4.2519
 Frc consts  --      5.5924                 7.3638                 6.2462
 IR Inten    --     35.3993               210.8675                82.1034

                     58                     59                     60
                      A                      A                      A
 Frequencies --   1620.8955              1647.1998              1667.1710
 Red. masses --      6.3108                 6.3294                 6.8258
 Frc consts  --      9.7689                10.1183                11.1781
 IR Inten    --    211.5280                50.2693               150.1679

                     61                     62                     63
                      A                      A                      A
 Frequencies --   3105.8854              3194.5274              3212.0411
 Red. masses --      1.0887                 1.0886                 1.0865
 Frc consts  --      6.1877                 6.5456                 6.6043
 IR Inten    --    923.2122                33.6393                 1.6017

                     64                     65                     66
                      A                      A                      A
 Frequencies --   3213.4521              3222.7934              3223.6163
 Red. masses --      1.0862                 1.0923                 1.0905
 Frc consts  --      6.6084                 6.6843                 6.6764
 IR Inten    --      4.3732                14.4628                 4.1327

                     67                     68                     69
                      A                      A                      A
 Frequencies --   3234.0408              3235.4349              3240.4489
 Red. masses --      1.0956                 1.0989                 1.0995
 Frc consts  --      6.7512                 6.7776                 6.8024
 IR Inten    --      9.1643                24.9097                10.4108

 - Thermochemistry -
 -------------------
 Temperature   298.150 Kelvin.  Pressure   1.00000 Atm.
 Atom     1 has atomic number  6 and mass  12.00000

 Molecular mass:   227.04049 amu.
 Principal axes and moments of inertia in atomic units:
                           1         2         3
     Eigenvalues --  1299.771956425.544417725.31636
           X           -0.70208   0.71209   0.00000
           Y            0.71209   0.70208  -0.00001
           Z            0.00001   0.00000   1.00000
 This molecule is an asymmetric top.
 Rotational symmetry number  1.
 Warning -- assumption of classical behavior for rotation
           may cause significant error
 Rotational temperatures (Kelvin)      0.06664     0.01348     0.01121
 Rotational constants (GHZ):           1.38851     0.28087     0.23361
 Zero-point vibrational energy     489320.4 (Joules/Mol)
                                  116.95039 (Kcal/Mol)
 Warning -- explicit consideration of  19 degrees of freedom as
           vibrations may cause significant error
 Vibrational temperatures:     34.29    57.00   162.32   166.31   258.36
          (Kelvin)            320.39   383.84   390.48   441.76   509.47
                              563.39   623.16   655.76   726.55   732.49
                              779.26   802.19   802.73   818.79   910.08
                              996.10  1025.62  1042.54  1069.36  1095.91
                             1104.84  1178.95  1202.64  1248.20  1252.77
                             1299.80  1317.86  1371.96  1375.99  1377.82
                             1445.02  1512.04  1515.47  1561.14  1603.91
                             1659.59  1673.25  1697.59  1749.03  1812.41
                             1836.00  1878.10  1931.54  1965.31  2012.04
                             2014.79  2068.18  2132.36  2163.47  2201.96
                             2243.51  2271.89  2332.11  2369.95  2398.69
                             4468.68  4596.21  4621.41  4623.44  4636.88
                             4638.06  4653.06  4655.07  4662.28

 Zero-point correction=                           0.186372 (Hartree/Particle)
 Thermal correction to Energy=                    0.198780
 Thermal correction to Enthalpy=                  0.199724
 Thermal correction to Gibbs Free Energy=         0.146132
 Sum of electronic and zero-point Energies=          -1028.514487
 Sum of electronic and thermal Energies=             -1028.502080
 Sum of electronic and thermal Enthalpies=           -1028.501136
 Sum of electronic and thermal Free Energies=        -1028.554728

                     E (Thermal)             CV                S
                      KCal/Mol        Cal/Mol-Kelvin    Cal/Mol-Kelvin
 Total                  124.736             49.454            112.794
 Electronic               0.000              0.000              0.000
 Translational            0.889              2.981             42.162
 Rotational               0.889              2.981             32.534
 Vibrational            122.959             43.493             38.098
 Vibration     1          0.593              1.985              6.286
 Vibration     2          0.594              1.981              5.278
 Vibration     3          0.607              1.939              3.220
 Vibration     4          0.608              1.936              3.173
 Vibration     5          0.629              1.867              2.333
 Vibration     6          0.648              1.807              1.937
 Vibration     7          0.672              1.734              1.617
 Vibration     8          0.675              1.726              1.587
 Vibration     9          0.697              1.660              1.378
 Vibration    10          0.730              1.567              1.148
 Vibration    11          0.759              1.488              0.994
 Vibration    12          0.794              1.398              0.849
 Vibration    13          0.814              1.348              0.779
 Vibration    14          0.860              1.239              0.646
 Vibration    15          0.864              1.230              0.636
 Vibration    16          0.897              1.158              0.562
 Vibration    17          0.913              1.123              0.529
 Vibration    18          0.913              1.122              0.528
 Vibration    19          0.925              1.098              0.506

 Optimization completed.
    -- Stationary point found.
 Normal termination of Gaussian 16 at Mon Jul 13 16:38:29 2020.
