 Gaussian 16, Revision C.01,
 Gaussian 16:  ES64L-G16RevC.01  3-Jul-2019

 ----------------------------------------------------------------------
 #p opt=addgic freq td wb97xd/cc-pvdz nosymm int=ultrafine scrf=(solven
 t=CarbonTetraChloride)
 ----------------------------------------------------------------------

 ------------------------------------------------
 NM 2D-scan of HBT TD-WB97XD pVDZ in CTC Relaxed.
 ------------------------------------------------
 Symbolic Z-matrix:
 Charge =  0 Multiplicity = 1

 SCF Done:  E(RwB97XD) =  -1028.81181465     A.U. after   15 cycles
 Total Energy, E(TD-HF/TD-DFT) =  -1028.69066916
 SCF Done:  E(RwB97XD) =  -1028.81190787     A.U. after    9 cycles
 Total Energy, E(TD-HF/TD-DFT) =  -1028.69069242
 SCF Done:  E(RwB97XD) =  -1028.81185223     A.U. after    9 cycles
 Total Energy, E(TD-HF/TD-DFT) =  -1028.69069505
 SCF Done:  E(RwB97XD) =  -1028.81172841     A.U. after   10 cycles
 Total Energy, E(TD-HF/TD-DFT) =  -1028.69069773
 Optimization completed.
    -- Stationary point found.
 Normal termination of Gaussian 16 at Mon Jul 13 14:42:18 2020.

 ----------------------------------------------------------------------
 #P Geom=AllCheck Guess=TCheck SCRF=Check GenChk RwB97XD TD(FC,Read)/CC
 -pVDZ Freq
 ----------------------------------------------------------------------

 Structure from the checkpoint file:  "config_6_12.chk"
 ------------------------------------------------
 NM 2D-scan of HBT TD-WB97XD pVDZ in CTC Relaxed.
 ------------------------------------------------
 Charge =  0 Multiplicity = 1

                          Input orientation:
 ---------------------------------------------------------------------
 Center     Atomic      Atomic             Coordinates (Angstroms)
 Number     Number       Type             X           Y           Z
 ---------------------------------------------------------------------
      1          6           0        1.604794   -3.258541   -0.000028
      2          6           0        0.999620   -2.006334   -0.000024
      3          6           0        1.749574   -0.793307   -0.000018
      4          6           0        3.158593   -0.881265   -0.000020
      5          6           0        3.754185   -2.135475   -0.000024
      6          6           0        2.995216   -3.318898   -0.000028
      7          1           0        1.001286   -4.167060   -0.000033
      8          1           0        3.758919    0.029097   -0.000015
      9          1           0        4.843604   -2.203284   -0.000024
     10          1           0        3.496435   -4.287555   -0.000031
     11          7           0        0.979043    0.329091   -0.000013
     12         16           0       -0.716055   -1.673287   -0.000025
     13          6           0       -1.346661    1.047171    0.000016
     14          6           0       -2.724536    0.780283    0.000025
     15          6           0       -0.897191    2.450551    0.000036
     16          6           0       -3.648705    1.829639    0.000033
     17          1           0       -3.078525   -0.252090    0.000022
     18          6           0       -1.865676    3.480913    0.000036
     19          6           0       -3.226873    3.173399    0.000034
     20          1           0       -4.715159    1.598867    0.000035
     21          1           0       -1.509171    4.511601    0.000045
     22          1           0       -3.966938    3.974006    0.000036
     23          6           0       -0.351917    0.044128   -0.000009
     24          8           0        0.372091    2.695063    0.000053
     25          1           0        0.944637    1.624519    0.000025
 ---------------------------------------------------------------------

 SCF Done:  E(RwB97XD) =  -1028.81172841     A.U. after    1 cycles

 Excitation energies and oscillator strengths:

 Excited state symmetry could not be determined.
 Excited State   1:      Singlet-?Sym    3.2934 eV  376.46 nm  f=0.5118  <S**2>=0.000
      59 -> 60         0.69305
 This state for optimization and/or second-order correction.
 Total Energy, E(TD-HF/TD-DFT) =  -1028.69069770
 Copying the excited state density for this state as the 1-particle RhoCI density.

 Excited state symmetry could not be determined.
 Excited State   2:      Singlet-?Sym    4.3706 eV  283.68 nm  f=0.3218  <S**2>=0.000
      57 -> 60         0.12900
      58 -> 60         0.66409

 Excited state symmetry could not be determined.
 Excited State   3:      Singlet-?Sym    4.7058 eV  263.47 nm  f=0.0000  <S**2>=0.000
      56 -> 60         0.68897

 Alpha  occ. eigenvalues --  -89.09521 -19.25133 -14.49103 -10.40501 -10.37242
 Alpha  occ. eigenvalues --  -10.36243 -10.35292 -10.32586 -10.32125 -10.32001
 Alpha  occ. eigenvalues --  -10.31831 -10.31766 -10.31624 -10.31587 -10.29958
 Alpha  occ. eigenvalues --  -10.29671  -8.11555  -6.06403  -6.06055  -6.05603
 Alpha  occ. eigenvalues --   -1.14041  -1.09364  -0.97226  -0.95632  -0.92606
 Alpha  occ. eigenvalues --   -0.88914  -0.85672  -0.83850  -0.82282  -0.75857
 Alpha  occ. eigenvalues --   -0.71397  -0.70920  -0.68700  -0.67867  -0.63581
 Alpha  occ. eigenvalues --   -0.60840  -0.59239  -0.57948  -0.55505  -0.54585
 Alpha  occ. eigenvalues --   -0.54342  -0.53445  -0.52855  -0.50886  -0.49847
 Alpha  occ. eigenvalues --   -0.49654  -0.47060  -0.46342  -0.45611  -0.44970
 Alpha  occ. eigenvalues --   -0.44197  -0.42966  -0.42247  -0.40609  -0.36563
 Alpha  occ. eigenvalues --   -0.35432  -0.32639  -0.31251  -0.27571
 Alpha virt. eigenvalues --   -0.01767   0.04576   0.06543   0.07169   0.07963
 Alpha virt. eigenvalues --    0.10723   0.14307   0.14988   0.16541   0.17851
 Alpha virt. eigenvalues --    0.18716   0.20859   0.21498   0.22132   0.22596

 Mulliken charges:
               1
     1  C    0.019431
     2  C   -0.228086
     3  C    0.259341
     4  C   -0.017417
     5  C    0.007659
     6  C   -0.001201
     7  H    0.020634
     8  H    0.023939
     9  H    0.022460
    10  H    0.022853
    11  N   -0.320456
    12  S    0.179647
    13  C   -0.099758
    14  C   -0.026206
    15  C    0.123281
    16  C   -0.023351
    17  H    0.013799
    18  C   -0.011252
    19  C    0.027809
    20  H    0.007048
    21  H    0.012298
    22  H    0.020104
    23  C    0.076601
    24  O   -0.338917
    25  H    0.229737
 Sum of Mulliken charges =  -0.00000

 Dipole moment (field-independent basis, Debye):
    X=              0.2850    Y=             -3.5911    Z=             -0.0001  Tot=              3.6024
 Quadrupole moment (field-independent basis, Debye-Ang):
   XX=            -83.0757   YY=            -91.6104   ZZ=           -104.2462
   XY=             -6.9719   XZ=             -0.0001   YZ=             -0.0000

  Exact polarizability:     364.115    -147.159     327.046      -0.002       0.003      63.251
 Approx polarizability:     274.172     -34.900     260.676      -0.001       0.002      82.272

 ******    1 imaginary frequencies (negative Signs) ******

                      1                      2                      3
                      A                      A                      A
 Frequencies --  -1248.3946                44.6944                60.3882
 Red. masses --      1.0684                 5.9299                 5.8434
 Frc consts  --      0.9811                 0.0070                 0.0126
 IR Inten    --   1506.1244                 1.3392                 0.2163

                      4                      5                      6
                      A                      A                      A
 Frequencies --    113.4368               140.2091               177.8484
 Red. masses --      5.4561                 5.6874                 6.1989
 Frc consts  --      0.0414                 0.0659                 0.1155
 IR Inten    --      0.0055                 3.4421                 0.7179

                      7                      8                      9
                      A                      A                      A
 Frequencies --    220.7869               271.9405               276.3369
 Red. masses --      5.3863                 4.7055                 7.3993
 Frc consts  --      0.1547                 0.2050                 0.3329
 IR Inten    --      0.0505                 0.0817                13.1188

                     10                     11                     12
                      A                      A                      A
 Frequencies --    371.5133               376.8546               414.6351
 Red. masses --      4.8679                 6.2845                11.4842
 Frc consts  --      0.3959                 0.5259                 1.1633
 IR Inten    --      0.2821                 3.5264                 4.7574

                     13                     14                     15
                      A                      A                      A
 Frequencies --    438.4187               473.9105               499.2412
 Red. masses --      3.2142                 4.8228                 3.1687
 Frc consts  --      0.3640                 0.6382                 0.4653
 IR Inten    --      4.4548                 0.1917                 0.3937

                     16                     17                     18
                      A                      A                      A
 Frequencies --    506.8736               542.4314               558.7609
 Red. masses --      8.8776                 8.4359                 3.8859
 Frc consts  --      1.3438                 1.4624                 0.7148
 IR Inten    --      1.7787                 6.7091                 0.2417

                     19                     20                     21
                      A                      A                      A
 Frequencies --    576.5986               607.4713               667.2962
 Red. masses --      7.6203                 7.0993                 6.8427
 Frc consts  --      1.4927                 1.5435                 1.7952
 IR Inten    --      5.0701                 8.4981               108.9702

                     22                     23                     24
                      A                      A                      A
 Frequencies --    698.9242               723.5500               742.2197
 Red. masses --      1.6023                 6.4279                 2.1679
 Frc consts  --      0.4612                 1.9827                 0.7037
 IR Inten    --     44.0910                14.1889                21.9665

                     25                     26                     27
                      A                      A                      A
 Frequencies --    749.7382               759.8280               767.2661
 Red. masses --      9.2537                 1.8757                 1.8355
 Frc consts  --      3.0647                 0.6380                 0.6366
 IR Inten    --     25.8435                18.7227                67.1957

                     28                     29                     30
                      A                      A                      A
 Frequencies --    815.7111               829.2210               864.3238
 Red. masses --      1.7176                 6.2405                 1.3996
 Frc consts  --      0.6733                 2.5282                 0.6160
 IR Inten    --      0.0127                 6.1096                 0.9965

                     31                     32                     33
                      A                      A                      A
 Frequencies --    905.8882               914.0423               953.9531
 Red. masses --      1.3718                 6.8142                 1.3489
 Frc consts  --      0.6633                 3.3543                 0.7232
 IR Inten    --      4.8779                25.6931                 1.8811

                     34                     35                     36
                      A                      A                      A
 Frequencies --    957.7835               991.9371              1000.6787
 Red. masses --      1.3819                 7.5806                 1.2968
 Frc consts  --      0.7469                 4.3946                 0.7651
 IR Inten    --      0.3762                11.1948                 0.0007

                     37                     38                     39
                      A                      A                      A
 Frequencies --   1040.2314              1049.6053              1091.2417
 Red. masses --      2.1002                 2.0561                 4.0869
 Frc consts  --      1.3389                 1.3346                 2.8674
 IR Inten    --      1.9258                 2.3341                66.2969

                     40                     41                     42
                      A                      A                      A
 Frequencies --   1131.9155              1152.6089              1170.6009
 Red. masses --      1.4583                 1.3642                 1.1595
 Frc consts  --      1.1008                 1.0678                 0.9362
 IR Inten    --     31.4502                21.5550                75.3827

                     43                     44                     45
                      A                      A                      A
 Frequencies --   1179.0603              1233.6534              1251.8487
 Red. masses --      1.1774                 1.0504                 1.8301
 Frc consts  --      0.9644                 0.9419                 1.6898
 IR Inten    --     26.5018                66.2313                98.1064

                     46                     47                     48
                      A                      A                      A
 Frequencies --   1266.4390              1299.1109              1351.5770
 Red. masses --      2.5855                 2.3245                 4.1258
 Frc consts  --      2.4432                 2.3114                 4.4406
 IR Inten    --     28.9131                12.9973                70.3550

                     49                     50                     51
                      A                      A                      A
 Frequencies --   1366.9636              1386.3574              1404.6511
 Red. masses --      5.7981                 2.5210                 2.6016
 Frc consts  --      6.3834                 2.8548                 3.0244
 IR Inten    --    326.6101                20.1248                20.6771

                     52                     53                     54
                      A                      A                      A
 Frequencies --   1444.2431              1477.2226              1508.4991
 Red. masses --      3.0351                 3.2533                 3.7535
 Frc consts  --      3.7300                 4.1828                 5.0325
 IR Inten    --    350.7252                52.5674                17.6248

                     55                     56                     57
                      A                      A                      A
 Frequencies --   1519.9202              1546.5046              1569.0222
 Red. masses --      4.7843                 4.9564                 4.9751
 Frc consts  --      6.5119                 6.9842                 7.2162
 IR Inten    --    398.3798                68.7976               249.7464

                     58                     59                     60
                      A                      A                      A
 Frequencies --   1620.6422              1638.5552              1654.1050
 Red. masses --      6.0123                 6.1768                 6.3705
 Frc consts  --      9.3039                 9.7709                10.2695
 IR Inten    --     94.9813              1002.1323               105.0050

                     61                     62                     63
                      A                      A                      A
 Frequencies --   1836.2374              3208.3974              3209.1288
 Red. masses --      1.0966                 1.0861                 1.0869
 Frc consts  --      2.1784                 6.5872                 6.5947
 IR Inten    --    128.2788                 8.1644                14.1123

                     64                     65                     66
                      A                      A                      A
 Frequencies --   3218.7130              3220.1777              3228.2362
 Red. masses --      1.0902                 1.0886                 1.0936
 Frc consts  --      6.6544                 6.6511                 6.7147
 IR Inten    --      2.8151                 5.3948                15.4927

                     67                     68                     69
                      A                      A                      A
 Frequencies --   3229.8634              3236.6419              3240.4546
 Red. masses --      1.0952                 1.0993                 1.0983
 Frc consts  --      6.7314                 6.7851                 6.7947
 IR Inten    --      9.8148                26.3465                18.2276

 - Thermochemistry -
 -------------------
 Temperature   298.150 Kelvin.  Pressure   1.00000 Atm.
 Atom     1 has atomic number  6 and mass  12.00000

 Molecular mass:   227.04049 amu.
 Principal axes and moments of inertia in atomic units:
                           1         2         3
     Eigenvalues --  1293.296116302.998647596.29475
           X           -0.70471   0.70949   0.00000
           Y            0.70949   0.70471  -0.00001
           Z            0.00001   0.00001   1.00000
 This molecule is an asymmetric top.
 Rotational symmetry number  1.
 Warning -- assumption of classical behavior for rotation
           may cause significant error
 Rotational temperatures (Kelvin)      0.06697     0.01374     0.01140
 Rotational constants (GHZ):           1.39546     0.28633     0.23758
    1 imaginary frequencies ignored.
 Zero-point vibrational energy     478489.2 (Joules/Mol)
                                  114.36166 (Kcal/Mol)
 Warning -- explicit consideration of  19 degrees of freedom as
           vibrations may cause significant error
 Vibrational temperatures:     64.31    86.89   163.21   201.73   255.88
          (Kelvin)            317.66   391.26   397.59   534.52   542.21
                              596.57   630.79   681.85   718.30   729.28
                              780.44   803.93   829.60   874.02   960.09
                             1005.60  1041.03  1067.89  1078.71  1093.22
                             1103.92  1173.63  1193.06  1243.57  1303.37
                             1315.10  1372.53  1378.04  1427.18  1439.75
                             1496.66  1510.15  1570.05  1628.57  1658.35
                             1684.23  1696.40  1774.95  1801.13  1822.12
                             1869.13  1944.62  1966.76  1994.66  2020.98
                             2077.94  2125.39  2170.39  2186.83  2225.08
                             2257.47  2331.74  2357.52  2379.89  2641.94
                             4616.17  4617.22  4631.01  4633.12  4644.71
                             4647.05  4656.81  4662.29

 Zero-point correction=                           0.182247 (Hartree/Particle)
 Thermal correction to Energy=                    0.194252
 Thermal correction to Enthalpy=                  0.195196
 Thermal correction to Gibbs Free Energy=         0.143233
 Sum of electronic and zero-point Energies=          -1028.508451
 Sum of electronic and thermal Energies=             -1028.496446
 Sum of electronic and thermal Enthalpies=           -1028.495502
 Sum of electronic and thermal Free Energies=        -1028.547465

                     E (Thermal)             CV                S
                      KCal/Mol        Cal/Mol-Kelvin    Cal/Mol-Kelvin
 Total                  121.895             48.336            109.366
 Electronic               0.000              0.000              0.000
 Translational            0.889              2.981             42.162
 Rotational               0.889              2.981             32.493
 Vibrational            120.118             42.374             34.710
 Vibration     1          0.595              1.980              5.039
 Vibration     2          0.597              1.973              4.444
 Vibration     3          0.607              1.938              3.209
 Vibration     4          0.615              1.913              2.801
 Vibration     5          0.628              1.870              2.351
 Vibration     6          0.648              1.809              1.953
 Vibration     7          0.675              1.725              1.584
 Vibration     8          0.678              1.717              1.556
 Vibration     9          0.743              1.531              1.074
 Vibration    10          0.747              1.519              1.052
 Vibration    11          0.778              1.438              0.910
 Vibration    12          0.799              1.386              0.832
 Vibration    13          0.831              1.308              0.727
 Vibration    14          0.855              1.252              0.660
 Vibration    15          0.862              1.235              0.641
 Vibration    16          0.898              1.156              0.560
 Vibration    17          0.914              1.121              0.526
 Vibration    18          0.933              1.082              0.492
 Vibration    19          0.966              1.016              0.437

 Optimization completed.
    -- Stationary point found.
 Normal termination of Gaussian 16 at Mon Jul 13 15:00:17 2020.
