 Gaussian 16, Revision C.01,
 Gaussian 16:  ES64L-G16RevC.01  3-Jul-2019

 ----------------------------------------------------------------------
 #p opt=addgic freq td wb97xd/cc-pvdz nosymm int=ultrafine scrf=(solven
 t=CarbonTetraChloride)
 ----------------------------------------------------------------------

 ------------------------------------------------
 NM 2D-scan of HBT TD-WB97XD pVDZ in CTC Relaxed.
 ------------------------------------------------
 Symbolic Z-matrix:
 Charge =  0 Multiplicity = 1

 SCF Done:  E(RwB97XD) =  -1028.80826561     A.U. after   15 cycles
 Total Energy, E(TD-HF/TD-DFT) =  -1028.69513889
 SCF Done:  E(RwB97XD) =  -1028.79960432     A.U. after   14 cycles
 Total Energy, E(TD-HF/TD-DFT) =  -1028.69397079
 SCF Done:  E(RwB97XD) =  -1028.80709318     A.U. after   11 cycles
 Total Energy, E(TD-HF/TD-DFT) =  -1028.69734496
 SCF Done:  E(RwB97XD) =  -1028.80745620     A.U. after   11 cycles
 Total Energy, E(TD-HF/TD-DFT) =  -1028.69737519
 SCF Done:  E(RwB97XD) =  -1028.80750810     A.U. after    9 cycles
 Total Energy, E(TD-HF/TD-DFT) =  -1028.69737628
 SCF Done:  E(RwB97XD) =  -1028.80752059     A.U. after    8 cycles
 Total Energy, E(TD-HF/TD-DFT) =  -1028.69737633
 SCF Done:  E(RwB97XD) =  -1028.80751938     A.U. after    7 cycles
 Total Energy, E(TD-HF/TD-DFT) =  -1028.69737638
 Optimization completed.
    -- Stationary point found.
 Normal termination of Gaussian 16 at Mon Jul 13 16:06:19 2020.

 ----------------------------------------------------------------------
 #P Geom=AllCheck Guess=TCheck SCRF=Check GenChk RwB97XD TD(FC,Read)/CC
 -pVDZ Freq
 ----------------------------------------------------------------------

 Structure from the checkpoint file:  "config_8_8.chk"
 ------------------------------------------------
 NM 2D-scan of HBT TD-WB97XD pVDZ in CTC Relaxed.
 ------------------------------------------------
 Charge =  0 Multiplicity = 1

                          Input orientation:
 ---------------------------------------------------------------------
 Center     Atomic      Atomic             Coordinates (Angstroms)
 Number     Number       Type             X           Y           Z
 ---------------------------------------------------------------------
      1          6           0        1.669238   -3.281188   -0.000064
      2          6           0        0.996787   -2.059955   -0.000034
      3          6           0        1.715533   -0.834337    0.000003
      4          6           0        3.119734   -0.838468    0.000017
      5          6           0        3.777099   -2.058177   -0.000013
      6          6           0        3.065075   -3.269087   -0.000054
      7          1           0        1.120477   -4.223767   -0.000090
      8          1           0        3.663401    0.106633    0.000049
      9          1           0        4.868115   -2.077439   -0.000004
     10          1           0        3.608208   -4.214936   -0.000076
     11          7           0        0.918952    0.266325    0.000028
     12         16           0       -0.738079   -1.750272   -0.000021
     13          6           0       -1.373838    1.045876    0.000020
     14          6           0       -2.756608    0.838652    0.000031
     15          6           0       -0.878747    2.449698    0.000006
     16          6           0       -3.655744    1.923052    0.000048
     17          1           0       -3.153113   -0.179326    0.000033
     18          6           0       -1.828757    3.502606    0.000014
     19          6           0       -3.198098    3.247402    0.000043
     20          1           0       -4.727437    1.718507    0.000062
     21          1           0       -1.428317    4.517315   -0.000005
     22          1           0       -3.910555    4.072937    0.000052
     23          6           0       -0.412157   -0.007456    0.000008
     24          8           0        0.371254    2.718098   -0.000066
     25          1           0        1.049287    1.369114    0.000103
 ---------------------------------------------------------------------

 SCF Done:  E(RwB97XD) =  -1028.80751938     A.U. after    1 cycles

 Excitation energies and oscillator strengths:

 Excited state symmetry could not be determined.
 Excited State   1:      Singlet-?Sym    2.9971 eV  413.67 nm  f=0.4469  <S**2>=0.000
      59 -> 60         0.69564
 This state for optimization and/or second-order correction.
 Total Energy, E(TD-HF/TD-DFT) =  -1028.69737640
 Copying the excited state density for this state as the 1-particle RhoCI density.

 Excited state symmetry could not be determined.
 Excited State   2:      Singlet-?Sym    3.9888 eV  310.83 nm  f=0.0000  <S**2>=0.000
      57 -> 60         0.68477
      57 -> 62         0.11339
      57 -> 64         0.11746

 Excited state symmetry could not be determined.
 Excited State   3:      Singlet-?Sym    4.3298 eV  286.35 nm  f=0.3986  <S**2>=0.000
      58 -> 60         0.67847

 Alpha  occ. eigenvalues --  -89.10418 -19.22227 -14.51414 -10.41686 -10.37157
 Alpha  occ. eigenvalues --  -10.36364 -10.36171 -10.33261 -10.32612 -10.32329
 Alpha  occ. eigenvalues --  -10.32229 -10.31704 -10.31395 -10.31028 -10.29426
 Alpha  occ. eigenvalues --  -10.28684  -8.12356  -6.07230  -6.06870  -6.06380
 Alpha  occ. eigenvalues --   -1.12570  -1.09690  -0.97979  -0.95194  -0.93048
 Alpha  occ. eigenvalues --   -0.89097  -0.86285  -0.83826  -0.81561  -0.75939
 Alpha  occ. eigenvalues --   -0.72209  -0.71746  -0.68609  -0.67734  -0.64554
 Alpha  occ. eigenvalues --   -0.60929  -0.59557  -0.56950  -0.55475  -0.55255
 Alpha  occ. eigenvalues --   -0.54731  -0.53645  -0.52999  -0.50823  -0.49515
 Alpha  occ. eigenvalues --   -0.48931  -0.48120  -0.46740  -0.45309  -0.45058
 Alpha  occ. eigenvalues --   -0.44217  -0.43115  -0.41974  -0.40499  -0.36740
 Alpha  occ. eigenvalues --   -0.33378  -0.32934  -0.31335  -0.26440
 Alpha virt. eigenvalues --   -0.01994   0.03956   0.06048   0.06352   0.08840
 Alpha virt. eigenvalues --    0.10555   0.13137   0.14732   0.16151   0.17480
 Alpha virt. eigenvalues --    0.18827   0.20372   0.21057   0.21518   0.22996

 Mulliken charges:
               1
     1  C    0.015054
     2  C   -0.236494
     3  C    0.269988
     4  C   -0.011678
     5  C    0.012047
     6  C   -0.001119
     7  H    0.025281
     8  H    0.029981
     9  H    0.025912
    10  H    0.025723
    11  N   -0.193696
    12  S    0.196171
    13  C   -0.111582
    14  C   -0.023953
    15  C    0.123561
    16  C   -0.032695
    17  H    0.006515
    18  C   -0.014126
    19  C    0.031464
    20  H    0.003637
    21  H    0.004882
    22  H    0.016037
    23  C    0.060668
    24  O   -0.411151
    25  H    0.189572
 Sum of Mulliken charges =   0.00000

 Dipole moment (field-independent basis, Debye):
    X=              1.2721    Y=             -4.9875    Z=              0.0002  Tot=              5.1472
 Quadrupole moment (field-independent basis, Debye-Ang):
   XX=            -82.7019   YY=            -94.2367   ZZ=           -104.2836
   XY=             -6.8533   XZ=              0.0002   YZ=              0.0008

  Exact polarizability:     350.373    -126.844     305.101      -0.002       0.003      63.294
 Approx polarizability:     273.711     -35.798     265.955      -0.001       0.002      82.167

                      1                      2                      3
                      A                      A                      A
 Frequencies --     35.9935                53.8548               112.2454
 Red. masses --      6.0549                 6.2761                 5.6534
 Frc consts  --      0.0046                 0.0107                 0.0420
 IR Inten    --      1.3898                 1.0766                29.6143

                      4                      5                      6
                      A                      A                      A
 Frequencies --    115.1169               180.5314               219.3592
 Red. masses --      5.1785                 5.7761                 5.4219
 Frc consts  --      0.0404                 0.1109                 0.1537
 IR Inten    --      0.1922                 0.1814                 0.1766

                      7                      8                      9
                      A                      A                      A
 Frequencies --    255.6102               269.4469               301.5436
 Red. masses --      7.3061                 4.6767                 6.0772
 Frc consts  --      0.2812                 0.2000                 0.3256
 IR Inten    --     28.3250                 0.2522                41.7969

                     10                     11                     12
                      A                      A                      A
 Frequencies --    361.6360               398.7201               436.4092
 Red. masses --      5.0569                 9.9655                 3.2958
 Frc consts  --      0.3897                 0.9334                 0.3698
 IR Inten    --      0.8676                 2.8874                 4.3898

                     13                     14                     15
                      A                      A                      A
 Frequencies --    463.9626               503.7807               505.2038
 Red. masses --      4.7126                 3.1783                 8.9078
 Frc consts  --      0.5977                 0.4753                 1.3395
 IR Inten    --      1.4030                 0.5298                10.3778

                     16                     17                     18
                      A                      A                      A
 Frequencies --    538.6421               552.4140               557.4712
 Red. masses --      6.9950                 5.6485                 3.8590
 Frc consts  --      1.1957                 1.0156                 0.7066
 IR Inten    --     35.8057                86.6163                 0.4911

                     19                     20                     21
                      A                      A                      A
 Frequencies --    575.1164               612.6745               689.8882
 Red. masses --      7.6086                 5.2150                 7.1056
 Frc consts  --      1.4827                 1.1534                 1.9925
 IR Inten    --     42.5989               145.9931                 4.8756

                     22                     23                     24
                      A                      A                      A
 Frequencies --    694.1642               712.6360               742.3911
 Red. masses --      1.5827                 6.1289                 2.6679
 Frc consts  --      0.4493                 1.8339                 0.8663
 IR Inten    --     37.8477                 5.4912                12.8279

                     25                     26                     27
                      A                      A                      A
 Frequencies --    764.6147               769.0044               815.5956
 Red. masses --      1.7655                 1.6826                 5.9696
 Frc consts  --      0.6081                 0.5863                 2.3396
 IR Inten    --      0.9835                91.3374                 6.1013

                     28                     29                     30
                      A                      A                      A
 Frequencies --    834.1330               837.6514               867.9091
 Red. masses --      1.6822                 3.6571                 1.3845
 Frc consts  --      0.6896                 1.5119                 0.6145
 IR Inten    --      0.0012                81.7728                 0.8460

                     31                     32                     33
                      A                      A                      A
 Frequencies --    906.7799               945.6470               954.5763
 Red. masses --      1.4039                 5.6213                 1.3702
 Frc consts  --      0.6801                 2.9617                 0.7356
 IR Inten    --      6.2891                17.2181                 0.5598

                     34                     35                     36
                      A                      A                      A
 Frequencies --    958.0393              1004.1683              1047.3308
 Red. masses --      1.3475                 1.2949                 2.1650
 Frc consts  --      0.7287                 0.7693                 1.3992
 IR Inten    --      1.7482                 0.0083                 3.5815

                     37                     38                     39
                      A                      A                      A
 Frequencies --   1051.1690              1074.4900              1101.8692
 Red. masses --      2.1383                 4.1416                 1.0603
 Frc consts  --      1.3920                 2.8172                 0.7584
 IR Inten    --      8.8319                28.4399                69.1971

                     40                     41                     42
                      A                      A                      A
 Frequencies --   1120.3568              1149.7437              1164.1724
 Red. masses --      1.5220                 1.4316                 1.2778
 Frc consts  --      1.1256                 1.1150                 1.0203
 IR Inten    --     83.4101                81.6242                 7.6558

                     43                     44                     45
                      A                      A                      A
 Frequencies --   1171.2518              1184.7399              1260.8873
 Red. masses --      1.3601                 1.3185                 1.8003
 Frc consts  --      1.0993                 1.0903                 1.6864
 IR Inten    --    312.4225                42.3842               103.2448

                     46                     47                     48
                      A                      A                      A
 Frequencies --   1266.8550              1309.5005              1342.7529
 Red. masses --      2.4404                 2.1198                 5.3230
 Frc consts  --      2.3076                 2.1417                 5.6546
 IR Inten    --     35.7383                37.1501                36.8416

                     49                     50                     51
                      A                      A                      A
 Frequencies --   1361.4315              1391.7978              1406.0459
 Red. masses --      6.4137                 2.7712                 2.1224
 Frc consts  --      7.0041                 3.1628                 2.4721
 IR Inten    --    170.6699                 4.7803                 5.5117

                     52                     53                     54
                      A                      A                      A
 Frequencies --   1439.1005              1484.6237              1497.2988
 Red. masses --      3.3633                 2.9182                 3.2880
 Frc consts  --      4.1039                 3.7897                 4.3431
 IR Inten    --    572.2920                 0.3489                46.8623

                     55                     56                     57
                      A                      A                      A
 Frequencies --   1537.6342              1542.4392              1576.5427
 Red. masses --      4.2785                 5.4659                 4.3668
 Frc consts  --      5.9600                 7.6618                 6.3948
 IR Inten    --     57.0125               163.0176                54.3585

                     58                     59                     60
                      A                      A                      A
 Frequencies --   1623.5895              1636.1750              1663.6678
 Red. masses --      5.6686                 5.9026                 6.7381
 Frc consts  --      8.8039                 9.3100                10.9880
 IR Inten    --    277.5822               235.3336               143.5424

                     61                     62                     63
                      A                      A                      A
 Frequencies --   2361.3252              3196.9503              3211.4707
 Red. masses --      1.1126                 1.0885                 1.0863
 Frc consts  --      3.6551                 6.5547                 6.6010
 IR Inten    --   1233.4498                22.4819                 5.1466

                     64                     65                     66
                      A                      A                      A
 Frequencies --   3213.8619              3221.9010              3224.6475
 Red. masses --      1.0867                 1.0905                 1.0926
 Frc consts  --      6.6135                 6.6693                 6.6941
 IR Inten    --      2.0188                 3.7004                15.7299

                     67                     68                     69
                      A                      A                      A
 Frequencies --   3233.0902              3236.3702              3239.3413
 Red. masses --      1.0955                 1.0989                 1.0994
 Frc consts  --      6.7467                 6.7813                 6.7970
 IR Inten    --      9.2556                23.8521                12.1994

 - Thermochemistry -
 -------------------
 Temperature   298.150 Kelvin.  Pressure   1.00000 Atm.
 Atom     1 has atomic number  6 and mass  12.00000

 Molecular mass:   227.04049 amu.
 Principal axes and moments of inertia in atomic units:
                           1         2         3
     Eigenvalues --  1316.861746365.875627682.73736
           X           -0.70131   0.71286   0.00001
           Y            0.71286   0.70131  -0.00000
           Z            0.00001  -0.00000   1.00000
 This molecule is an asymmetric top.
 Rotational symmetry number  1.
 Warning -- assumption of classical behavior for rotation
           may cause significant error
 Rotational temperatures (Kelvin)      0.06577     0.01361     0.01127
 Rotational constants (GHZ):           1.37049     0.28350     0.23491
 Zero-point vibrational energy     485034.0 (Joules/Mol)
                                  115.92591 (Kcal/Mol)
 Warning -- explicit consideration of  20 degrees of freedom as
           vibrations may cause significant error
 Vibrational temperatures:     51.79    77.49   161.50   165.63   259.74
          (Kelvin)            315.61   367.77   387.67   433.85   520.31
                              573.67   627.90   667.54   724.83   726.88
                              774.99   794.80   802.08   827.46   881.50
                              992.60   998.75  1025.32  1068.14  1100.11
                             1106.43  1173.46  1200.13  1205.19  1248.73
                             1304.65  1360.58  1373.42  1378.40  1444.77
                             1506.88  1512.40  1545.95  1585.34  1611.94
                             1654.22  1674.98  1685.17  1704.58  1814.14
                             1822.72  1884.08  1931.92  1958.80  2002.49
                             2022.99  2070.54  2136.04  2154.28  2212.31
                             2219.23  2268.29  2335.98  2354.09  2393.65
                             3397.42  4599.70  4620.59  4624.03  4635.60
                             4639.55  4651.70  4656.41  4660.69

 Zero-point correction=                           0.184740 (Hartree/Particle)
 Thermal correction to Energy=                    0.197113
 Thermal correction to Enthalpy=                  0.198057
 Thermal correction to Gibbs Free Energy=         0.145088
 Sum of electronic and zero-point Energies=          -1028.512637
 Sum of electronic and thermal Energies=             -1028.500264
 Sum of electronic and thermal Enthalpies=           -1028.499319
 Sum of electronic and thermal Free Energies=        -1028.552289

                     E (Thermal)             CV                S
                      KCal/Mol        Cal/Mol-Kelvin    Cal/Mol-Kelvin
 Total                  123.690             49.459            111.483
 Electronic               0.000              0.000              0.000
 Translational            0.889              2.981             42.162
 Rotational               0.889              2.981             32.532
 Vibrational            121.913             43.497             36.789
 Vibration     1          0.594              1.982              5.468
 Vibration     2          0.596              1.976              4.671
 Vibration     3          0.607              1.939              3.230
 Vibration     4          0.608              1.937              3.181
 Vibration     5          0.629              1.866              2.323
 Vibration     6          0.647              1.812              1.964
 Vibration     7          0.666              1.753              1.692
 Vibration     8          0.674              1.729              1.600
 Vibration     9          0.694              1.671              1.408
 Vibration    10          0.736              1.551              1.115
 Vibration    11          0.765              1.473              0.967
 Vibration    12          0.797              1.391              0.838
 Vibration    13          0.822              1.330              0.755
 Vibration    14          0.859              1.242              0.649
 Vibration    15          0.860              1.238              0.645
 Vibration    16          0.894              1.165              0.568
 Vibration    17          0.908              1.134              0.539
 Vibration    18          0.913              1.123              0.529
 Vibration    19          0.931              1.085              0.494
 Vibration    20          0.972              1.005              0.428

 Optimization completed.
    -- Stationary point found.
 Normal termination of Gaussian 16 at Mon Jul 13 16:24:54 2020.
