 Gaussian 16, Revision C.01,
 Gaussian 16:  ES64L-G16RevC.01  3-Jul-2019

 ----------------------------------------------------------------------
 #p opt=addgic freq td wb97xd/cc-pvdz nosymm int=ultrafine scrf=(solven
 t=CarbonTetraChloride)
 ----------------------------------------------------------------------

 ------------------------------------------------
 NM 2D-scan of HBT TD-WB97XD pVDZ in CTC Relaxed.
 ------------------------------------------------
 Symbolic Z-matrix:
 Charge =  0 Multiplicity = 1

 SCF Done:  E(RwB97XD) =  -1028.69288066     A.U. after   16 cycles
 Total Energy, E(TD-HF/TD-DFT) =  -1028.58694836
 SCF Done:  E(RwB97XD) =  -1028.77740089     A.U. after   14 cycles
 Total Energy, E(TD-HF/TD-DFT) =  -1028.67518790
 SCF Done:  E(RwB97XD) =  -1028.78937604     A.U. after   14 cycles
 Total Energy, E(TD-HF/TD-DFT) =  -1028.68935728
 SCF Done:  E(RwB97XD) =  -1028.79698796     A.U. after   13 cycles
 Total Energy, E(TD-HF/TD-DFT) =  -1028.69415436
 SCF Done:  E(RwB97XD) =  -1028.79639433     A.U. after   11 cycles
 Total Energy, E(TD-HF/TD-DFT) =  -1028.69473695
 SCF Done:  E(RwB97XD) =  -1028.79637269     A.U. after   10 cycles
 Total Energy, E(TD-HF/TD-DFT) =  -1028.69475078
 SCF Done:  E(RwB97XD) =  -1028.79632446     A.U. after    9 cycles
 Total Energy, E(TD-HF/TD-DFT) =  -1028.69475217
 Optimization completed.
    -- Stationary point found.
 Normal termination of Gaussian 16 at Mon Jul 13 19:31:24 2020.

 ----------------------------------------------------------------------
 #P Geom=AllCheck Guess=TCheck SCRF=Check GenChk RwB97XD TD(FC,Read)/CC
 -pVDZ Freq
 ----------------------------------------------------------------------

 Structure from the checkpoint file:  "config_11_10.chk"
 ------------------------------------------------
 NM 2D-scan of HBT TD-WB97XD pVDZ in CTC Relaxed.
 ------------------------------------------------
 Charge =  0 Multiplicity = 1

                          Input orientation:
 ---------------------------------------------------------------------
 Center     Atomic      Atomic             Coordinates (Angstroms)
 Number     Number       Type             X           Y           Z
 ---------------------------------------------------------------------
      1          6           0        1.660531   -3.294252    0.000145
      2          6           0        1.018546   -2.061793    0.000049
      3          6           0        1.758293   -0.877105   -0.000110
      4          6           0        3.158801   -0.887053   -0.000170
      5          6           0        3.792429   -2.124743   -0.000074
      6          6           0        3.056557   -3.315627    0.000081
      7          1           0        1.089022   -4.222525    0.000266
      8          1           0        3.722770    0.046335   -0.000286
      9          1           0        4.882739   -2.164538   -0.000117
     10          1           0        3.577284   -4.273605    0.000152
     11          7           0        0.938524    0.209011   -0.000189
     12         16           0       -0.715383   -1.695987    0.000089
     13          6           0       -1.391560    1.088150   -0.000035
     14          6           0       -2.753262    0.850671   -0.000152
     15          6           0       -0.897767    2.486569    0.000154
     16          6           0       -3.704361    1.918389   -0.000072
     17          1           0       -3.128148   -0.176281   -0.000318
     18          6           0       -1.901070    3.516143    0.000217
     19          6           0       -3.278447    3.237866    0.000115
     20          1           0       -4.767625    1.673863   -0.000161
     21          1           0       -1.535915    4.545101    0.000387
     22          1           0       -4.005231    4.051714    0.000181
     23          6           0       -0.412524    0.024032   -0.000071
     24          8           0        0.332353    2.713734    0.000272
     25          1           0        1.364613    1.111392   -0.000268
 ---------------------------------------------------------------------

 SCF Done:  E(RwB97XD) =  -1028.79632446     A.U. after    1 cycles

 Excitation energies and oscillator strengths:

 Excited state symmetry could not be determined.
 Excited State   1:      Singlet-?Sym    2.7639 eV  448.58 nm  f=0.4351  <S**2>=0.000
      59 -> 60         0.69710
 This state for optimization and/or second-order correction.
 Total Energy, E(TD-HF/TD-DFT) =  -1028.69475218
 Copying the excited state density for this state as the 1-particle RhoCI density.

 Excited state symmetry could not be determined.
 Excited State   2:      Singlet-?Sym    3.4198 eV  362.55 nm  f=0.0000  <S**2>=0.000
      58 -> 60         0.68378
      58 -> 62         0.11600
      58 -> 64         0.10768

 Excited state symmetry could not be determined.
 Excited State   3:      Singlet-?Sym    4.3128 eV  287.48 nm  f=0.4567  <S**2>=0.000
      57 -> 60         0.68234

 Alpha  occ. eigenvalues --  -89.10646 -19.20386 -14.52710 -10.42546 -10.37360
 Alpha  occ. eigenvalues --  -10.36275 -10.35498 -10.33588 -10.33287 -10.32837
 Alpha  occ. eigenvalues --  -10.32557 -10.31390 -10.31006 -10.30562 -10.29034
 Alpha  occ. eigenvalues --  -10.28128  -8.12635  -6.07517  -6.07129  -6.06654
 Alpha  occ. eigenvalues --   -1.13375  -1.09233  -0.98622  -0.95454  -0.93272
 Alpha  occ. eigenvalues --   -0.89124  -0.86765  -0.84096  -0.80744  -0.75979
 Alpha  occ. eigenvalues --   -0.74226  -0.71986  -0.69259  -0.67494  -0.64961
 Alpha  occ. eigenvalues --   -0.61049  -0.59809  -0.56524  -0.56231  -0.55974
 Alpha  occ. eigenvalues --   -0.55081  -0.53659  -0.53068  -0.50582  -0.48749
 Alpha  occ. eigenvalues --   -0.48714  -0.48309  -0.47046  -0.45576  -0.44842
 Alpha  occ. eigenvalues --   -0.44160  -0.42833  -0.42187  -0.39966  -0.36928
 Alpha  occ. eigenvalues --   -0.33816  -0.31551  -0.30925  -0.25447
 Alpha virt. eigenvalues --   -0.02201   0.03554   0.05758   0.06493   0.09646
 Alpha virt. eigenvalues --    0.10836   0.12853   0.14501   0.16061   0.16874
 Alpha virt. eigenvalues --    0.18240   0.19865   0.20866   0.21274   0.22807

 Mulliken charges:
               1
     1  C    0.015411
     2  C   -0.246550
     3  C    0.230767
     4  C   -0.010170
     5  C    0.013662
     6  C    0.002494
     7  H    0.026326
     8  H    0.033087
     9  H    0.029099
    10  H    0.027786
    11  N   -0.089274
    12  S    0.200251
    13  C   -0.086391
    14  C   -0.032156
    15  C    0.110614
    16  C   -0.039026
    17  H    0.004298
    18  C   -0.047734
    19  C    0.034593
    20  H    0.001128
    21  H   -0.001136
    22  H    0.013588
    23  C    0.077774
    24  O   -0.389926
    25  H    0.121484
 Sum of Mulliken charges =  -0.00000

 Dipole moment (field-independent basis, Debye):
    X=              2.4275    Y=             -6.0287    Z=             -0.0007  Tot=              6.4990
 Quadrupole moment (field-independent basis, Debye-Ang):
   XX=            -81.6966   YY=            -96.3743   ZZ=           -104.1808
   XY=             -6.1949   XZ=             -0.0010   YZ=             -0.0021

  Exact polarizability:     347.706    -119.576     292.889      -0.000       0.001      63.285
 Approx polarizability:     275.681     -39.519     265.081      -0.001       0.002      82.018

 ******    1 imaginary frequencies (negative Signs) ******

                      1                      2                      3
                      A                      A                      A
 Frequencies --    -79.6894                48.1362               102.6387
 Red. masses --      5.7540                 6.5231                 5.1872
 Frc consts  --      0.0215                 0.0089                 0.0322
 IR Inten    --      2.4364                 1.3556                 0.1298

                      4                      5                      6
                      A                      A                      A
 Frequencies --    109.4918               174.9777               226.7549
 Red. masses --      5.7327                 5.1476                 5.6497
 Frc consts  --      0.0405                 0.0929                 0.1712
 IR Inten    --      7.2891                 0.0008                 1.1344

                      7                      8                      9
                      A                      A                      A
 Frequencies --    263.9327               270.3428               300.9922
 Red. masses --      7.6516                 4.3159                 8.2416
 Frc consts  --      0.3140                 0.1858                 0.4399
 IR Inten    --      1.5245                 2.8217                 2.3522

                     10                     11                     12
                      A                      A                      A
 Frequencies --    342.1371               375.6108               422.6850
 Red. masses --      4.4141                 7.2834                 3.5522
 Frc consts  --      0.3044                 0.6054                 0.3739
 IR Inten    --      1.0958                 8.5810                 7.1578

                     13                     14                     15
                      A                      A                      A
 Frequencies --    443.4029               499.5634               513.7617
 Red. masses --      4.2173                 8.1469                 3.1937
 Frc consts  --      0.4885                 1.1979                 0.4967
 IR Inten    --      5.5344                11.6632                 0.1102

                     16                     17                     18
                      A                      A                      A
 Frequencies --    540.6730               548.8916               550.2887
 Red. masses --      8.5010                 6.7902                 2.3210
 Frc consts  --      1.4642                 1.2053                 0.4141
 IR Inten    --     11.3173                43.5975                20.6259

                     19                     20                     21
                      A                      A                      A
 Frequencies --    566.5944               578.7187               641.2489
 Red. masses --      7.3079                 1.3902                 6.2347
 Frc consts  --      1.3823                 0.2743                 1.5105
 IR Inten    --      7.3096                41.3763                24.9321

                     22                     23                     24
                      A                      A                      A
 Frequencies --    689.2341               704.9451               735.7586
 Red. masses --      1.5240                 5.9489                 7.7381
 Frc consts  --      0.4265                 1.7418                 2.4681
 IR Inten    --     27.4401                 2.2470                 5.2021

                     25                     26                     27
                      A                      A                      A
 Frequencies --    744.5343               759.9096               768.0301
 Red. masses --      2.6169                 1.7087                 1.6479
 Frc consts  --      0.8547                 0.5813                 0.5727
 IR Inten    --     16.1571                 9.1046                94.0620

                     28                     29                     30
                      A                      A                      A
 Frequencies --    816.3203               839.7336               865.9755
 Red. masses --      6.3246                 1.9048                 1.3783
 Frc consts  --      2.4831                 0.7914                 0.6090
 IR Inten    --     17.2539                 1.0792                 1.3890

                     31                     32                     33
                      A                      A                      A
 Frequencies --    893.6871               902.9565               953.1779
 Red. masses --      5.3422                 1.4360                 1.3591
 Frc consts  --      2.5139                 0.6898                 0.7275
 IR Inten    --      0.6446                 9.0389                 0.5430

                     34                     35                     36
                      A                      A                      A
 Frequencies --    957.6776               961.6049              1004.3922
 Red. masses --      1.3500                 4.8076                 1.2944
 Frc consts  --      0.7295                 2.6192                 0.7694
 IR Inten    --      1.6687                 0.6684                 0.0040

                     37                     38                     39
                      A                      A                      A
 Frequencies --   1042.0264              1054.4718              1085.5184
 Red. masses --      2.2486                 2.1577                 3.7837
 Frc consts  --      1.4386                 1.4136                 2.6269
 IR Inten    --      0.5677                 9.1473                 1.0898

                     40                     41                     42
                      A                      A                      A
 Frequencies --   1098.7898              1152.1063              1156.4469
 Red. masses --      1.6873                 1.3218                 1.2393
 Frc consts  --      1.2002                 1.0338                 0.9765
 IR Inten    --     42.6089                 6.2431               103.6618

                     43                     44                     45
                      A                      A                      A
 Frequencies --   1172.1253              1183.5004              1241.1965
 Red. masses --      1.3570                 1.1880                 2.4738
 Frc consts  --      1.0984                 0.9804                 2.2454
 IR Inten    --     56.0481                 0.9718                19.5980

                     46                     47                     48
                      A                      A                      A
 Frequencies --   1254.1149              1298.4692              1337.3051
 Red. masses --      2.5892                 1.5931                 4.0734
 Frc consts  --      2.3994                 1.5825                 4.2921
 IR Inten    --     48.4214                 5.5902                18.4797

                     49                     50                     51
                      A                      A                      A
 Frequencies --   1364.4450              1397.5229              1402.1962
 Red. masses --      2.7207                 2.3326                 4.8797
 Frc consts  --      2.9843                 2.6841                 5.6528
 IR Inten    --     60.7405                33.4873                60.7599

                     52                     53                     54
                      A                      A                      A
 Frequencies --   1444.4350              1471.4994              1517.3920
 Red. masses --      2.8851                 3.1429                 3.2841
 Frc consts  --      3.5465                 4.0097                 4.4552
 IR Inten    --    133.0286                 4.0728                84.5099

                     55                     56                     57
                      A                      A                      A
 Frequencies --   1521.4988              1555.6747              1607.5377
 Red. masses --      3.2139                 5.5132                 5.2600
 Frc consts  --      4.3836                 7.8613                 8.0086
 IR Inten    --     12.9206               185.5615               114.7440

                     58                     59                     60
                      A                      A                      A
 Frequencies --   1638.6179              1666.0281              1676.2138
 Red. masses --      8.2401                 7.0095                 7.1154
 Frc consts  --     13.0358                11.4631                11.7790
 IR Inten    --    145.1019                62.8827                89.0922

                     61                     62                     63
                      A                      A                      A
 Frequencies --   3189.7136              3208.1673              3214.5060
 Red. masses --      1.0890                 1.0862                 1.0864
 Frc consts  --      6.5282                 6.5865                 6.6138
 IR Inten    --     24.7743                 2.1969                 5.2022

                     64                     65                     66
                      A                      A                      A
 Frequencies --   3219.7634              3225.9726              3232.9480
 Red. masses --      1.0915                 1.0901                 1.0990
 Frc consts  --      6.6668                 6.6843                 6.7679
 IR Inten    --     14.5541                 2.9894                27.2524

                     67                     68                     69
                      A                      A                      A
 Frequencies --   3234.3546              3242.0304              3790.8249
 Red. masses --      1.0959                 1.0994                 1.0793
 Frc consts  --      6.7548                 6.8083                 9.1385
 IR Inten    --      6.3318                12.5450               357.7728

 - Thermochemistry -
 -------------------
 Temperature   298.150 Kelvin.  Pressure   1.00000 Atm.
 Atom     1 has atomic number  6 and mass  12.00000

 Molecular mass:   227.04049 amu.
 Principal axes and moments of inertia in atomic units:
                           1         2         3
     Eigenvalues --  1281.247746503.997907785.24561
           X           -0.70502   0.70919   0.00000
           Y            0.70919   0.70502  -0.00001
           Z            0.00001   0.00001   1.00000
 This molecule is an asymmetric top.
 Rotational symmetry number  1.
 Warning -- assumption of classical behavior for rotation
           may cause significant error
 Rotational temperatures (Kelvin)      0.06760     0.01332     0.01113
 Rotational constants (GHZ):           1.40858     0.27748     0.23182
    1 imaginary frequencies ignored.
 Zero-point vibrational energy     490565.8 (Joules/Mol)
                                  117.24804 (Kcal/Mol)
 Warning -- explicit consideration of  19 degrees of freedom as
           vibrations may cause significant error
 Vibrational temperatures:     69.26   147.67   157.53   251.75   326.25
          (Kelvin)            379.74   388.96   433.06   492.26   540.42
                              608.15   637.96   718.76   739.19   777.91
                              789.73   791.74   815.20   832.65   922.61
                              991.65  1014.26  1058.59  1071.22  1093.34
                             1105.02  1174.50  1208.19  1245.95  1285.82
                             1299.15  1371.41  1377.88  1383.54  1445.10
                             1499.24  1517.15  1561.82  1580.91  1657.62
                             1663.87  1686.43  1702.79  1785.80  1804.39
                             1868.21  1924.08  1963.13  2010.72  2017.45
                             2078.22  2117.16  2183.19  2189.10  2238.27
                             2312.89  2357.61  2397.04  2411.70  4589.29
                             4615.84  4624.96  4632.52  4641.46  4651.49
                             4653.51  4664.56  5454.15

 Zero-point correction=                           0.186847 (Hartree/Particle)
 Thermal correction to Energy=                    0.198572
 Thermal correction to Enthalpy=                  0.199516
 Thermal correction to Gibbs Free Energy=         0.148643
 Sum of electronic and zero-point Energies=          -1028.507906
 Sum of electronic and thermal Energies=             -1028.496180
 Sum of electronic and thermal Enthalpies=           -1028.495236
 Sum of electronic and thermal Free Energies=        -1028.546110

                     E (Thermal)             CV                S
                      KCal/Mol        Cal/Mol-Kelvin    Cal/Mol-Kelvin
 Total                  124.606             48.264            107.072
 Electronic               0.000              0.000              0.000
 Translational            0.889              2.981             42.162
 Rotational               0.889              2.981             32.539
 Vibrational            122.828             42.303             32.371
 Vibration     1          0.595              1.978              4.893
 Vibration     2          0.605              1.947              3.404
 Vibration     3          0.606              1.942              3.278
 Vibration     4          0.627              1.873              2.381
 Vibration     5          0.650              1.800              1.904
 Vibration     6          0.670              1.739              1.636
 Vibration     7          0.674              1.728              1.594
 Vibration     8          0.693              1.672              1.411
 Vibration     9          0.721              1.591              1.202
 Vibration    10          0.746              1.522              1.057
 Vibration    11          0.785              1.421              0.883
 Vibration    12          0.803              1.375              0.816
 Vibration    13          0.855              1.251              0.659
 Vibration    14          0.869              1.220              0.625
 Vibration    15          0.896              1.160              0.564
 Vibration    16          0.904              1.142              0.546
 Vibration    17          0.906              1.139              0.544
 Vibration    18          0.923              1.104              0.511
 Vibration    19          0.935              1.077              0.488

 Optimization completed.
    -- Stationary point found.
 Normal termination of Gaussian 16 at Mon Jul 13 19:49:09 2020.
