 Gaussian 16, Revision C.01,
 Gaussian 16:  ES64L-G16RevC.01  3-Jul-2019

 ----------------------------------------------------------------------
 #p opt=addgic freq td wb97xd/cc-pvdz nosymm int=ultrafine scrf=(solven
 t=CarbonTetraChloride)
 ----------------------------------------------------------------------

 ------------------------------------------------
 NM 2D-scan of HBT TD-WB97XD pVDZ in CTC Relaxed.
 ------------------------------------------------
 Symbolic Z-matrix:
 Charge =  0 Multiplicity = 1

 SCF Done:  E(RwB97XD) =  -1028.77651355     A.U. after   16 cycles
 Total Energy, E(TD-HF/TD-DFT) =  -1028.66864464
 SCF Done:  E(RwB97XD) =  -1028.79768521     A.U. after   14 cycles
 Total Energy, E(TD-HF/TD-DFT) =  -1028.69517459
 SCF Done:  E(RwB97XD) =  -1028.80220262     A.U. after   13 cycles
 Total Energy, E(TD-HF/TD-DFT) =  -1028.69852221
 SCF Done:  E(RwB97XD) =  -1028.80266410     A.U. after   12 cycles
 Total Energy, E(TD-HF/TD-DFT) =  -1028.69890528
 SCF Done:  E(RwB97XD) =  -1028.80267802     A.U. after    9 cycles
 Total Energy, E(TD-HF/TD-DFT) =  -1028.69891073
 Optimization completed.
    -- Stationary point found.
 Normal termination of Gaussian 16 at Tue Jul 14 15:13:22 2020.

 ----------------------------------------------------------------------
 #P Geom=AllCheck Guess=TCheck SCRF=Check GenChk RwB97XD TD(FC,Read)/CC
 -pVDZ Freq
 ----------------------------------------------------------------------

 Structure from the checkpoint file:  "config_9_18.chk"
 ------------------------------------------------
 NM 2D-scan of HBT TD-WB97XD pVDZ in CTC Relaxed.
 ------------------------------------------------
 Charge =  0 Multiplicity = 1

                          Input orientation:
 ---------------------------------------------------------------------
 Center     Atomic      Atomic             Coordinates (Angstroms)
 Number     Number       Type             X           Y           Z
 ---------------------------------------------------------------------
      1          6           0        1.541053   -3.287896   -0.000022
      2          6           0        0.999551   -2.007155   -0.000016
      3          6           0        1.808290   -0.848277   -0.000016
      4          6           0        3.204880   -0.988327   -0.000024
      5          6           0        3.741125   -2.272922   -0.000029
      6          6           0        2.927254   -3.415048   -0.000028
      7          1           0        0.892477   -4.164551   -0.000021
      8          1           0        3.848405   -0.108101   -0.000024
      9          1           0        4.825910   -2.390476   -0.000035
     10          1           0        3.380178   -4.406977   -0.000032
     11          7           0        1.058368    0.303301   -0.000011
     12         16           0       -0.697602   -1.584803   -0.000008
     13          6           0       -1.310135    1.119188    0.000021
     14          6           0       -2.656193    0.761479    0.000028
     15          6           0       -0.938110    2.547856    0.000036
     16          6           0       -3.677680    1.738250    0.000032
     17          1           0       -2.946523   -0.291605    0.000026
     18          6           0       -2.009336    3.492040    0.000032
     19          6           0       -3.352815    3.093468    0.000030
     20          1           0       -4.720045    1.416748    0.000034
     21          1           0       -1.731944    4.547667    0.000038
     22          1           0       -4.144091    3.844592    0.000029
     23          6           0       -0.293106    0.113856    0.000001
     24          8           0        0.281556    2.884623    0.000048
     25          1           0        1.344968    1.297848    0.000012
 ---------------------------------------------------------------------

 SCF Done:  E(RwB97XD) =  -1028.80267802     A.U. after    1 cycles

 Excitation energies and oscillator strengths:

 Excited state symmetry could not be determined.
 Excited State   1:      Singlet-?Sym    2.8237 eV  439.09 nm  f=0.4432  <S**2>=0.000
      59 -> 60         0.69741
 This state for optimization and/or second-order correction.
 Total Energy, E(TD-HF/TD-DFT) =  -1028.69891074
 Copying the excited state density for this state as the 1-particle RhoCI density.

 Excited state symmetry could not be determined.
 Excited State   2:      Singlet-?Sym    3.5245 eV  351.78 nm  f=0.0000  <S**2>=0.000
      58 -> 60         0.68350
      58 -> 62         0.11675
      58 -> 64         0.11129

 Excited state symmetry could not be determined.
 Excited State   3:      Singlet-?Sym    4.2660 eV  290.63 nm  f=0.3573  <S**2>=0.000
      57 -> 60         0.68392

 Alpha  occ. eigenvalues --  -89.10254 -19.20702 -14.53199 -10.42078 -10.37864
 Alpha  occ. eigenvalues --  -10.36204 -10.35594 -10.33381 -10.33199 -10.32670
 Alpha  occ. eigenvalues --  -10.32458 -10.31448 -10.30834 -10.30791 -10.29187
 Alpha  occ. eigenvalues --  -10.28352  -8.12316  -6.07184  -6.06812  -6.06336
 Alpha  occ. eigenvalues --   -1.12828  -1.08742  -0.98511  -0.95703  -0.93308
 Alpha  occ. eigenvalues --   -0.89086  -0.86894  -0.83715  -0.81191  -0.75877
 Alpha  occ. eigenvalues --   -0.73462  -0.72273  -0.68850  -0.67637  -0.65233
 Alpha  occ. eigenvalues --   -0.61062  -0.59706  -0.56653  -0.56004  -0.55820
 Alpha  occ. eigenvalues --   -0.55072  -0.53932  -0.53063  -0.50332  -0.48694
 Alpha  occ. eigenvalues --   -0.48686  -0.48585  -0.47025  -0.45552  -0.44909
 Alpha  occ. eigenvalues --   -0.44071  -0.42899  -0.42285  -0.39962  -0.36853
 Alpha  occ. eigenvalues --   -0.33719  -0.31418  -0.31300  -0.25755
 Alpha virt. eigenvalues --   -0.02112   0.03676   0.05509   0.06713   0.09412
 Alpha virt. eigenvalues --    0.10803   0.13898   0.14774   0.16222   0.17273
 Alpha virt. eigenvalues --    0.18006   0.19896   0.20589   0.21200   0.22466

 Mulliken charges:
               1
     1  C    0.021316
     2  C   -0.233120
     3  C    0.247922
     4  C   -0.011042
     5  C    0.010112
     6  C    0.003498
     7  H    0.025454
     8  H    0.031001
     9  H    0.027935
    10  H    0.027171
    11  N   -0.142157
    12  S    0.199986
    13  C   -0.071222
    14  C   -0.039781
    15  C    0.103774
    16  C   -0.032898
    17  H    0.014222
    18  C   -0.035199
    19  C    0.033367
    20  H    0.001352
    21  H    0.001262
    22  H    0.014576
    23  C    0.061659
    24  O   -0.401710
    25  H    0.142524
 Sum of Mulliken charges =  -0.00000

 Dipole moment (field-independent basis, Debye):
    X=              2.0626    Y=             -6.0107    Z=             -0.0001  Tot=              6.3548
 Quadrupole moment (field-independent basis, Debye-Ang):
   XX=            -81.5585   YY=            -97.2670   ZZ=           -104.1726
   XY=             -6.2408   XZ=             -0.0001   YZ=             -0.0001

  Exact polarizability:     346.611    -120.763     296.736      -0.002       0.002      63.191
 Approx polarizability:     272.931     -36.437     264.626      -0.001       0.001      81.951

 ******    1 imaginary frequencies (negative Signs) ******

                      1                      2                      3
                      A                      A                      A
 Frequencies --    -15.7286                44.1477               116.7207
 Red. masses --      5.1639                 5.8557                 5.8116
 Frc consts  --      0.0008                 0.0067                 0.0466
 IR Inten    --      1.4635                 0.9764                 8.9654

                      4                      5                      6
                      A                      A                      A
 Frequencies --    117.2089               183.5076               224.6260
 Red. masses --      5.8824                 5.7270                 5.5394
 Frc consts  --      0.0476                 0.1136                 0.1647
 IR Inten    --      1.3992                 0.0424                 0.2342

                      7                      8                      9
                      A                      A                      A
 Frequencies --    264.4994               273.5012               292.8686
 Red. masses --      8.5724                 4.5847                 7.3387
 Frc consts  --      0.3533                 0.2021                 0.3709
 IR Inten    --      2.8743                 0.3942                 1.8358

                     10                     11                     12
                      A                      A                      A
 Frequencies --    351.3696               392.6398               432.5309
 Red. masses --      4.7252                 7.8772                 3.5858
 Frc consts  --      0.3437                 0.7155                 0.3953
 IR Inten    --      1.1413                 7.1078                 2.1730

                     13                     14                     15
                      A                      A                      A
 Frequencies --    452.6029               506.7737               512.0094
 Red. masses --      4.2096                 8.6385                 3.2202
 Frc consts  --      0.5081                 1.3071                 0.4974
 IR Inten    --      4.1111                11.0319                 0.2910

                     16                     17                     18
                      A                      A                      A
 Frequencies --    543.3514               545.8151               559.5439
 Red. masses --      8.4429                 6.4918                 3.8520
 Frc consts  --      1.4686                 1.1395                 0.7106
 IR Inten    --      6.6953                39.5499                 0.5431

                     19                     20                     21
                      A                      A                      A
 Frequencies --    568.3422               632.8493               694.8371
 Red. masses --      7.2036                 6.1841                 1.4997
 Frc consts  --      1.3710                 1.4592                 0.4266
 IR Inten    --      9.9635                34.9236                44.0262

                     22                     23                     24
                      A                      A                      A
 Frequencies --    720.5962               730.9696               744.4633
 Red. masses --      6.0196                 7.8461                 2.6380
 Frc consts  --      1.8416                 2.4700                 0.8614
 IR Inten    --      2.9329                 4.2519                12.0002

                     25                     26                     27
                      A                      A                      A
 Frequencies --    757.1151               766.7402               819.1042
 Red. masses --      1.6485                 1.6325                 1.1030
 Frc consts  --      0.5568                 0.5655                 0.4360
 IR Inten    --      2.1437                88.1316                64.3060

                     28                     29                     30
                      A                      A                      A
 Frequencies --    825.8860               832.7016               868.1806
 Red. masses --      6.3767                 1.9477                 4.6093
 Frc consts  --      2.5626                 0.7957                 2.0469
 IR Inten    --     18.3003                11.5957                 2.8405

                     31                     32                     33
                      A                      A                      A
 Frequencies --    871.1051               899.7886               951.8966
 Red. masses --      1.3736                 1.4450                 1.3604
 Frc consts  --      0.6141                 0.6893                 0.7263
 IR Inten    --      0.3668                 9.0624                 0.5165

                     34                     35                     36
                      A                      A                      A
 Frequencies --    958.9252               961.4911              1004.2113
 Red. masses --      1.3520                 5.3301                 1.2982
 Frc consts  --      0.7325                 2.9032                 0.7714
 IR Inten    --      1.4673                 0.1403                 0.0121

                     37                     38                     39
                      A                      A                      A
 Frequencies --   1052.7116              1056.5709              1093.6419
 Red. masses --      2.1076                 2.0612                 3.9099
 Frc consts  --      1.3761                 1.3557                 2.7553
 IR Inten    --      2.6096                 8.1945                 1.2617

                     40                     41                     42
                      A                      A                      A
 Frequencies --   1117.6821              1155.9433              1164.5586
 Red. masses --      1.6074                 1.3517                 1.2548
 Frc consts  --      1.1831                 1.0642                 1.0026
 IR Inten    --     19.9176                16.2125                60.5621

                     43                     44                     45
                      A                      A                      A
 Frequencies --   1177.4879              1211.3291              1256.9947
 Red. masses --      1.1473                 1.7351                 2.1322
 Frc consts  --      0.9372                 1.5000                 1.9849
 IR Inten    --     24.9700                58.5010                35.2617

                     46                     47                     48
                      A                      A                      A
 Frequencies --   1267.0404              1299.1227              1340.5556
 Red. masses --      2.0740                 1.8521                 4.8745
 Frc consts  --      1.9617                 1.8417                 5.1612
 IR Inten    --     49.4172                 3.2695                 6.1781

                     49                     50                     51
                      A                      A                      A
 Frequencies --   1362.4711              1394.3678              1404.5689
 Red. masses --      5.0656                 2.9379                 2.5205
 Frc consts  --      5.5404                 3.3654                 2.9297
 IR Inten    --    176.6189                 0.3910                 4.5061

                     52                     53                     54
                      A                      A                      A
 Frequencies --   1437.3209              1479.4341              1501.9880
 Red. masses --      2.6074                 3.0737                 3.0901
 Frc consts  --      3.1737                 3.9637                 4.1073
 IR Inten    --    239.7100                 1.6187                39.3639

                     55                     56                     57
                      A                      A                      A
 Frequencies --   1524.9568              1553.3405              1579.5794
 Red. masses --      3.8203                 4.7585                 4.6276
 Frc consts  --      5.2344                 6.7648                 6.8029
 IR Inten    --     34.0594               216.6639               100.4936

                     58                     59                     60
                      A                      A                      A
 Frequencies --   1615.8395              1647.1858              1666.6203
 Red. masses --      6.1990                 6.5094                 6.7837
 Frc consts  --      9.5361                10.4059                11.1017
 IR Inten    --    172.7625                49.2992               111.9850

                     61                     62                     63
                      A                      A                      A
 Frequencies --   3199.0309              3210.5890              3211.0748
 Red. masses --      1.0878                 1.0862                 1.0867
 Frc consts  --      6.5588                 6.5967                 6.6018
 IR Inten    --     25.3153                 3.4942                 6.3565

                     64                     65                     66
                      A                      A                      A
 Frequencies --   3220.5026              3223.1955              3229.2333
 Red. masses --      1.0901                 1.0923                 1.0959
 Frc consts  --      6.6615                 6.6862                 6.7329
 IR Inten    --      2.6057                14.8345                 6.7440

                     67                     68                     69
                      A                      A                      A
 Frequencies --   3235.5169              3237.2992              3335.3425
 Red. masses --      1.0988                 1.0997                 1.0835
 Frc consts  --      6.7774                 6.7905                 7.1017
 IR Inten    --     29.8561                12.1574               548.0197

 - Thermochemistry -
 -------------------
 Temperature   298.150 Kelvin.  Pressure   1.00000 Atm.
 Atom     1 has atomic number  6 and mass  12.00000

 Molecular mass:   227.04049 amu.
 Principal axes and moments of inertia in atomic units:
                           1         2         3
     Eigenvalues --  1278.702996462.336067741.03905
           X           -0.70171   0.71246   0.00000
           Y            0.71246   0.70171  -0.00001
           Z            0.00001   0.00000   1.00000
 This molecule is an asymmetric top.
 Rotational symmetry number  1.
 Warning -- assumption of classical behavior for rotation
           may cause significant error
 Rotational temperatures (Kelvin)      0.06774     0.01340     0.01119
 Rotational constants (GHZ):           1.41138     0.27927     0.23314
    1 imaginary frequencies ignored.
 Zero-point vibrational energy     489787.1 (Joules/Mol)
                                  117.06194 (Kcal/Mol)
 Warning -- explicit consideration of  18 degrees of freedom as
           vibrations may cause significant error
 Vibrational temperatures:     63.52   167.94   168.64   264.03   323.19
          (Kelvin)            380.56   393.51   421.37   505.54   564.92
                              622.32   651.19   729.13   736.67   781.76
                              785.31   805.06   817.72   910.53   999.72
                             1036.78  1051.70  1071.12  1089.32  1103.17
                             1178.51  1188.27  1198.07  1249.12  1253.33
                             1294.60  1369.57  1379.68  1383.37  1444.84
                             1514.62  1520.17  1573.51  1608.10  1663.14
                             1675.54  1694.14  1742.83  1808.53  1822.99
                             1869.15  1928.76  1960.29  2006.18  2020.86
                             2067.98  2128.58  2161.03  2194.07  2234.91
                             2272.66  2324.83  2369.93  2397.89  4602.69
                             4619.32  4620.02  4633.58  4637.46  4646.15
                             4655.19  4657.75  4798.81

 Zero-point correction=                           0.186550 (Hartree/Particle)
 Thermal correction to Energy=                    0.198079
 Thermal correction to Enthalpy=                  0.199023
 Thermal correction to Gibbs Free Energy=         0.148523
 Sum of electronic and zero-point Energies=          -1028.512361
 Sum of electronic and thermal Energies=             -1028.500832
 Sum of electronic and thermal Enthalpies=           -1028.499888
 Sum of electronic and thermal Free Energies=        -1028.550388

                     E (Thermal)             CV                S
                      KCal/Mol        Cal/Mol-Kelvin    Cal/Mol-Kelvin
 Total                  124.296             47.616            106.287
 Electronic               0.000              0.000              0.000
 Translational            0.889              2.981             42.162
 Rotational               0.889              2.981             32.525
 Vibrational            122.519             41.654             31.599
 Vibration     1          0.595              1.980              5.064
 Vibration     2          0.608              1.935              3.154
 Vibration     3          0.608              1.935              3.146
 Vibration     4          0.631              1.862              2.292
 Vibration     5          0.649              1.804              1.921
 Vibration     6          0.671              1.738              1.632
 Vibration     7          0.676              1.722              1.574
 Vibration     8          0.688              1.687              1.457
 Vibration     9          0.728              1.572              1.160
 Vibration    10          0.760              1.486              0.990
 Vibration    11          0.793              1.399              0.850
 Vibration    12          0.811              1.355              0.788
 Vibration    13          0.862              1.235              0.641
 Vibration    14          0.867              1.223              0.629
 Vibration    15          0.898              1.154              0.558
 Vibration    16          0.901              1.149              0.553
 Vibration    17          0.915              1.119              0.525
 Vibration    18          0.924              1.100              0.507

 Optimization completed.
    -- Stationary point found.
 Normal termination of Gaussian 16 at Tue Jul 14 15:32:13 2020.
