 Gaussian 16, Revision C.01,
 Gaussian 16:  ES64L-G16RevC.01  3-Jul-2019

 ----------------------------------------------------------------------
 #p opt=addgic freq td wb97xd/cc-pvdz nosymm int=ultrafine scrf=(solven
 t=CarbonTetraChloride)
 ----------------------------------------------------------------------

 ------------------------------------------------
 NM 2D-scan of HBT TD-WB97XD pVDZ in CTC Relaxed.
 ------------------------------------------------
 Symbolic Z-matrix:
 Charge =  0 Multiplicity = 1

 SCF Done:  E(RwB97XD) =  -1028.61877780     A.U. after   15 cycles
 Total Energy, E(TD-HF/TD-DFT) =  -1028.48678122
 SCF Done:  E(RwB97XD) =  -1028.78425672     A.U. after   13 cycles
 Total Energy, E(TD-HF/TD-DFT) =  -1028.65410335
 SCF Done:  E(RwB97XD) =  -1028.80267817     A.U. after   15 cycles
 Total Energy, E(TD-HF/TD-DFT) =  -1028.67714357
 SCF Done:  E(RwB97XD) =  -1028.81807898     A.U. after   13 cycles
 Total Energy, E(TD-HF/TD-DFT) =  -1028.69065953
 SCF Done:  E(RwB97XD) =  -1028.81879146     A.U. after   11 cycles
 Total Energy, E(TD-HF/TD-DFT) =  -1028.69080530
 SCF Done:  E(RwB97XD) =  -1028.81895602     A.U. after    9 cycles
 Total Energy, E(TD-HF/TD-DFT) =  -1028.69081388
 Optimization completed.
    -- Stationary point found.
 Normal termination of Gaussian 16 at Mon Jul 13 20:19:42 2020.

 ----------------------------------------------------------------------
 #P Geom=AllCheck Guess=TCheck SCRF=Check GenChk RwB97XD TD(FC,Read)/CC
 -pVDZ Freq
 ----------------------------------------------------------------------

 Structure from the checkpoint file:  "config_1_13.chk"
 ------------------------------------------------
 NM 2D-scan of HBT TD-WB97XD pVDZ in CTC Relaxed.
 ------------------------------------------------
 Charge =  0 Multiplicity = 1

                          Input orientation:
 ---------------------------------------------------------------------
 Center     Atomic      Atomic             Coordinates (Angstroms)
 Number     Number       Type             X           Y           Z
 ---------------------------------------------------------------------
      1          6           0        1.596978   -3.306684   -0.000029
      2          6           0        0.962408   -2.065314   -0.000015
      3          6           0        1.720491   -0.838780   -0.000004
      4          6           0        3.141206   -0.912119   -0.000007
      5          6           0        3.750224   -2.146750   -0.000020
      6          6           0        2.990907   -3.340422   -0.000032
      7          1           0        1.018855   -4.231546   -0.000037
      8          1           0        3.715096    0.015028    0.000002
      9          1           0        4.839856   -2.210383   -0.000023
     10          1           0        3.503776   -4.303385   -0.000043
     11          7           0        1.020070    0.298605    0.000006
     12         16           0       -0.744619   -1.699114   -0.000008
     13          6           0       -1.301210    1.070076    0.000011
     14          6           0       -2.705488    0.790881    0.000012
     15          6           0       -0.927952    2.496664    0.000026
     16          6           0       -3.641668    1.805018    0.000030
     17          1           0       -3.035893   -0.249186   -0.000000
     18          6           0       -1.903534    3.495184    0.000045
     19          6           0       -3.251231    3.165335    0.000049
     20          1           0       -4.703276    1.553253    0.000031
     21          1           0       -1.560498    4.530121    0.000056
     22          1           0       -4.006712    3.951613    0.000064
     23          6           0       -0.321601    0.061224    0.000002
     24          8           0        0.333034    2.906309    0.000015
     25          1           0        0.924197    2.115900   -0.000013
 ---------------------------------------------------------------------

 SCF Done:  E(RwB97XD) =  -1028.81895602     A.U. after    1 cycles

 Excitation energies and oscillator strengths:

 Excited state symmetry could not be determined.
 Excited State   1:      Singlet-?Sym    3.4869 eV  355.57 nm  f=0.7509  <S**2>=0.000
      59 -> 60         0.68936
 This state for optimization and/or second-order correction.
 Total Energy, E(TD-HF/TD-DFT) =  -1028.69081388
 Copying the excited state density for this state as the 1-particle RhoCI density.

 Excited state symmetry could not be determined.
 Excited State   2:      Singlet-?Sym    4.3846 eV  282.77 nm  f=0.1173  <S**2>=0.000
      57 -> 60         0.48606
      58 -> 60         0.44296
      59 -> 62        -0.16054

 Excited state symmetry could not be determined.
 Excited State   3:      Singlet-?Sym    4.5352 eV  273.38 nm  f=0.0976  <S**2>=0.000
      57 -> 60         0.41293
      57 -> 63        -0.11337
      58 -> 60        -0.46918
      59 -> 61         0.21473

 Alpha  occ. eigenvalues --  -89.08769 -19.29317 -14.46981 -10.39647 -10.38424
 Alpha  occ. eigenvalues --  -10.34798 -10.34644 -10.32944 -10.32422 -10.32083
 Alpha  occ. eigenvalues --  -10.32034 -10.31296 -10.31218 -10.31110 -10.30645
 Alpha  occ. eigenvalues --  -10.30521  -8.10694  -6.05541  -6.05209  -6.04755
 Alpha  occ. eigenvalues --   -1.17637  -1.07918  -0.96766  -0.95599  -0.91611
 Alpha  occ. eigenvalues --   -0.88759  -0.85189  -0.84404  -0.82144  -0.76014
 Alpha  occ. eigenvalues --   -0.71256  -0.70121  -0.69117  -0.68256  -0.63485
 Alpha  occ. eigenvalues --   -0.60124  -0.59014  -0.58471  -0.56099  -0.54466
 Alpha  occ. eigenvalues --   -0.53493  -0.53277  -0.52751  -0.50607  -0.50580
 Alpha  occ. eigenvalues --   -0.49094  -0.47973  -0.45882  -0.45505  -0.44776
 Alpha  occ. eigenvalues --   -0.43906  -0.42996  -0.41999  -0.39856  -0.37673
 Alpha  occ. eigenvalues --   -0.36415  -0.31936  -0.31690  -0.27988
 Alpha virt. eigenvalues --   -0.01902   0.05306   0.06845   0.07074   0.07471
 Alpha virt. eigenvalues --    0.11317   0.13799   0.15173   0.16332   0.18017
 Alpha virt. eigenvalues --    0.18445   0.20611   0.21587   0.22292   0.22836

 Mulliken charges:
               1
     1  C    0.013390
     2  C   -0.212639
     3  C    0.205947
     4  C   -0.016829
     5  C    0.007139
     6  C   -0.008552
     7  H    0.017050
     8  H    0.014146
     9  H    0.017347
    10  H    0.019619
    11  N   -0.345809
    12  S    0.145045
    13  C   -0.069091
    14  C   -0.022477
    15  C    0.072484
    16  C   -0.006930
    17  H    0.019587
    18  C    0.016718
    19  C    0.020693
    20  H    0.012431
    21  H    0.020771
    22  H    0.023441
    23  C    0.075079
    24  O   -0.182254
    25  H    0.163692
 Sum of Mulliken charges =  -0.00000

 Dipole moment (field-independent basis, Debye):
    X=             -0.6776    Y=             -1.5845    Z=             -0.0000  Tot=              1.7233
 Quadrupole moment (field-independent basis, Debye-Ang):
   XX=            -83.1049   YY=            -89.0354   ZZ=           -104.4543
   XY=             -6.8057   XZ=             -0.0002   YZ=              0.0002

  Exact polarizability:     405.958    -199.704     399.130      -0.003       0.003      63.449
 Approx polarizability:     280.653     -37.545     263.206      -0.001       0.002      82.406

                      1                      2                      3
                      A                      A                      A
 Frequencies --     36.3426                73.8601               106.6004
 Red. masses --      5.9956                 5.1380                 5.6648
 Frc consts  --      0.0047                 0.0165                 0.0379
 IR Inten    --      1.1638                 0.0020                 1.8930

                      4                      5                      6
                      A                      A                      A
 Frequencies --    108.1594               183.0449               225.1141
 Red. masses --      5.0407                 6.8874                 5.4680
 Frc consts  --      0.0347                 0.1360                 0.1633
 IR Inten    --      0.3512                 1.1772                 0.0134

                      7                      8                      9
                      A                      A                      A
 Frequencies --    258.6855               270.0666               284.4255
 Red. masses --      8.1335                 4.8280                 6.5592
 Frc consts  --      0.3207                 0.2075                 0.3126
 IR Inten    --     14.2455                 0.0683                15.3016

                     10                     11                     12
                      A                      A                      A
 Frequencies --    395.4143               397.9773               439.6104
 Red. masses --      4.5268                 8.7885                 3.3049
 Frc consts  --      0.4170                 0.8201                 0.3763
 IR Inten    --      0.0736                13.1607                 4.0340

                     13                     14                     15
                      A                      A                      A
 Frequencies --    493.4690               494.0221               504.2451
 Red. masses --      6.1204                 4.3819                 6.3724
 Frc consts  --      0.8781                 0.6301                 0.9546
 IR Inten    --     15.4156                 0.1546                10.6592

                     16                     17                     18
                      A                      A                      A
 Frequencies --    510.0080               524.0833               548.9321
 Red. masses --      3.1493                 8.1760                 3.9894
 Frc consts  --      0.4826                 1.3231                 0.7083
 IR Inten    --      0.3152                21.1466                 0.3226

                     19                     20                     21
                      A                      A                      A
 Frequencies --    577.2306               643.5992               666.0639
 Red. masses --      7.7260                 6.5512                 9.9657
 Frc consts  --      1.5167                 1.5988                 2.6049
 IR Inten    --     64.4903                10.7900                57.5283

                     22                     23                     24
                      A                      A                      A
 Frequencies --    709.1683               721.3828               734.8868
 Red. masses --      6.6282                 1.6736                 1.8205
 Frc consts  --      1.9640                 0.5131                 0.5793
 IR Inten    --     10.7880                66.6452                46.8409

                     25                     26                     27
                      A                      A                      A
 Frequencies --    741.2854               772.7478               803.7047
 Red. masses --      1.8687                 2.1428                 1.3263
 Frc consts  --      0.6050                 0.7539                 0.5048
 IR Inten    --     12.3846                47.5883                55.9461

                     28                     29                     30
                      A                      A                      A
 Frequencies --    808.3424               827.1915               860.3680
 Red. masses --      6.5741                 1.3532                 1.4323
 Frc consts  --      2.5309                 0.5455                 0.6247
 IR Inten    --     22.4434                 6.7626                 1.8080

                     31                     32                     33
                      A                      A                      A
 Frequencies --    881.7887               925.5036               947.3595
 Red. masses --      6.3494                 1.3438                 7.2311
 Frc consts  --      2.9088                 0.6782                 3.8237
 IR Inten    --     63.2586                 2.1794                 7.6598

                     34                     35                     36
                      A                      A                      A
 Frequencies --    954.3198               970.6293               999.7007
 Red. masses --      1.3425                 1.3400                 1.3037
 Frc consts  --      0.7203                 0.7438                 0.7676
 IR Inten    --      2.0269                 0.0430                 0.0002

                     37                     38                     39
                      A                      A                      A
 Frequencies --   1037.7291              1044.6436              1077.3208
 Red. masses --      2.1012                 2.2136                 5.0493
 Frc consts  --      1.3332                 1.4233                 3.4528
 IR Inten    --      1.0232                 4.8042                33.6340

                     40                     41                     42
                      A                      A                      A
 Frequencies --   1137.7530              1149.7227              1176.8914
 Red. masses --      1.4969                 1.3130                 1.2014
 Frc consts  --      1.1417                 1.0226                 0.9805
 IR Inten    --     40.7782                15.3222                35.5031

                     43                     44                     45
                      A                      A                      A
 Frequencies --   1181.3322              1208.8834              1237.8293
 Red. masses --      1.2101                 5.4093                 1.5108
 Frc consts  --      0.9949                 4.6576                 1.3639
 IR Inten    --      7.7958                55.8583               161.6781

                     46                     47                     48
                      A                      A                      A
 Frequencies --   1275.3401              1300.8800              1357.3078
 Red. masses --      1.6552                 2.7854                 2.9674
 Frc consts  --      1.5862                 2.7772                 3.2209
 IR Inten    --      1.7873               230.6293                89.7336

                     49                     50                     51
                      A                      A                      A
 Frequencies --   1370.0291              1399.8658              1433.0009
 Red. masses --      5.4372                 1.9131                 2.4761
 Frc consts  --      6.0129                 2.2088                 2.9958
 IR Inten    --     22.1561                19.2422               263.0253

                     52                     53                     54
                      A                      A                      A
 Frequencies --   1471.7840              1482.5265              1510.5907
 Red. masses --      3.3922                 1.9328                 4.6974
 Frc consts  --      4.3293                 2.5028                 6.3153
 IR Inten    --     63.5833               159.7331                22.6394

                     55                     56                     57
                      A                      A                      A
 Frequencies --   1540.6121              1567.4580              1580.8284
 Red. masses --      4.7909                 5.4796                 3.4995
 Frc consts  --      6.6997                 7.9321                 5.1527
 IR Inten    --     45.7431               280.6887               306.1040

                     58                     59                     60
                      A                      A                      A
 Frequencies --   1597.2064              1634.1266              1648.2036
 Red. masses --      5.1440                 5.3321                 5.7084
 Frc consts  --      7.7317                 8.3891                 9.1367
 IR Inten    --    105.0895               317.4539               252.6072

                     61                     62                     63
                      A                      A                      A
 Frequencies --   3208.6626              3209.2392              3219.4554
 Red. masses --      1.0862                 1.0861                 1.0898
 Frc consts  --      6.5885                 6.5903                 6.6553
 IR Inten    --     10.4885                 3.5856                 3.8869

                     64                     65                     66
                      A                      A                      A
 Frequencies --   3221.4772              3229.3927              3231.7679
 Red. masses --      1.0894                 1.0943                 1.0956
 Frc consts  --      6.6609                 6.7241                 6.7417
 IR Inten    --      0.8034                16.4054                14.0678

                     67                     68                     69
                      A                      A                      A
 Frequencies --   3237.6407              3241.2683              3354.1574
 Red. masses --      1.0987                 1.0987                 1.0695
 Frc consts  --      6.7855                 6.8007                 7.0890
 IR Inten    --     39.5285                26.3993                 4.5139

 - Thermochemistry -
 -------------------
 Temperature   298.150 Kelvin.  Pressure   1.00000 Atm.
 Atom     1 has atomic number  6 and mass  12.00000

 Molecular mass:   227.04049 amu.
 Principal axes and moments of inertia in atomic units:
                           1         2         3
     Eigenvalues --  1339.653136383.766597723.41973
           X           -0.69480   0.71920   0.00000
           Y            0.71920   0.69480  -0.00001
           Z            0.00001   0.00000   1.00000
 This molecule is an asymmetric top.
 Rotational symmetry number  1.
 Warning -- assumption of classical behavior for rotation
           may cause significant error
 Rotational temperatures (Kelvin)      0.06465     0.01357     0.01121
 Rotational constants (GHZ):           1.34717     0.28271     0.23367
 Zero-point vibrational energy     490315.0 (Joules/Mol)
                                  117.18809 (Kcal/Mol)
 Warning -- explicit consideration of  19 degrees of freedom as
           vibrations may cause significant error
 Vibrational temperatures:     52.29   106.27   153.37   155.62   263.36
          (Kelvin)            323.89   372.19   388.57   409.22   568.91
                              572.60   632.50   709.99   710.79   725.50
                              733.79   754.04   789.79   830.51   926.00
                              958.32  1020.33  1037.91  1057.34  1066.54
                             1111.81  1156.35  1163.02  1190.14  1237.88
                             1268.70  1331.59  1363.04  1373.05  1396.52
                             1438.35  1493.06  1503.01  1550.02  1636.97
                             1654.19  1693.28  1699.67  1739.31  1780.96
                             1834.93  1871.68  1952.86  1971.17  2014.09
                             2061.77  2117.57  2133.02  2173.40  2216.60
                             2255.22  2274.46  2298.02  2351.14  2371.40
                             4616.55  4617.38  4632.08  4634.99  4646.38
                             4649.79  4658.24  4663.46  4825.88

 Zero-point correction=                           0.186751 (Hartree/Particle)
 Thermal correction to Energy=                    0.199133
 Thermal correction to Enthalpy=                  0.200077
 Thermal correction to Gibbs Free Energy=         0.147282
 Sum of electronic and zero-point Energies=          -1028.504063
 Sum of electronic and thermal Energies=             -1028.491681
 Sum of electronic and thermal Enthalpies=           -1028.490737
 Sum of electronic and thermal Free Energies=        -1028.543532

                     E (Thermal)             CV                S
                      KCal/Mol        Cal/Mol-Kelvin    Cal/Mol-Kelvin
 Total                  124.958             49.722            111.117
 Electronic               0.000              0.000              0.000
 Translational            0.889              2.981             42.162
 Rotational               0.889              2.981             32.557
 Vibrational            123.180             43.760             36.398
 Vibration     1          0.594              1.982              5.449
 Vibration     2          0.599              1.966              4.048
 Vibration     3          0.605              1.944              3.330
 Vibration     4          0.606              1.943              3.302
 Vibration     5          0.631              1.863              2.297
 Vibration     6          0.650              1.803              1.918
 Vibration     7          0.667              1.748              1.671
 Vibration     8          0.674              1.728              1.596
 Vibration     9          0.683              1.703              1.507
 Vibration    10          0.762              1.480              0.980
 Vibration    11          0.764              1.474              0.970
 Vibration    12          0.800              1.384              0.828
 Vibration    13          0.849              1.265              0.675
 Vibration    14          0.850              1.263              0.673
 Vibration    15          0.860              1.241              0.648
 Vibration    16          0.865              1.228              0.634
 Vibration    17          0.879              1.197              0.601
 Vibration    18          0.904              1.142              0.546
 Vibration    19          0.934              1.081              0.491

 Optimization completed.
    -- Stationary point found.
 Normal termination of Gaussian 16 at Mon Jul 13 20:37:05 2020.
