 Gaussian 16, Revision C.01,
 Gaussian 16:  ES64L-G16RevC.01  3-Jul-2019

 ----------------------------------------------------------------------
 #p opt=addgic freq td wb97xd/cc-pvdz nosymm int=ultrafine scrf=(solven
 t=CarbonTetraChloride)
 ----------------------------------------------------------------------

 ------------------------------------------------
 NM 2D-scan of HBT TD-WB97XD pVDZ in CTC Relaxed.
 ------------------------------------------------
 Symbolic Z-matrix:
 Charge =  0 Multiplicity = 1

 SCF Done:  E(RwB97XD) =  -1028.79345231     A.U. after   16 cycles
 Total Energy, E(TD-HF/TD-DFT) =  -1028.68053823
 SCF Done:  E(RwB97XD) =  -1028.79215107     A.U. after   14 cycles
 Total Energy, E(TD-HF/TD-DFT) =  -1028.68651538
 SCF Done:  E(RwB97XD) =  -1028.79603943     A.U. after   13 cycles
 Total Energy, E(TD-HF/TD-DFT) =  -1028.68808954
 SCF Done:  E(RwB97XD) =  -1028.79645683     A.U. after   12 cycles
 Total Energy, E(TD-HF/TD-DFT) =  -1028.68817534
 SCF Done:  E(RwB97XD) =  -1028.79637468     A.U. after   10 cycles
 Total Energy, E(TD-HF/TD-DFT) =  -1028.68818715
 Optimization completed.
    -- Stationary point found.
 Normal termination of Gaussian 16 at Tue Jul 14 17:28:51 2020.

 ----------------------------------------------------------------------
 #P Geom=AllCheck Guess=TCheck SCRF=Check GenChk RwB97XD TD(FC,Read)/CC
 -pVDZ Freq
 ----------------------------------------------------------------------

 Structure from the checkpoint file:  "config_7_20.chk"
 ------------------------------------------------
 NM 2D-scan of HBT TD-WB97XD pVDZ in CTC Relaxed.
 ------------------------------------------------
 Charge =  0 Multiplicity = 1

                          Input orientation:
 ---------------------------------------------------------------------
 Center     Atomic      Atomic             Coordinates (Angstroms)
 Number     Number       Type             X           Y           Z
 ---------------------------------------------------------------------
      1          6           0        1.500951   -3.278031   -0.000105
      2          6           0        0.985134   -1.984000   -0.000041
      3          6           0        1.807543   -0.815113    0.000034
      4          6           0        3.202245   -1.001882    0.000045
      5          6           0        3.712702   -2.296214   -0.000022
      6          6           0        2.882478   -3.430121   -0.000096
      7          1           0        0.833061   -4.140433   -0.000156
      8          1           0        3.868185   -0.138442    0.000104
      9          1           0        4.795490   -2.432535   -0.000014
     10          1           0        3.321376   -4.428510   -0.000143
     11          7           0        1.093966    0.372840    0.000093
     12         16           0       -0.698199   -1.561705   -0.000028
     13          6           0       -1.277944    1.111017    0.000058
     14          6           0       -2.626087    0.721327    0.000111
     15          6           0       -0.941576    2.545956   -0.000011
     16          6           0       -3.649043    1.674907    0.000086
     17          1           0       -2.896221   -0.336065    0.000177
     18          6           0       -2.011993    3.473633   -0.000059
     19          6           0       -3.340737    3.043150   -0.000002
     20          1           0       -4.688751    1.345304    0.000127
     21          1           0       -1.753371    4.533539   -0.000144
     22          1           0       -4.145920    3.778948   -0.000038
     23          6           0       -0.249399    0.138305    0.000048
     24          8           0        0.288062    2.916030   -0.000136
     25          1           0        1.200168    1.489348    0.000222
 ---------------------------------------------------------------------

 SCF Done:  E(RwB97XD) =  -1028.79637468     A.U. after    1 cycles

 Excitation energies and oscillator strengths:

 Excited state symmetry could not be determined.
 Excited State   1:      Singlet-?Sym    2.9439 eV  421.15 nm  f=0.4384  <S**2>=0.000
      59 -> 60         0.69646
 This state for optimization and/or second-order correction.
 Total Energy, E(TD-HF/TD-DFT) =  -1028.68818707
 Copying the excited state density for this state as the 1-particle RhoCI density.

 Excited state symmetry could not be determined.
 Excited State   2:      Singlet-?Sym    3.8434 eV  322.59 nm  f=0.0000  <S**2>=0.000
      57 -> 60         0.68448
      57 -> 62         0.11464
      57 -> 64         0.11592

 Excited state symmetry could not be determined.
 Excited State   3:      Singlet-?Sym    4.2502 eV  291.71 nm  f=0.2893  <S**2>=0.000
      58 -> 60         0.68311

 Alpha  occ. eigenvalues --  -89.09928 -19.21791 -14.52776 -10.41567 -10.37934
 Alpha  occ. eigenvalues --  -10.36086 -10.36065 -10.33149 -10.32891 -10.32386
 Alpha  occ. eigenvalues --  -10.32282 -10.31638 -10.31160 -10.30913 -10.29469
 Alpha  occ. eigenvalues --  -10.28775  -8.12009  -6.06867  -6.06510  -6.06029
 Alpha  occ. eigenvalues --   -1.12023  -1.08857  -0.98148  -0.95740  -0.93241
 Alpha  occ. eigenvalues --   -0.89036  -0.86694  -0.83485  -0.81716  -0.75769
 Alpha  occ. eigenvalues --   -0.72537  -0.71998  -0.68487  -0.67433  -0.64767
 Alpha  occ. eigenvalues --   -0.61023  -0.59585  -0.56953  -0.55486  -0.55217
 Alpha  occ. eigenvalues --   -0.54910  -0.54044  -0.53018  -0.50190  -0.49270
 Alpha  occ. eigenvalues --   -0.48814  -0.48313  -0.46840  -0.45391  -0.45040
 Alpha  occ. eigenvalues --   -0.44078  -0.43023  -0.42141  -0.40252  -0.36738
 Alpha  occ. eigenvalues --   -0.33449  -0.32472  -0.31292  -0.26391
 Alpha virt. eigenvalues --   -0.02030   0.03909   0.05531   0.06771   0.08964
 Alpha virt. eigenvalues --    0.10635   0.14036   0.14925   0.16489   0.17625
 Alpha virt. eigenvalues --    0.18166   0.19829   0.20383   0.21273   0.22092

 Mulliken charges:
               1
     1  C    0.022706
     2  C   -0.218634
     3  C    0.256769
     4  C   -0.015052
     5  C    0.007535
     6  C    0.002767
     7  H    0.024760
     8  H    0.029557
     9  H    0.026090
    10  H    0.026098
    11  N   -0.218585
    12  S    0.195151
    13  C   -0.082375
    14  C   -0.038127
    15  C    0.117246
    16  C   -0.027371
    17  H    0.020396
    18  C   -0.019086
    19  C    0.031390
    20  H    0.003102
    21  H    0.005225
    22  H    0.016481
    23  C    0.059599
    24  O   -0.424155
    25  H    0.198512
 Sum of Mulliken charges =  -0.00000

 Dipole moment (field-independent basis, Debye):
    X=              1.3179    Y=             -5.4617    Z=              0.0005  Tot=              5.6185
 Quadrupole moment (field-independent basis, Debye-Ang):
   XX=            -81.8916   YY=            -96.2702   ZZ=           -104.2504
   XY=             -6.6838   XZ=              0.0005   YZ=              0.0015

  Exact polarizability:     345.406    -123.494     302.644      -0.003       0.002      63.167
 Approx polarizability:     271.897     -34.294     265.114      -0.001       0.000      82.035

 ******    1 imaginary frequencies (negative Signs) ******

                      1                      2                      3
                      A                      A                      A
 Frequencies --    -24.3392                27.2198                54.2093
 Red. masses --      5.3550                 6.6852                 4.3307
 Frc consts  --      0.0019                 0.0029                 0.0075
 IR Inten    --     82.5697                 1.6380                 0.1421

                      4                      5                      6
                      A                      A                      A
 Frequencies --    127.7576               187.3992               216.3583
 Red. masses --      5.7865                 6.3303                 6.2114
 Frc consts  --      0.0556                 0.1310                 0.1713
 IR Inten    --      1.2139                 0.0616                32.3773

                      7                      8                      9
                      A                      A                      A
 Frequencies --    220.8234               269.7448               290.5321
 Red. masses --      5.7823                 4.5830                 6.7531
 Frc consts  --      0.1661                 0.1965                 0.3358
 IR Inten    --      0.1460                 0.0254                 6.4184

                     10                     11                     12
                      A                      A                      A
 Frequencies --    359.7060               405.6695               436.1719
 Red. masses --      4.9572                 9.0586                 3.3336
 Frc consts  --      0.3779                 0.8783                 0.3737
 IR Inten    --      0.9077                 6.1667                 2.8372

                     13                     14                     15
                      A                      A                      A
 Frequencies --    461.6231               508.0408               508.4434
 Red. masses --      4.3969                 3.2006                 8.6670
 Frc consts  --      0.5520                 0.4867                 1.3201
 IR Inten    --      2.4460                 0.2772                23.1401

                     16                     17                     18
                      A                      A                      A
 Frequencies --    526.7823               545.5629               559.6336
 Red. masses --      4.4467                 8.7083                 3.8816
 Frc consts  --      0.7270                 1.5271                 0.7162
 IR Inten    --    128.3922                 2.8416                 0.2853

                     19                     20                     21
                      A                      A                      A
 Frequencies --    567.2796               604.3826               698.5550
 Red. masses --      7.0148                 5.5426                 6.7090
 Frc consts  --      1.3300                 1.1928                 1.9289
 IR Inten    --     10.1666                84.7583                 2.1020

                     22                     23                     24
                      A                      A                      A
 Frequencies --    699.7326               726.3839               742.5270
 Red. masses --      1.5005                 6.0096                 2.7500
 Frc consts  --      0.4329                 1.8682                 0.8933
 IR Inten    --     44.3826                 5.5657                15.3404

                     25                     26                     27
                      A                      A                      A
 Frequencies --    756.9249               766.7678               805.7652
 Red. masses --      1.7094                 1.5952                 3.5000
 Frc consts  --      0.5770                 0.5526                 1.3388
 IR Inten    --      6.2181                82.0944                51.4596

                     28                     29                     30
                      A                      A                      A
 Frequencies --    821.8464               829.3300               870.4174
 Red. masses --      2.0032                 6.1197                 1.3783
 Frc consts  --      0.7972                 2.4799                 0.6153
 IR Inten    --      0.8479                20.1717                 0.9113

                     31                     32                     33
                      A                      A                      A
 Frequencies --    901.8923               946.2299               952.3536
 Red. masses --      1.4180                 5.1973                 1.3639
 Frc consts  --      0.6796                 2.7417                 0.7288
 IR Inten    --      5.8525                25.0789                 0.0878

                     34                     35                     36
                      A                      A                      A
 Frequencies --    958.3151              1004.2941              1046.8443
 Red. masses --      1.3531                 1.3012                 2.0465
 Frc consts  --      0.7321                 0.7733                 1.3214
 IR Inten    --      2.4626                 0.0078                 8.7224

                     37                     38                     39
                      A                      A                      A
 Frequencies --   1050.4741              1060.0469              1078.2057
 Red. masses --      2.0514                 1.0620                 3.5065
 Frc consts  --      1.3337                 0.7031                 2.4018
 IR Inten    --      8.3264                75.9114                84.4892

                     40                     41                     42
                      A                      A                      A
 Frequencies --   1124.1211              1141.1321              1160.1426
 Red. masses --      1.6858                 1.7023                 1.3395
 Frc consts  --      1.2551                 1.3061                 1.0622
 IR Inten    --    107.9903               188.2176                 1.7360

                     43                     44                     45
                      A                      A                      A
 Frequencies --   1168.8191              1182.5743              1245.9840
 Red. masses --      1.2473                 1.2817                 1.8308
 Frc consts  --      1.0039                 1.0561                 1.6746
 IR Inten    --     32.6954                 0.1404                51.3165

                     46                     47                     48
                      A                      A                      A
 Frequencies --   1258.5994              1303.0245              1330.3940
 Red. masses --      2.9747                 1.9621                 4.0101
 Frc consts  --      2.7763                 1.9628                 4.1818
 IR Inten    --     33.5625                 6.0947                22.4765

                     49                     50                     51
                      A                      A                      A
 Frequencies --   1348.0290              1377.5143              1402.5181
 Red. masses --      6.1618                 3.4518                 2.4495
 Frc consts  --      6.5972                 3.8591                 2.8388
 IR Inten    --    159.4801               121.3932                19.5799

                     52                     53                     54
                      A                      A                      A
 Frequencies --   1435.7978              1476.2146              1490.3306
 Red. masses --      2.9558                 3.0916                 3.3626
 Frc consts  --      3.5902                 3.9695                 4.4004
 IR Inten    --    463.6987                26.3631                42.2066

                     55                     56                     57
                      A                      A                      A
 Frequencies --   1510.4551              1551.4523              1568.5757
 Red. masses --      3.4402                 5.3438                 4.6633
 Frc consts  --      4.6243                 7.5784                 6.7601
 IR Inten    --    124.8527                96.9072                38.2074

                     58                     59                     60
                      A                      A                      A
 Frequencies --   1613.8439              1623.6874              1660.4162
 Red. masses --      5.9808                 6.0724                 6.5257
 Frc consts  --      9.1776                 9.4323                10.6002
 IR Inten    --    298.7874               127.3747                83.5726

                     61                     62                     63
                      A                      A                      A
 Frequencies --   2330.6484              3205.4963              3208.7652
 Red. masses --      1.1053                 1.0871                 1.0861
 Frc consts  --      3.5376                 6.5813                 6.5888
 IR Inten    --    994.1144                22.9262                 3.3302

                     64                     65                     66
                      A                      A                      A
 Frequencies --   3214.3455              3218.1635              3227.0328
 Red. masses --      1.0874                 1.0902                 1.0932
 Frc consts  --      6.6194                 6.6521                 6.7073
 IR Inten    --     10.7059                 2.8466                13.3718

                     67                     68                     69
                      A                      A                      A
 Frequencies --   3227.9931              3235.5704              3237.3720
 Red. masses --      1.0956                 1.0997                 1.0987
 Frc consts  --      6.7261                 6.7829                 6.7843
 IR Inten    --      7.1808                18.1362                22.0073

 - Thermochemistry -
 -------------------
 Temperature   298.150 Kelvin.  Pressure   1.00000 Atm.
 Atom     1 has atomic number  6 and mass  12.00000

 Molecular mass:   227.04049 amu.
 Principal axes and moments of inertia in atomic units:
                           1         2         3
     Eigenvalues --  1289.273386373.674997662.94836
           X           -0.69980   0.71433   0.00001
           Y            0.71433   0.69980   0.00000
           Z            0.00001  -0.00001   1.00000
 This molecule is an asymmetric top.
 Rotational symmetry number  1.
 Warning -- assumption of classical behavior for rotation
           may cause significant error
 Rotational temperatures (Kelvin)      0.06718     0.01359     0.01130
 Rotational constants (GHZ):           1.39981     0.28316     0.23552
    1 imaginary frequencies ignored.
 Zero-point vibrational energy     482533.2 (Joules/Mol)
                                  115.32821 (Kcal/Mol)
 Warning -- explicit consideration of  19 degrees of freedom as
           vibrations may cause significant error
 Vibrational temperatures:     39.16    78.00   183.81   269.63   311.29
          (Kelvin)            317.72   388.10   418.01   517.54   583.67
                              627.55   664.17   730.96   731.54   757.92
                              784.94   805.19   816.19   869.57  1005.06
                             1006.76  1045.10  1068.33  1089.05  1103.21
                             1159.32  1182.45  1193.22  1252.34  1297.62
                             1361.41  1370.22  1378.80  1444.96  1506.18
                             1511.40  1525.17  1551.30  1617.36  1641.83
                             1669.19  1681.67  1701.46  1792.69  1810.84
                             1874.76  1914.14  1939.51  1981.94  2017.91
                             2065.79  2123.94  2144.25  2173.21  2232.19
                             2256.83  2321.96  2336.12  2388.97  3353.28
                             4611.99  4616.70  4624.73  4630.22  4642.98
                             4644.36  4655.26  4657.86

 Zero-point correction=                           0.183787 (Hartree/Particle)
 Thermal correction to Energy=                    0.195524
 Thermal correction to Enthalpy=                  0.196468
 Thermal correction to Gibbs Free Energy=         0.144721
 Sum of electronic and zero-point Energies=          -1028.504400
 Sum of electronic and thermal Energies=             -1028.492664
 Sum of electronic and thermal Enthalpies=           -1028.491719
 Sum of electronic and thermal Free Energies=        -1028.543466

                     E (Thermal)             CV                S
                      KCal/Mol        Cal/Mol-Kelvin    Cal/Mol-Kelvin
 Total                  122.693             47.742            108.910
 Electronic               0.000              0.000              0.000
 Translational            0.889              2.981             42.162
 Rotational               0.889              2.981             32.510
 Vibrational            120.915             41.780             34.238
 Vibration     1          0.593              1.984              6.022
 Vibration     2          0.596              1.976              4.658
 Vibration     3          0.611              1.925              2.980
 Vibration     4          0.632              1.857              2.253
 Vibration     5          0.645              1.816              1.989
 Vibration     6          0.648              1.809              1.952
 Vibration     7          0.674              1.729              1.598
 Vibration     8          0.686              1.691              1.471
 Vibration     9          0.734              1.555              1.123
 Vibration    10          0.771              1.458              0.942
 Vibration    11          0.797              1.391              0.839
 Vibration    12          0.819              1.335              0.761
 Vibration    13          0.863              1.232              0.638
 Vibration    14          0.864              1.231              0.637
 Vibration    15          0.882              1.191              0.594
 Vibration    16          0.901              1.149              0.553
 Vibration    17          0.915              1.119              0.525
 Vibration    18          0.923              1.102              0.509
 Vibration    19          0.963              1.023              0.442

 Optimization completed.
    -- Stationary point found.
 Normal termination of Gaussian 16 at Tue Jul 14 17:46:56 2020.
