 Gaussian 16, Revision C.01,
 Gaussian 16:  ES64L-G16RevC.01  3-Jul-2019

 ----------------------------------------------------------------------
 #p opt=addgic freq td wb97xd/cc-pvdz nosymm int=ultrafine scrf=(solven
 t=CarbonTetraChloride)
 ----------------------------------------------------------------------

 ------------------------------------------------
 NM 2D-scan of HBT TD-WB97XD pVDZ in CTC Relaxed.
 ------------------------------------------------
 Symbolic Z-matrix:
 Charge =  0 Multiplicity = 1

 SCF Done:  E(RwB97XD) =  -1028.80423017     A.U. after   15 cycles
 Total Energy, E(TD-HF/TD-DFT) =  -1028.68151852
 SCF Done:  E(RwB97XD) =  -1028.80641935     A.U. after   12 cycles
 Total Energy, E(TD-HF/TD-DFT) =  -1028.68250100
 SCF Done:  E(RwB97XD) =  -1028.80673711     A.U. after   11 cycles
 Total Energy, E(TD-HF/TD-DFT) =  -1028.68234582
 SCF Done:  E(RwB97XD) =  -1028.80655943     A.U. after    9 cycles
 Total Energy, E(TD-HF/TD-DFT) =  -1028.68257870
 SCF Done:  E(RwB97XD) =  -1028.80665159     A.U. after    9 cycles
 Total Energy, E(TD-HF/TD-DFT) =  -1028.68258098
 SCF Done:  E(RwB97XD) =  -1028.80673374     A.U. after    9 cycles
 Total Energy, E(TD-HF/TD-DFT) =  -1028.68258195
 SCF Done:  E(RwB97XD) =  -1028.80674063     A.U. after    8 cycles
 Total Energy, E(TD-HF/TD-DFT) =  -1028.68258204
 Optimization completed.
    -- Stationary point found.
 Normal termination of Gaussian 16 at Tue Jul 14 16:42:36 2020.

 ----------------------------------------------------------------------
 #P Geom=AllCheck Guess=TCheck SCRF=Check GenChk RwB97XD TD(FC,Read)/CC
 -pVDZ Freq
 ----------------------------------------------------------------------

 Structure from the checkpoint file:  "config_5_19.chk"
 ------------------------------------------------
 NM 2D-scan of HBT TD-WB97XD pVDZ in CTC Relaxed.
 ------------------------------------------------
 Charge =  0 Multiplicity = 1

                          Input orientation:
 ---------------------------------------------------------------------
 Center     Atomic      Atomic             Coordinates (Angstroms)
 Number     Number       Type             X           Y           Z
 ---------------------------------------------------------------------
      1          6           0        1.505720   -3.239191   -0.000050
      2          6           0        1.005202   -1.943836   -0.000024
      3          6           0        1.814322   -0.766684   -0.000042
      4          6           0        3.216615   -0.973896   -0.000105
      5          6           0        3.715047   -2.275535   -0.000129
      6          6           0        2.882079   -3.408938   -0.000098
      7          1           0        0.823886   -4.090588   -0.000027
      8          1           0        3.897146   -0.121554   -0.000124
      9          1           0        4.797429   -2.418236   -0.000170
     10          1           0        3.314209   -4.410181   -0.000114
     11          7           0        1.079591    0.393470    0.000027
     12         16           0       -0.680791   -1.554122    0.000042
     13          6           0       -1.295606    1.079378    0.000166
     14          6           0       -2.651187    0.705493    0.000172
     15          6           0       -0.926375    2.491739    0.000109
     16          6           0       -3.642925    1.682862    0.000007
     17          1           0       -2.930194   -0.348422    0.000261
     18          6           0       -1.962362    3.456865   -0.000101
     19          6           0       -3.303105    3.050913   -0.000159
     20          1           0       -4.692181    1.383517   -0.000021
     21          1           0       -1.691391    4.513259   -0.000179
     22          1           0       -4.094292    3.801401   -0.000312
     23          6           0       -0.259118    0.129554    0.000111
     24          8           0        0.344035    2.756703    0.000284
     25          1           0        0.942264    1.759339    0.000590
 ---------------------------------------------------------------------

 SCF Done:  E(RwB97XD) =  -1028.80674063     A.U. after    1 cycles

 Excitation energies and oscillator strengths:

 Excited state symmetry could not be determined.
 Excited State   1:      Singlet-?Sym    3.3785 eV  366.98 nm  f=0.5436  <S**2>=0.000
      59 -> 60         0.69178
 This state for optimization and/or second-order correction.
 Total Energy, E(TD-HF/TD-DFT) =  -1028.68258207
 Copying the excited state density for this state as the 1-particle RhoCI density.

 Excited state symmetry could not be determined.
 Excited State   2:      Singlet-?Sym    4.3622 eV  284.23 nm  f=0.2298  <S**2>=0.000
      57 -> 60         0.14401
      58 -> 60         0.65741

 Excited state symmetry could not be determined.
 Excited State   3:      Singlet-?Sym    4.7253 eV  262.39 nm  f=0.1002  <S**2>=0.000
      57 -> 60         0.59989
      57 -> 62        -0.15226
      58 -> 60        -0.15234
      58 -> 61        -0.15500
      59 -> 61        -0.19951

 Alpha  occ. eigenvalues --  -89.08962 -19.26176 -14.48773 -10.40006 -10.37526
 Alpha  occ. eigenvalues --  -10.36207 -10.34839 -10.32274 -10.32152 -10.32072
 Alpha  occ. eigenvalues --  -10.31893 -10.31715 -10.31619 -10.31491 -10.30199
 Alpha  occ. eigenvalues --  -10.30191  -8.11122  -6.05953  -6.05606  -6.05179
 Alpha  occ. eigenvalues --   -1.14799  -1.08910  -0.97086  -0.96003  -0.92676
 Alpha  occ. eigenvalues --   -0.88862  -0.85611  -0.84013  -0.82373  -0.75845
 Alpha  occ. eigenvalues --   -0.71500  -0.70847  -0.68866  -0.67643  -0.63590
 Alpha  occ. eigenvalues --   -0.60799  -0.59199  -0.58367  -0.55708  -0.54410
 Alpha  occ. eigenvalues --   -0.54380  -0.53626  -0.52998  -0.50684  -0.49934
 Alpha  occ. eigenvalues --   -0.49512  -0.46622  -0.46258  -0.45777  -0.44927
 Alpha  occ. eigenvalues --   -0.44384  -0.42662  -0.42557  -0.40456  -0.36512
 Alpha  occ. eigenvalues --   -0.36222  -0.32334  -0.31353  -0.27946
 Alpha virt. eigenvalues --   -0.01739   0.04758   0.06516   0.07666   0.07768
 Alpha virt. eigenvalues --    0.10814   0.14744   0.15096   0.17280   0.17889
 Alpha virt. eigenvalues --    0.18755   0.21033   0.21443   0.22249   0.22473

 Mulliken charges:
               1
     1  C    0.024297
     2  C   -0.219566
     3  C    0.241248
     4  C   -0.023727
     5  C    0.003489
     6  C    0.000741
     7  H    0.019137
     8  H    0.023181
     9  H    0.021613
    10  H    0.021850
    11  N   -0.355062
    12  S    0.173393
    13  C   -0.087835
    14  C   -0.032584
    15  C    0.124464
    16  C   -0.017715
    17  H    0.023693
    18  C   -0.015288
    19  C    0.026276
    20  H    0.008327
    21  H    0.015509
    22  H    0.021816
    23  C    0.085634
    24  O   -0.312674
    25  H    0.229782
 Sum of Mulliken charges =  -0.00000

 Dipole moment (field-independent basis, Debye):
    X=             -0.1630    Y=             -3.2964    Z=              0.0002  Tot=              3.3004
 Quadrupole moment (field-independent basis, Debye-Ang):
   XX=            -83.0123   YY=            -91.2521   ZZ=           -104.1893
   XY=             -7.0848   XZ=              0.0006   YZ=             -0.0007

  Exact polarizability:     369.071    -156.902     339.018      -0.002       0.001      63.209
 Approx polarizability:     273.645     -34.373     258.170      -0.000      -0.002      82.294

 ******    1 imaginary frequencies (negative Signs) ******

                      1                      2                      3
                      A                      A                      A
 Frequencies --  -1065.2962                37.3584                48.5377
 Red. masses --      1.1163                 4.9970                 6.7725
 Frc consts  --      0.7464                 0.0041                 0.0094
 IR Inten    --    688.5618                 0.0087                 1.4697

                      4                      5                      6
                      A                      A                      A
 Frequencies --    115.4981               161.8121               175.9162
 Red. masses --      5.5654                 5.7336                 6.3072
 Frc consts  --      0.0437                 0.0885                 0.1150
 IR Inten    --      0.0034                 4.5128                 1.1042

                      7                      8                      9
                      A                      A                      A
 Frequencies --    221.8882               274.0081               288.6722
 Red. masses --      5.3013                 4.7261                 7.6560
 Frc consts  --      0.1538                 0.2091                 0.3759
 IR Inten    --      0.0202                 0.0122                23.4356

                     10                     11                     12
                      A                      A                      A
 Frequencies --    373.2805               388.9052               426.9346
 Red. masses --      4.7497                 5.9830                11.5122
 Frc consts  --      0.3899                 0.5332                 1.2363
 IR Inten    --      0.1012                 1.3336                 6.0032

                     13                     14                     15
                      A                      A                      A
 Frequencies --    440.5757               473.6368               501.7012
 Red. masses --      3.1950                 4.7441                 3.1642
 Frc consts  --      0.3654                 0.6270                 0.4692
 IR Inten    --      3.9364                 0.0814                 0.2295

                     16                     17                     18
                      A                      A                      A
 Frequencies --    509.5368               542.9319               560.6340
 Red. masses --      8.7892                 8.2681                 3.8755
 Frc consts  --      1.3445                 1.4360                 0.7177
 IR Inten    --      1.5920                21.0539                 0.1813

                     19                     20                     21
                      A                      A                      A
 Frequencies --    574.8080               622.7160               686.5869
 Red. masses --      7.7013                 6.9095                 6.9207
 Frc consts  --      1.4992                 1.5786                 1.9222
 IR Inten    --      0.5182                 1.9820               108.4641

                     22                     23                     24
                      A                      A                      A
 Frequencies --    704.5934               739.5705               743.0330
 Red. masses --      1.5610                 6.8222                 1.9762
 Frc consts  --      0.4566                 2.1985                 0.6428
 IR Inten    --     53.2750                 3.1194                39.0420

                     25                     26                     27
                      A                      A                      A
 Frequencies --    748.2280               755.6291               767.2754
 Red. masses --      1.7749                 8.2025                 1.9947
 Frc consts  --      0.5855                 2.7594                 0.6919
 IR Inten    --      8.9079                75.8604                54.8537

                     28                     29                     30
                      A                      A                      A
 Frequencies --    802.9716               839.0954               864.0943
 Red. masses --      1.9434                 6.5326                 1.4025
 Frc consts  --      0.7383                 2.7099                 0.6170
 IR Inten    --      1.6333                 4.4113                 0.9387

                     31                     32                     33
                      A                      A                      A
 Frequencies --    905.7795               907.9552               953.7129
 Red. masses --      1.3631                 6.7713                 1.3498
 Frc consts  --      0.6589                 3.2889                 0.7234
 IR Inten    --      4.4389                26.6260                 1.9728

                     34                     35                     36
                      A                      A                      A
 Frequencies --    958.2115               999.2845               999.7916
 Red. masses --      1.3810                 7.8387                 1.3012
 Frc consts  --      0.7471                 4.6118                 0.7663
 IR Inten    --      0.0882                 1.3470                 0.0026

                     37                     38                     39
                      A                      A                      A
 Frequencies --   1048.4097              1049.7342              1101.4560
 Red. masses --      2.0805                 2.0092                 3.5259
 Frc consts  --      1.3474                 1.3044                 2.5203
 IR Inten    --      5.2055                 8.5281                63.9723

                     40                     41                     42
                      A                      A                      A
 Frequencies --   1142.5989              1158.6757              1180.0060
 Red. masses --      1.4696                 1.4298                 1.2157
 Frc consts  --      1.1304                 1.1309                 0.9974
 IR Inten    --     17.0643                35.9825                16.2887

                     43                     44                     45
                      A                      A                      A
 Frequencies --   1184.9182              1210.3914              1259.3176
 Red. masses --      1.3160                 1.0497                 2.5413
 Frc consts  --      1.0886                 0.9061                 2.3745
 IR Inten    --     45.9552                67.2369                67.4305

                     46                     47                     48
                      A                      A                      A
 Frequencies --   1283.0056              1295.3589              1338.2628
 Red. masses --      2.1205                 2.3519                 3.2137
 Frc consts  --      2.0566                 2.3252                 3.3910
 IR Inten    --    187.3778                12.5225                 7.6176

                     49                     50                     51
                      A                      A                      A
 Frequencies --   1369.7522              1382.2743              1415.8687
 Red. masses --      5.5526                 2.4452                 3.9297
 Frc consts  --      6.1381                 2.7527                 4.6414
 IR Inten    --    340.9245                54.8787               345.0326

                     52                     53                     54
                      A                      A                      A
 Frequencies --   1463.5803              1473.8713              1500.4718
 Red. masses --      2.2057                 2.8075                 3.1760
 Frc consts  --      2.7838                 3.5932                 4.2130
 IR Inten    --     10.8179                39.9383                24.5955

                     55                     56                     57
                      A                      A                      A
 Frequencies --   1538.0953              1558.0416              1580.5882
 Red. masses --      4.4658                 4.2366                 6.4057
 Frc consts  --      6.2247                 6.0593                 9.4287
 IR Inten    --    194.8796                82.1420               161.7538

                     58                     59                     60
                      A                      A                      A
 Frequencies --   1615.2751              1640.4859              1651.5299
 Red. masses --      6.0039                 5.1383                 6.1568
 Frc consts  --      9.2295                 8.1474                 9.8941
 IR Inten    --    203.6283              1320.5324                69.2880

                     61                     62                     63
                      A                      A                      A
 Frequencies --   1807.6638              3204.8412              3214.0387
 Red. masses --      1.0935                 1.0862                 1.0860
 Frc consts  --      2.1052                 6.5731                 6.6096
 IR Inten    --    119.3220                 7.2345                 6.1892

                     64                     65                     66
                      A                      A                      A
 Frequencies --   3214.4767              3223.5245              3225.1559
 Red. masses --      1.0902                 1.0885                 1.0949
 Frc consts  --      6.6370                 6.6642                 6.7103
 IR Inten    --      2.2044                24.0992                10.9459

                     67                     68                     69
                      A                      A                      A
 Frequencies --   3232.4723              3233.8410              3240.4296
 Red. masses --      1.0942                 1.0995                 1.0983
 Frc consts  --      6.7359                 6.7743                 6.7946
 IR Inten    --     13.1257                27.4585                15.6314

 - Thermochemistry -
 -------------------
 Temperature   298.150 Kelvin.  Pressure   1.00000 Atm.
 Atom     1 has atomic number  6 and mass  12.00000

 Molecular mass:   227.04049 amu.
 Principal axes and moments of inertia in atomic units:
                           1         2         3
     Eigenvalues --  1269.248006278.774117548.02208
           X           -0.70622   0.70799   0.00000
           Y            0.70799   0.70622  -0.00002
           Z            0.00001   0.00001   1.00000
 This molecule is an asymmetric top.
 Rotational symmetry number  1.
 Warning -- assumption of classical behavior for rotation
           may cause significant error
 Rotational temperatures (Kelvin)      0.06824     0.01379     0.01148
 Rotational constants (GHZ):           1.42190     0.28744     0.23910
    1 imaginary frequencies ignored.
 Zero-point vibrational energy     479424.9 (Joules/Mol)
                                  114.58529 (Kcal/Mol)
 Warning -- explicit consideration of  18 degrees of freedom as
           vibrations may cause significant error
 Vibrational temperatures:     53.75    69.83   166.18   232.81   253.10
          (Kelvin)            319.25   394.24   415.33   537.07   559.55
                              614.26   633.89   681.46   721.84   733.11
                              781.16   806.63   827.02   895.95   987.85
                             1013.75  1064.08  1069.06  1076.53  1087.18
                             1103.94  1155.30  1207.27  1243.24  1303.21
                             1306.34  1372.18  1378.65  1437.75  1438.48
                             1508.43  1510.33  1584.75  1643.95  1667.08
                             1697.77  1704.83  1741.48  1811.88  1845.96
                             1863.73  1925.46  1970.77  1988.78  2037.12
                             2105.77  2120.57  2158.84  2212.98  2241.67
                             2274.11  2324.02  2360.29  2376.18  2600.83
                             4611.05  4624.28  4624.91  4637.93  4640.28
                             4650.81  4652.78  4662.26

 Zero-point correction=                           0.182603 (Hartree/Particle)
 Thermal correction to Energy=                    0.194533
 Thermal correction to Enthalpy=                  0.195477
 Thermal correction to Gibbs Free Energy=         0.143428
 Sum of electronic and zero-point Energies=          -1028.499979
 Sum of electronic and thermal Energies=             -1028.488049
 Sum of electronic and thermal Enthalpies=           -1028.487105
 Sum of electronic and thermal Free Energies=        -1028.539155

                     E (Thermal)             CV                S
                      KCal/Mol        Cal/Mol-Kelvin    Cal/Mol-Kelvin
 Total                  122.071             48.081            109.547
 Electronic               0.000              0.000              0.000
 Translational            0.889              2.981             42.162
 Rotational               0.889              2.981             32.464
 Vibrational            120.294             42.119             34.921
 Vibration     1          0.594              1.982              5.394
 Vibration     2          0.595              1.978              4.876
 Vibration     3          0.608              1.937              3.174
 Vibration     4          0.622              1.889              2.529
 Vibration     5          0.628              1.872              2.371
 Vibration     6          0.648              1.808              1.944
 Vibration     7          0.676              1.721              1.571
 Vibration     8          0.685              1.695              1.482
 Vibration     9          0.745              1.527              1.066
 Vibration    10          0.757              1.494              1.004
 Vibration    11          0.789              1.412              0.869
 Vibration    12          0.800              1.382              0.825
 Vibration    13          0.830              1.309              0.727
 Vibration    14          0.857              1.246              0.654
 Vibration    15          0.865              1.229              0.635
 Vibration    16          0.898              1.155              0.559
 Vibration    17          0.916              1.116              0.523
 Vibration    18          0.931              1.086              0.495

 Optimization completed.
    -- Stationary point found.
 Normal termination of Gaussian 16 at Tue Jul 14 16:59:59 2020.
