 Gaussian 16, Revision C.01,
 Gaussian 16:  ES64L-G16RevC.01  3-Jul-2019

 ----------------------------------------------------------------------
 #p opt=addgic freq td wb97xd/cc-pvdz nosymm int=ultrafine scrf=(solven
 t=CarbonTetraChloride)
 ----------------------------------------------------------------------

 ------------------------------------------------
 NM 2D-scan of HBT TD-WB97XD pVDZ in CTC Relaxed.
 ------------------------------------------------
 Symbolic Z-matrix:
 Charge =  0 Multiplicity = 1

 SCF Done:  E(RwB97XD) =  -1028.70582826     A.U. after   16 cycles
 Total Energy, E(TD-HF/TD-DFT) =  -1028.60027109
 SCF Done:  E(RwB97XD) =  -1028.77520535     A.U. after   14 cycles
 Total Energy, E(TD-HF/TD-DFT) =  -1028.67363310
 SCF Done:  E(RwB97XD) =  -1028.79420878     A.U. after   13 cycles
 Total Energy, E(TD-HF/TD-DFT) =  -1028.69346219
 SCF Done:  E(RwB97XD) =  -1028.79753659     A.U. after   13 cycles
 Total Energy, E(TD-HF/TD-DFT) =  -1028.69615932
 SCF Done:  E(RwB97XD) =  -1028.79749890     A.U. after   11 cycles
 Total Energy, E(TD-HF/TD-DFT) =  -1028.69625279
 SCF Done:  E(RwB97XD) =  -1028.79742673     A.U. after   10 cycles
 Total Energy, E(TD-HF/TD-DFT) =  -1028.69626861
 SCF Done:  E(RwB97XD) =  -1028.79738373     A.U. after    9 cycles
 Total Energy, E(TD-HF/TD-DFT) =  -1028.69626972
 Optimization completed.
    -- Stationary point found.
 Normal termination of Gaussian 16 at Tue Jul 14 16:53:37 2020.

 ----------------------------------------------------------------------
 #P Geom=AllCheck Guess=TCheck SCRF=Check GenChk RwB97XD TD(FC,Read)/CC
 -pVDZ Freq
 ----------------------------------------------------------------------

 Structure from the checkpoint file:  "config_10_20.chk"
 ------------------------------------------------
 NM 2D-scan of HBT TD-WB97XD pVDZ in CTC Relaxed.
 ------------------------------------------------
 Charge =  0 Multiplicity = 1

                          Input orientation:
 ---------------------------------------------------------------------
 Center     Atomic      Atomic             Coordinates (Angstroms)
 Number     Number       Type             X           Y           Z
 ---------------------------------------------------------------------
      1          6           0        1.520468   -3.290800   -0.000040
      2          6           0        1.005592   -2.000983   -0.000029
      3          6           0        1.831998   -0.864925   -0.000013
      4          6           0        3.225883   -1.024719   -0.000008
      5          6           0        3.738295   -2.321243   -0.000017
      6          6           0        2.903600   -3.446449   -0.000033
      7          1           0        0.853660   -4.153330   -0.000051
      8          1           0        3.886473   -0.157083    0.000005
      9          1           0        4.820736   -2.458605   -0.000012
     10          1           0        3.336931   -4.446986   -0.000039
     11          7           0        1.086279    0.291065   -0.000002
     12         16           0       -0.682765   -1.545216   -0.000029
     13          6           0       -1.308560    1.140269    0.000018
     14          6           0       -2.642320    0.754970    0.000046
     15          6           0       -0.957957    2.570252   -0.000003
     16          6           0       -3.691921    1.710545    0.000044
     17          1           0       -2.913351   -0.303197    0.000070
     18          6           0       -2.057332    3.492733    0.000015
     19          6           0       -3.397116    3.068316    0.000029
     20          1           0       -4.725447    1.361368    0.000063
     21          1           0       -1.806322    4.555270    0.000014
     22          1           0       -4.203463    3.803555    0.000033
     23          6           0       -0.272978    0.143533    0.000001
     24          8           0        0.253899    2.902943    0.000031
     25          1           0        1.494102    1.214675    0.000008
 ---------------------------------------------------------------------

 SCF Done:  E(RwB97XD) =  -1028.79738373     A.U. after    1 cycles

 Excitation energies and oscillator strengths:

 Excited state symmetry could not be determined.
 Excited State   1:      Singlet-?Sym    2.7515 eV  450.61 nm  f=0.4448  <S**2>=0.000
      59 -> 60         0.69789
 This state for optimization and/or second-order correction.
 Total Energy, E(TD-HF/TD-DFT) =  -1028.69626974
 Copying the excited state density for this state as the 1-particle RhoCI density.

 Excited state symmetry could not be determined.
 Excited State   2:      Singlet-?Sym    3.3737 eV  367.50 nm  f=0.0000  <S**2>=0.000
      58 -> 60         0.68374
      58 -> 62         0.11524
      58 -> 64         0.10560

 Excited state symmetry could not be determined.
 Excited State   3:      Singlet-?Sym    4.2452 eV  292.06 nm  f=0.3600  <S**2>=0.000
      57 -> 60         0.68505

 Alpha  occ. eigenvalues --  -89.10213 -19.20219 -14.53530 -10.42365 -10.37821
 Alpha  occ. eigenvalues --  -10.36125 -10.35322 -10.33423 -10.33396 -10.32803
 Alpha  occ. eigenvalues --  -10.32529 -10.31345 -10.30738 -10.30673 -10.29083
 Alpha  occ. eigenvalues --  -10.28235  -8.12306  -6.07175  -6.06793  -6.06326
 Alpha  occ. eigenvalues --   -1.13063  -1.08682  -0.98652  -0.95888  -0.93300
 Alpha  occ. eigenvalues --   -0.89051  -0.86997  -0.83766  -0.80948  -0.75817
 Alpha  occ. eigenvalues --   -0.74129  -0.72310  -0.69144  -0.67594  -0.65196
 Alpha  occ. eigenvalues --   -0.61091  -0.59721  -0.56579  -0.56175  -0.56081
 Alpha  occ. eigenvalues --   -0.55121  -0.53920  -0.53052  -0.50235  -0.48664
 Alpha  occ. eigenvalues --   -0.48661  -0.48368  -0.47087  -0.45616  -0.44910
 Alpha  occ. eigenvalues --   -0.43958  -0.42774  -0.42328  -0.39819  -0.36897
 Alpha  occ. eigenvalues --   -0.33811  -0.31453  -0.30781  -0.25471
 Alpha virt. eigenvalues --   -0.02188   0.03595   0.05449   0.06879   0.09626
 Alpha virt. eigenvalues --    0.10910   0.13952   0.14729   0.16078   0.16977
 Alpha virt. eigenvalues --    0.17764   0.19756   0.20619   0.21170   0.22457

 Mulliken charges:
               1
     1  C    0.021576
     2  C   -0.232524
     3  C    0.227278
     4  C   -0.010721
     5  C    0.010080
     6  C    0.004750
     7  H    0.025133
     8  H    0.031137
     9  H    0.028693
    10  H    0.027604
    11  N   -0.124554
    12  S    0.198916
    13  C   -0.060096
    14  C   -0.043972
    15  C    0.095869
    16  C   -0.034399
    17  H    0.015473
    18  C   -0.047783
    19  C    0.034567
    20  H    0.000625
    21  H   -0.000080
    22  H    0.014049
    23  C    0.074747
    24  O   -0.386753
    25  H    0.130386
 Sum of Mulliken charges =  -0.00000

 Dipole moment (field-independent basis, Debye):
    X=              2.4669    Y=             -6.2743    Z=             -0.0001  Tot=              6.7418
 Quadrupole moment (field-independent basis, Debye-Ang):
   XX=            -81.0678   YY=            -98.0552   ZZ=           -104.1306
   XY=             -5.8431   XZ=             -0.0001   YZ=             -0.0001

  Exact polarizability:     346.318    -119.021     293.549      -0.002       0.002      63.202
 Approx polarizability:     273.918     -37.736     264.313      -0.001       0.001      81.920

 ******    1 imaginary frequencies (negative Signs) ******

                      1                      2                      3
                      A                      A                      A
 Frequencies --    -58.6376                50.8447               112.8097
 Red. masses --      4.8348                 6.1506                 5.8693
 Frc consts  --      0.0098                 0.0094                 0.0440
 IR Inten    --      1.7500                 0.9366                 1.4709

                      4                      5                      6
                      A                      A                      A
 Frequencies --    128.9003               182.4049               227.0074
 Red. masses --      5.8452                 5.6319                 5.6166
 Frc consts  --      0.0572                 0.1104                 0.1705
 IR Inten    --      5.1229                 0.0284                 0.4170

                      7                      8                      9
                      A                      A                      A
 Frequencies --    270.0988               275.1308               292.1470
 Red. masses --      9.3356                 4.4486                 7.5804
 Frc consts  --      0.4013                 0.1984                 0.3812
 IR Inten    --      1.0894                 1.0849                 2.0925

                     10                     11                     12
                      A                      A                      A
 Frequencies --    345.0108               392.5199               426.8107
 Red. masses --      4.4972                 7.3935                 3.8974
 Frc consts  --      0.3154                 0.6712                 0.4183
 IR Inten    --      1.2955                 5.6370                 2.8640

                     13                     14                     15
                      A                      A                      A
 Frequencies --    446.7418               507.7180               514.0219
 Red. masses --      3.8953                 8.6057                 3.2340
 Frc consts  --      0.4580                 1.3070                 0.5034
 IR Inten    --      5.7237                 9.0469                 0.1733

                     16                     17                     18
                      A                      A                      A
 Frequencies --    544.2396               544.4882               560.0633
 Red. masses --      6.5312                 8.7282                 3.7994
 Frc consts  --      1.1398                 1.5246                 0.7022
 IR Inten    --     31.0868                14.5517                 1.1644

                     19                     20                     21
                      A                      A                      A
 Frequencies --    567.8007               638.9662               641.2199
 Red. masses --      7.2957                 6.5202                 1.0864
 Frc consts  --      1.3858                 1.5684                 0.2632
 IR Inten    --      6.5255                18.2672                81.4123

                     22                     23                     24
                      A                      A                      A
 Frequencies --    694.3777               724.3543               737.9045
 Red. masses --      1.4640                 6.0577                 7.6525
 Frc consts  --      0.4159                 1.8726                 2.4550
 IR Inten    --     26.9465                 2.2384                 5.5630

                     25                     26                     27
                      A                      A                      A
 Frequencies --    746.8404               755.4597               767.0301
 Red. masses --      2.5001                 1.6715                 1.6748
 Frc consts  --      0.8216                 0.5620                 0.5805
 IR Inten    --     27.6532                12.2583                72.5985

                     28                     29                     30
                      A                      A                      A
 Frequencies --    827.3095               832.2502               869.9871
 Red. masses --      6.5433                 2.1277                 1.3743
 Frc consts  --      2.6386                 0.8683                 0.6129
 IR Inten    --     17.2172                 1.8251                 0.7487

                     31                     32                     33
                      A                      A                      A
 Frequencies --    883.1407               897.1638               951.2523
 Red. masses --      5.5280                 1.4615                 1.3580
 Frc consts  --      2.5403                 0.6931                 0.7240
 IR Inten    --      3.3728                 8.8707                 0.2839

                     34                     35                     36
                      A                      A                      A
 Frequencies --    958.6694               971.8502              1004.3407
 Red. masses --      1.3532                 5.8049                 1.2984
 Frc consts  --      0.7328                 3.2303                 0.7716
 IR Inten    --      1.6028                 2.6119                 0.0052

                     37                     38                     39
                      A                      A                      A
 Frequencies --   1054.7542              1061.9692              1098.2463
 Red. masses --      2.1214                 2.0964                 3.6255
 Frc consts  --      1.3905                 1.3930                 2.5764
 IR Inten    --      5.6545                 6.9009                 2.5451

                     40                     41                     42
                      A                      A                      A
 Frequencies --   1114.8996              1157.7389              1166.0103
 Red. masses --      1.7126                 1.3621                 1.2871
 Frc consts  --      1.2542                 1.0757                 1.0310
 IR Inten    --     12.2364                10.6941                35.2326

                     43                     44                     45
                      A                      A                      A
 Frequencies --   1179.9449              1224.8273              1268.2285
 Red. masses --      1.1490                 2.5550                 2.1408
 Frc consts  --      0.9425                 2.2583                 2.0287
 IR Inten    --     17.7284                37.2969                26.3878

                     46                     47                     48
                      A                      A                      A
 Frequencies --   1283.5922              1298.5580              1336.9496
 Red. masses --      1.6896                 1.8628                 3.9936
 Frc consts  --      1.6401                 1.8507                 4.2057
 IR Inten    --     43.9374                16.5820                 4.4873

                     49                     50                     51
                      A                      A                      A
 Frequencies --   1359.6757              1397.6213              1419.8185
 Red. masses --      3.2826                 3.7672                 2.7212
 Frc consts  --      3.5755                 4.3355                 3.2321
 IR Inten    --    140.5574                16.5881                16.6751

                     52                     53                     54
                      A                      A                      A
 Frequencies --   1450.6085              1476.9402              1510.7585
 Red. masses --      2.0876                 3.0681                 2.9574
 Frc consts  --      2.5881                 3.9432                 3.9770
 IR Inten    --    114.7902                 4.7793                42.9603

                     55                     56                     57
                      A                      A                      A
 Frequencies --   1522.1874              1552.5887              1597.9273
 Red. masses --      3.7515                 3.9017                 5.0329
 Frc consts  --      5.1214                 5.5413                 7.5715
 IR Inten    --     49.1328               194.0388               134.0913

                     58                     59                     60
                      A                      A                      A
 Frequencies --   1624.3330              1660.5226              1668.3946
 Red. masses --      5.6445                 6.6891                 6.6757
 Frc consts  --      8.7746                10.8670                10.9483
 IR Inten    --    143.5020                17.1834               129.6048

                     61                     62                     63
                      A                      A                      A
 Frequencies --   3202.2834              3208.6430              3211.2045
 Red. masses --      1.0863                 1.0874                 1.0863
 Frc consts  --      6.5630                 6.5963                 6.6000
 IR Inten    --     27.4405                11.5397                 3.8207

                     64                     65                     66
                      A                      A                      A
 Frequencies --   3220.5420              3221.6519              3229.4319
 Red. masses --      1.0922                 1.0900                 1.0959
 Frc consts  --      6.6744                 6.6658                 6.7341
 IR Inten    --     16.6279                 2.2312                 7.5847

                     67                     68                     69
                      A                      A                      A
 Frequencies --   3233.6472              3238.4581              3684.8977
 Red. masses --      1.0989                 1.0997                 1.0795
 Frc consts  --      6.7700                 6.7950                 8.6364
 IR Inten    --     24.5807                12.9237               279.8061

 - Thermochemistry -
 -------------------
 Temperature   298.150 Kelvin.  Pressure   1.00000 Atm.
 Atom     1 has atomic number  6 and mass  12.00000

 Molecular mass:   227.04049 amu.
 Principal axes and moments of inertia in atomic units:
                           1         2         3
     Eigenvalues --  1263.237086515.599997778.83707
           X           -0.70289   0.71130   0.00000
           Y            0.71130   0.70289  -0.00001
           Z            0.00001   0.00000   1.00000
 This molecule is an asymmetric top.
 Rotational symmetry number  1.
 Warning -- assumption of classical behavior for rotation
           may cause significant error
 Rotational temperatures (Kelvin)      0.06857     0.01329     0.01113
 Rotational constants (GHZ):           1.42866     0.27699     0.23201
    1 imaginary frequencies ignored.
 Zero-point vibrational energy     491837.0 (Joules/Mol)
                                  117.55187 (Kcal/Mol)
 Warning -- explicit consideration of  18 degrees of freedom as
           vibrations may cause significant error
 Vibrational temperatures:     73.15   162.31   185.46   262.44   326.61
          (Kelvin)            388.61   395.85   420.33   496.39   564.75
                              614.09   642.76   730.49   739.56   783.04
                              783.40   805.81   816.94   919.33   922.57
                              999.05  1042.18  1061.68  1074.54  1086.94
                             1103.59  1190.31  1197.42  1251.72  1270.64
                             1290.82  1368.64  1379.31  1398.28  1445.02
                             1517.56  1527.94  1580.13  1604.09  1665.73
                             1677.63  1697.68  1762.25  1824.70  1846.80
                             1868.34  1923.57  1956.27  2010.87  2042.80
                             2087.10  2124.99  2173.64  2190.09  2233.83
                             2299.06  2337.05  2389.12  2400.45  4607.37
                             4616.52  4620.21  4633.64  4635.24  4646.43
                             4652.50  4659.42  5301.75

 Zero-point correction=                           0.187331 (Hartree/Particle)
 Thermal correction to Energy=                    0.198885
 Thermal correction to Enthalpy=                  0.199830
 Thermal correction to Gibbs Free Energy=         0.149443
 Sum of electronic and zero-point Energies=          -1028.508939
 Sum of electronic and thermal Energies=             -1028.497384
 Sum of electronic and thermal Enthalpies=           -1028.496440
 Sum of electronic and thermal Free Energies=        -1028.546826

                     E (Thermal)             CV                S
                      KCal/Mol        Cal/Mol-Kelvin    Cal/Mol-Kelvin
 Total                  124.802             47.837            106.046
 Electronic               0.000              0.000              0.000
 Translational            0.889              2.981             42.162
 Rotational               0.889              2.981             32.526
 Vibrational            123.025             41.875             31.358
 Vibration     1          0.595              1.977              4.784
 Vibration     2          0.607              1.939              3.220
 Vibration     3          0.611              1.924              2.962
 Vibration     4          0.630              1.864              2.304
 Vibration     5          0.651              1.800              1.902
 Vibration     6          0.674              1.728              1.596
 Vibration     7          0.677              1.719              1.564
 Vibration     8          0.688              1.688              1.461
 Vibration     9          0.723              1.585              1.189
 Vibration    10          0.760              1.486              0.991
 Vibration    11          0.788              1.412              0.869
 Vibration    12          0.806              1.368              0.806
 Vibration    13          0.863              1.233              0.639
 Vibration    14          0.869              1.219              0.624
 Vibration    15          0.899              1.152              0.556
 Vibration    16          0.900              1.152              0.556
 Vibration    17          0.916              1.118              0.524
 Vibration    18          0.924              1.101              0.508

 Optimization completed.
    -- Stationary point found.
 Normal termination of Gaussian 16 at Tue Jul 14 17:11:35 2020.
