 Gaussian 16, Revision C.01,
 Gaussian 16:  ES64L-G16RevC.01  3-Jul-2019

 ----------------------------------------------------------------------
 #p opt=addgic freq td wb97xd/cc-pvdz nosymm int=ultrafine scrf=(solven
 t=CarbonTetraChloride)
 ----------------------------------------------------------------------

 ------------------------------------------------
 NM 2D-scan of HBT TD-WB97XD pVDZ in CTC Relaxed.
 ------------------------------------------------
 Symbolic Z-matrix:
 Charge =  0 Multiplicity = 1

 SCF Done:  E(RwB97XD) =  -1028.79221386     A.U. after   15 cycles
 Total Energy, E(TD-HF/TD-DFT) =  -1028.66273794
 SCF Done:  E(RwB97XD) =  -1028.81153839     A.U. after   13 cycles
 Total Energy, E(TD-HF/TD-DFT) =  -1028.68335348
 SCF Done:  E(RwB97XD) =  -1028.81115401     A.U. after   13 cycles
 Total Energy, E(TD-HF/TD-DFT) =  -1028.68499874
 SCF Done:  E(RwB97XD) =  -1028.81171944     A.U. after   11 cycles
 Total Energy, E(TD-HF/TD-DFT) =  -1028.68544933
 SCF Done:  E(RwB97XD) =  -1028.81180028     A.U. after   10 cycles
 Total Energy, E(TD-HF/TD-DFT) =  -1028.68546248
 SCF Done:  E(RwB97XD) =  -1028.81180388     A.U. after    9 cycles
 Total Energy, E(TD-HF/TD-DFT) =  -1028.68546461
 SCF Done:  E(RwB97XD) =  -1028.81181392     A.U. after    7 cycles
 Total Energy, E(TD-HF/TD-DFT) =  -1028.68546474
 SCF Done:  E(RwB97XD) =  -1028.81181730     A.U. after    6 cycles
 Total Energy, E(TD-HF/TD-DFT) =  -1028.68546483
 Optimization completed.
    -- Stationary point found.
 Normal termination of Gaussian 16 at Mon Jul 13 14:18:43 2020.

 ----------------------------------------------------------------------
 #P Geom=AllCheck Guess=TCheck SCRF=Check GenChk RwB97XD TD(FC,Read)/CC
 -pVDZ Freq
 ----------------------------------------------------------------------

 Structure from the checkpoint file:  "config_4_1.chk"
 ------------------------------------------------
 NM 2D-scan of HBT TD-WB97XD pVDZ in CTC Relaxed.
 ------------------------------------------------
 Charge =  0 Multiplicity = 1

                          Input orientation:
 ---------------------------------------------------------------------
 Center     Atomic      Atomic             Coordinates (Angstroms)
 Number     Number       Type             X           Y           Z
 ---------------------------------------------------------------------
      1          6           0        1.763816   -3.290657   -0.000045
      2          6           0        0.984497   -2.131387   -0.000017
      3          6           0        1.630827   -0.854293    0.000014
      4          6           0        3.044088   -0.750259    0.000023
      5          6           0        3.792998   -1.903176   -0.000006
      6          6           0        3.159137   -3.164898   -0.000041
      7          1           0        1.305979   -4.280795   -0.000070
      8          1           0        3.494927    0.242690    0.000048
      9          1           0        4.883002   -1.847962   -0.000004
     10          1           0        3.769745   -4.069265   -0.000064
     11          7           0        0.837695    0.210205    0.000031
     12         16           0       -0.769140   -1.888814   -0.000017
     13          6           0       -1.410087    0.998243   -0.000005
     14          6           0       -2.831221    0.911277   -0.000012
     15          6           0       -0.874181    2.393273    0.000001
     16          6           0       -3.634781    2.046878    0.000031
     17          1           0       -3.298585   -0.075009   -0.000038
     18          6           0       -1.721730    3.509966    0.000059
     19          6           0       -3.095274    3.355656    0.000077
     20          1           0       -4.718996    1.921828    0.000033
     21          1           0       -1.239891    4.488022    0.000073
     22          1           0       -3.752746    4.225093    0.000118
     23          6           0       -0.486155   -0.083458    0.000005
     24          8           0        0.409526    2.676810   -0.000057
     25          1           0        0.897065    1.788587   -0.000045
 ---------------------------------------------------------------------

 SCF Done:  E(RwB97XD) =  -1028.81181730     A.U. after    1 cycles

 Excitation energies and oscillator strengths:

 Excited state symmetry could not be determined.
 Excited State   1:      Singlet-?Sym    3.4382 eV  360.61 nm  f=0.6577  <S**2>=0.000
      59 -> 60         0.69042
 This state for optimization and/or second-order correction.
 Total Energy, E(TD-HF/TD-DFT) =  -1028.68546479
 Copying the excited state density for this state as the 1-particle RhoCI density.

 Excited state symmetry could not be determined.
 Excited State   2:      Singlet-?Sym    4.3791 eV  283.13 nm  f=0.2780  <S**2>=0.000
      57 -> 60         0.18378
      58 -> 60         0.63806
      59 -> 63         0.11962
      59 -> 64         0.12244

 Excited state symmetry could not be determined.
 Excited State   3:      Singlet-?Sym    4.5893 eV  270.16 nm  f=0.0375  <S**2>=0.000
      56 -> 61        -0.10149
      57 -> 60         0.58265
      57 -> 63        -0.14162
      58 -> 60        -0.17322
      58 -> 61        -0.14158
      59 -> 61         0.24935

 Alpha  occ. eigenvalues --  -89.09410 -19.28007 -14.46886 -10.40228 -10.38128
 Alpha  occ. eigenvalues --  -10.35116 -10.34826 -10.33096 -10.32450 -10.32271
 Alpha  occ. eigenvalues --  -10.31770 -10.31551 -10.31391 -10.31330 -10.30338
 Alpha  occ. eigenvalues --  -10.30028  -8.11209  -6.06081  -6.05737  -6.05253
 Alpha  occ. eigenvalues --   -1.16993  -1.08489  -0.96618  -0.95455  -0.91347
 Alpha  occ. eigenvalues --   -0.88802  -0.84802  -0.84291  -0.82338  -0.75972
 Alpha  occ. eigenvalues --   -0.70948  -0.70180  -0.69001  -0.68293  -0.63215
 Alpha  occ. eigenvalues --   -0.60332  -0.58768  -0.58522  -0.55714  -0.54351
 Alpha  occ. eigenvalues --   -0.53708  -0.53010  -0.52611  -0.51140  -0.50279
 Alpha  occ. eigenvalues --   -0.49352  -0.47917  -0.45861  -0.45495  -0.44684
 Alpha  occ. eigenvalues --   -0.43628  -0.42764  -0.42380  -0.39977  -0.37019
 Alpha  occ. eigenvalues --   -0.36435  -0.32303  -0.31304  -0.27847
 Alpha virt. eigenvalues --   -0.01831   0.05030   0.06943   0.07060   0.07192
 Alpha virt. eigenvalues --    0.11071   0.12372   0.15090   0.15768   0.17855
 Alpha virt. eigenvalues --    0.18653   0.20776   0.21702   0.22308   0.22645

 Mulliken charges:
               1
     1  C    0.004451
     2  C   -0.225711
     3  C    0.250174
     4  C   -0.015795
     5  C    0.010787
     6  C   -0.009052
     7  H    0.020453
     8  H    0.017936
     9  H    0.019129
    10  H    0.021212
    11  N   -0.348551
    12  S    0.152762
    13  C   -0.108094
    14  C   -0.013902
    15  C    0.093842
    16  C   -0.018098
    17  H    0.009100
    18  C    0.012196
    19  C    0.022711
    20  H    0.011233
    21  H    0.017657
    22  H    0.021573
    23  C    0.080882
    24  O   -0.202836
    25  H    0.175941
 Sum of Mulliken charges =  -0.00000

 Dipole moment (field-independent basis, Debye):
    X=             -0.0832    Y=             -1.9577    Z=              0.0000  Tot=              1.9595
 Quadrupole moment (field-independent basis, Debye-Ang):
   XX=            -83.2684   YY=            -89.1537   ZZ=           -104.5341
   XY=             -6.8587   XZ=             -0.0001   YZ=              0.0006

  Exact polarizability:     402.174    -188.093     381.192      -0.002       0.004      63.592
 Approx polarizability:     280.638     -36.396     263.882      -0.001       0.003      82.547

                      1                      2                      3
                      A                      A                      A
 Frequencies --     30.0373                43.0510               105.5492
 Red. masses --      5.7964                 7.0460                 4.4634
 Frc consts  --      0.0031                 0.0077                 0.0293
 IR Inten    --      1.4045                 0.0480                 0.3083

                      4                      5                      6
                      A                      A                      A
 Frequencies --    112.0702               179.3937               223.2918
 Red. masses --      5.6303                 6.3112                 5.3335
 Frc consts  --      0.0417                 0.1197                 0.1567
 IR Inten    --      1.9311                 0.7550                 0.0074

                      7                      8                      9
                      A                      A                      A
 Frequencies --    264.2409               266.2386               301.8658
 Red. masses --      7.7877                 4.8172                 6.6993
 Frc consts  --      0.3204                 0.2012                 0.3597
 IR Inten    --     22.8389                 0.2413                 6.5706

                     10                     11                     12
                      A                      A                      A
 Frequencies --    389.2490               391.2558               437.0193
 Red. masses --      8.8851                 4.7746                 3.2316
 Frc consts  --      0.7932                 0.4306                 0.3636
 IR Inten    --     12.1759                 0.2876                 4.8503

                     13                     14                     15
                      A                      A                      A
 Frequencies --    490.6464               494.7573               499.7464
 Red. masses --      4.6143                 5.8859                 3.1407
 Frc consts  --      0.6545                 0.8489                 0.4621
 IR Inten    --      0.2242                18.6580                 0.0117

                     16                     17                     18
                      A                      A                      A
 Frequencies --    504.6170               525.8215               549.2544
 Red. masses --      6.2582                 7.9801                 3.9309
 Frc consts  --      0.9389                 1.3000                 0.6987
 IR Inten    --     11.7057                18.5122                 0.1624

                     19                     20                     21
                      A                      A                      A
 Frequencies --    579.7146               634.2154               671.4326
 Red. masses --      7.6692                 7.0143                 8.0716
 Frc consts  --      1.5186                 1.6623                 2.1440
 IR Inten    --     38.9371                65.5836                 7.7156

                     22                     23                     24
                      A                      A                      A
 Frequencies --    706.8482               711.3844               733.0886
 Red. masses --      7.3878                 1.8799                 1.8855
 Frc consts  --      2.1748                 0.5605                 0.5970
 IR Inten    --     11.0464                37.9638                27.5203

                     25                     26                     27
                      A                      A                      A
 Frequencies --    753.9606               769.3539               798.8191
 Red. masses --      1.8239                 2.0334                 6.6102
 Frc consts  --      0.6109                 0.7091                 2.4852
 IR Inten    --     32.5751                53.5991                13.6727

                     28                     29                     30
                      A                      A                      A
 Frequencies --    827.5869               856.2397               893.1285
 Red. masses --      1.5764                 1.4314                 6.3943
 Frc consts  --      0.6361                 0.6183                 3.0052
 IR Inten    --      0.5250                 0.6722                41.4043

                     31                     32                     33
                      A                      A                      A
 Frequencies --    922.5391               950.9076               952.1807
 Red. masses --      1.3435                 1.3451                 7.0510
 Frc consts  --      0.6737                 0.7166                 3.7665
 IR Inten    --      8.8446                 1.3172                11.8642

                     34                     35                     36
                      A                      A                      A
 Frequencies --    964.7151               982.6342               997.8875
 Red. masses --      1.3558                 1.0756                 1.2972
 Frc consts  --      0.7434                 0.6119                 0.7610
 IR Inten    --      0.7548                63.9356                 0.4019

                     37                     38                     39
                      A                      A                      A
 Frequencies --   1036.9404              1038.4456              1064.9519
 Red. masses --      2.2882                 2.1779                 4.6303
 Frc consts  --      1.4496                 1.3838                 3.0940
 IR Inten    --      3.5681                 0.4996                36.9011

                     40                     41                     42
                      A                      A                      A
 Frequencies --   1131.7220              1146.1147              1173.3787
 Red. masses --      1.5053                 1.3041                 1.1330
 Frc consts  --      1.1359                 1.0093                 0.9191
 IR Inten    --     56.2282                14.5756                 2.8810

                     43                     44                     45
                      A                      A                      A
 Frequencies --   1175.5653              1228.8789              1241.1650
 Red. masses --      1.1771                 3.5836                 2.0738
 Frc consts  --      0.9584                 3.1885                 1.8823
 IR Inten    --     40.5917               177.8283                74.0783

                     46                     47                     48
                      A                      A                      A
 Frequencies --   1276.9554              1287.4932              1363.3090
 Red. masses --      1.7083                 2.7488                 3.1775
 Frc consts  --      1.6412                 2.6846                 3.4795
 IR Inten    --     39.5561               236.9880                71.3970

                     49                     50                     51
                      A                      A                      A
 Frequencies --   1374.3679              1402.3017              1439.3098
 Red. masses --      4.2232                 2.0578                 2.5103
 Frc consts  --      4.7000                 2.3842                 3.0639
 IR Inten    --     29.8011                 5.6395               154.0599

                     52                     53                     54
                      A                      A                      A
 Frequencies --   1474.8759              1500.3638              1513.6401
 Red. masses --      3.0573                 2.5422                 5.7347
 Frc consts  --      3.9183                 3.3717                 7.7412
 IR Inten    --    107.4450               259.2852               466.6187

                     55                     56                     57
                      A                      A                      A
 Frequencies --   1520.3799              1548.0491              1583.5598
 Red. masses --      4.8952                 4.9127                 2.8750
 Frc consts  --      6.6670                 6.9365                 4.2478
 IR Inten    --    105.0827               338.1928               196.9941

                     58                     59                     60
                      A                      A                      A
 Frequencies --   1612.7822              1630.4066              1654.9016
 Red. masses --      3.5239                 5.2087                 5.7131
 Frc consts  --      5.4005                 8.1577                 9.2186
 IR Inten    --     38.5532               485.4953               141.5147

                     61                     62                     63
                      A                      A                      A
 Frequencies --   2802.4006              3204.0970              3206.9457
 Red. masses --      1.0769                 1.0866                 1.0857
 Frc consts  --      4.9831                 6.5728                 6.5784
 IR Inten    --    156.3875                 6.3967                 5.4066

                     64                     65                     66
                      A                      A                      A
 Frequencies --   3215.5817              3217.8697              3226.2157
 Red. masses --      1.0897                 1.0905                 1.0953
 Frc consts  --      6.6386                 6.6530                 6.7172
 IR Inten    --      3.6338                 3.6469                13.2478

                     67                     68                     69
                      A                      A                      A
 Frequencies --   3226.3351              3234.0320              3239.9748
 Red. masses --      1.0923                 1.0998                 1.0990
 Frc consts  --      6.6990                 6.7769                 6.7970
 IR Inten    --     20.5299                36.9714                21.9782

 - Thermochemistry -
 -------------------
 Temperature   298.150 Kelvin.  Pressure   1.00000 Atm.
 Atom     1 has atomic number  6 and mass  12.00000

 Molecular mass:   227.04049 amu.
 Principal axes and moments of inertia in atomic units:
                           1         2         3
     Eigenvalues --  1369.746616344.402837714.14944
           X           -0.69651   0.71754   0.00000
           Y            0.71754   0.69651  -0.00001
           Z            0.00001   0.00000   1.00000
 This molecule is an asymmetric top.
 Rotational symmetry number  1.
 Warning -- assumption of classical behavior for rotation
           may cause significant error
 Rotational temperatures (Kelvin)      0.06323     0.01365     0.01123
 Rotational constants (GHZ):           1.31757     0.28446     0.23395
 Zero-point vibrational energy     487526.4 (Joules/Mol)
                                  116.52161 (Kcal/Mol)
 Warning -- explicit consideration of  19 degrees of freedom as
           vibrations may cause significant error
 Vibrational temperatures:     43.22    61.94   151.86   161.24   258.11
          (Kelvin)            321.27   380.18   383.06   434.32   560.04
                              562.93   628.77   705.93   711.85   719.02
                              726.03   756.54   790.25   834.08   912.49
                              966.04  1017.00  1023.52  1054.75  1084.78
                             1106.93  1149.32  1190.71  1231.94  1285.01
                             1327.33  1368.14  1369.98  1388.01  1413.79
                             1435.74  1491.93  1494.09  1532.23  1628.30
                             1649.00  1688.23  1691.38  1768.08  1785.76
                             1837.25  1852.42  1961.50  1977.41  2017.60
                             2070.85  2122.02  2158.69  2177.79  2187.49
                             2227.30  2278.39  2320.43  2345.79  2381.03
                             4032.03  4609.98  4614.08  4626.50  4629.80
                             4641.80  4641.98  4653.05  4661.60

 Zero-point correction=                           0.185689 (Hartree/Particle)
 Thermal correction to Energy=                    0.198119
 Thermal correction to Enthalpy=                  0.199063
 Thermal correction to Gibbs Free Energy=         0.145627
 Sum of electronic and zero-point Energies=          -1028.499776
 Sum of electronic and thermal Energies=             -1028.487346
 Sum of electronic and thermal Enthalpies=           -1028.486402
 Sum of electronic and thermal Free Energies=        -1028.539837

                     E (Thermal)             CV                S
                      KCal/Mol        Cal/Mol-Kelvin    Cal/Mol-Kelvin
 Total                  124.321             49.559            112.465
 Electronic               0.000              0.000              0.000
 Translational            0.889              2.981             42.162
 Rotational               0.889              2.981             32.572
 Vibrational            122.544             43.597             37.731
 Vibration     1          0.594              1.984              5.827
 Vibration     2          0.595              1.980              5.113
 Vibration     3          0.605              1.945              3.349
 Vibration     4          0.607              1.939              3.233
 Vibration     5          0.629              1.868              2.335
 Vibration     6          0.649              1.806              1.932
 Vibration     7          0.671              1.738              1.634
 Vibration     8          0.672              1.735              1.621
 Vibration     9          0.694              1.670              1.407
 Vibration    10          0.757              1.493              1.003
 Vibration    11          0.759              1.489              0.995
 Vibration    12          0.797              1.389              0.836
 Vibration    13          0.846              1.271              0.682
 Vibration    14          0.850              1.262              0.671
 Vibration    15          0.855              1.251              0.659
 Vibration    16          0.860              1.240              0.647
 Vibration    17          0.881              1.193              0.597
 Vibration    18          0.905              1.141              0.546
 Vibration    19          0.936              1.075              0.486

 Optimization completed.
    -- Stationary point found.
 Normal termination of Gaussian 16 at Mon Jul 13 14:36:31 2020.
