 Gaussian 16, Revision C.01,
 Gaussian 16:  ES64L-G16RevC.01  3-Jul-2019

 ----------------------------------------------------------------------
 #p opt=addgic freq td wb97xd/cc-pvdz nosymm int=ultrafine scrf=(solven
 t=CarbonTetraChloride)
 ----------------------------------------------------------------------

 ------------------------------------------------
 NM 2D-scan of HBT TD-WB97XD pVDZ in CTC Relaxed.
 ------------------------------------------------
 Symbolic Z-matrix:
 Charge =  0 Multiplicity = 1

 SCF Done:  E(RwB97XD) =  -1028.81301960     A.U. after   15 cycles
 Total Energy, E(TD-HF/TD-DFT) =  -1028.68579321
 SCF Done:  E(RwB97XD) =  -1028.81448596     A.U. after   12 cycles
 Total Energy, E(TD-HF/TD-DFT) =  -1028.68748540
 SCF Done:  E(RwB97XD) =  -1028.81380464     A.U. after   12 cycles
 Total Energy, E(TD-HF/TD-DFT) =  -1028.68830180
 SCF Done:  E(RwB97XD) =  -1028.81389223     A.U. after   11 cycles
 Total Energy, E(TD-HF/TD-DFT) =  -1028.68842880
 SCF Done:  E(RwB97XD) =  -1028.81397419     A.U. after   10 cycles
 Total Energy, E(TD-HF/TD-DFT) =  -1028.68843607
 SCF Done:  E(RwB97XD) =  -1028.81399381     A.U. after    8 cycles
 Total Energy, E(TD-HF/TD-DFT) =  -1028.68843640
 SCF Done:  E(RwB97XD) =  -1028.81402883     A.U. after    8 cycles
 Total Energy, E(TD-HF/TD-DFT) =  -1028.68843630
 SCF Done:  E(RwB97XD) =  -1028.81400335     A.U. after    8 cycles
 Total Energy, E(TD-HF/TD-DFT) =  -1028.68843682
 Optimization completed.
    -- Stationary point found.
 Normal termination of Gaussian 16 at Mon Jul 13 14:15:25 2020.

 ----------------------------------------------------------------------
 #P Geom=AllCheck Guess=TCheck SCRF=Check GenChk RwB97XD TD(FC,Read)/CC
 -pVDZ Freq
 ----------------------------------------------------------------------

 Structure from the checkpoint file:  "config_5_2.chk"
 ------------------------------------------------
 NM 2D-scan of HBT TD-WB97XD pVDZ in CTC Relaxed.
 ------------------------------------------------
 Charge =  0 Multiplicity = 1

                          Input orientation:
 ---------------------------------------------------------------------
 Center     Atomic      Atomic             Coordinates (Angstroms)
 Number     Number       Type             X           Y           Z
 ---------------------------------------------------------------------
      1          6           0        1.748533   -3.279125   -0.000048
      2          6           0        0.993624   -2.105937   -0.000014
      3          6           0        1.649993   -0.838559    0.000017
      4          6           0        3.062364   -0.757621    0.000019
      5          6           0        3.792126   -1.926719   -0.000017
      6          6           0        3.144054   -3.178752   -0.000051
      7          1           0        1.268695   -4.258690   -0.000074
      8          1           0        3.535476    0.224894    0.000044
      9          1           0        4.882817   -1.886382   -0.000020
     10          1           0        3.741199   -4.091870   -0.000079
     11          7           0        0.846290    0.225580    0.000042
     12         16           0       -0.757104   -1.857326   -0.000007
     13          6           0       -1.411191    0.999571    0.000009
     14          6           0       -2.823647    0.896304    0.000001
     15          6           0       -0.871502    2.390169    0.000010
     16          6           0       -3.637666    2.029738    0.000026
     17          1           0       -3.283460   -0.093494   -0.000015
     18          6           0       -1.729240    3.504104    0.000046
     19          6           0       -3.104800    3.338722    0.000056
     20          1           0       -4.720977    1.897332    0.000026
     21          1           0       -1.257365    4.487094    0.000053
     22          1           0       -3.767911    4.203839    0.000080
     23          6           0       -0.476965   -0.073577    0.000021
     24          8           0        0.410942    2.634432   -0.000028
     25          1           0        0.881584    1.694534   -0.000005
 ---------------------------------------------------------------------

 SCF Done:  E(RwB97XD) =  -1028.81400335     A.U. after    1 cycles

 Excitation energies and oscillator strengths:

 Excited state symmetry could not be determined.
 Excited State   1:      Singlet-?Sym    3.4168 eV  362.86 nm  f=0.6094  <S**2>=0.000
      59 -> 60         0.69097
 This state for optimization and/or second-order correction.
 Total Energy, E(TD-HF/TD-DFT) =  -1028.68843684
 Copying the excited state density for this state as the 1-particle RhoCI density.

 Excited state symmetry could not be determined.
 Excited State   2:      Singlet-?Sym    4.3851 eV  282.74 nm  f=0.3202  <S**2>=0.000
      57 -> 60         0.16181
      58 -> 60         0.64839
      59 -> 62         0.10980
      59 -> 64         0.11986

 Excited state symmetry could not be determined.
 Excited State   3:      Singlet-?Sym    4.6361 eV  267.43 nm  f=0.0366  <S**2>=0.000
      56 -> 61        -0.10545
      57 -> 60         0.58354
      57 -> 62        -0.14533
      58 -> 60        -0.15479
      58 -> 61        -0.16133
      59 -> 61         0.24492

 Alpha  occ. eigenvalues --  -89.09507 -19.27213 -14.47232 -10.40338 -10.37902
 Alpha  occ. eigenvalues --  -10.35169 -10.35099 -10.32744 -10.32507 -10.32194
 Alpha  occ. eigenvalues --  -10.31712 -10.31616 -10.31564 -10.31475 -10.30216
 Alpha  occ. eigenvalues --  -10.29913  -8.11354  -6.06223  -6.05874  -6.05400
 Alpha  occ. eigenvalues --   -1.16407  -1.08770  -0.96750  -0.95442  -0.91642
 Alpha  occ. eigenvalues --   -0.88841  -0.84919  -0.84206  -0.82383  -0.75950
 Alpha  occ. eigenvalues --   -0.71005  -0.70215  -0.68944  -0.68376  -0.63294
 Alpha  occ. eigenvalues --   -0.60518  -0.58828  -0.58490  -0.55657  -0.54342
 Alpha  occ. eigenvalues --   -0.53967  -0.53083  -0.52650  -0.51193  -0.50140
 Alpha  occ. eigenvalues --   -0.49568  -0.47695  -0.45983  -0.45517  -0.44753
 Alpha  occ. eigenvalues --   -0.43735  -0.42646  -0.42555  -0.40136  -0.36596
 Alpha  occ. eigenvalues --   -0.36478  -0.32421  -0.31220  -0.27823
 Alpha virt. eigenvalues --   -0.01782   0.04901   0.07002   0.07052   0.07404
 Alpha virt. eigenvalues --    0.10935   0.12743   0.15078   0.15871   0.17900
 Alpha virt. eigenvalues --    0.18705   0.20867   0.21706   0.22383   0.22547

 Mulliken charges:
               1
     1  C    0.007791
     2  C   -0.230764
     3  C    0.259123
     4  C   -0.015669
     5  C    0.010557
     6  C   -0.007127
     7  H    0.020503
     8  H    0.019895
     9  H    0.020109
    10  H    0.021687
    11  N   -0.345858
    12  S    0.160977
    13  C   -0.110699
    14  C   -0.015486
    15  C    0.100538
    16  C   -0.020944
    17  H    0.008307
    18  C    0.005622
    19  C    0.024698
    20  H    0.010153
    21  H    0.016025
    22  H    0.021092
    23  C    0.081692
    24  O   -0.231249
    25  H    0.189027
 Sum of Mulliken charges =  -0.00000

 Dipole moment (field-independent basis, Debye):
    X=              0.0372    Y=             -2.3662    Z=             -0.0000  Tot=              2.3665
 Quadrupole moment (field-independent basis, Debye-Ang):
   XX=            -83.3218   YY=            -89.5717   ZZ=           -104.4503
   XY=             -6.9093   XZ=             -0.0001   YZ=              0.0005

  Exact polarizability:     392.510    -176.733     364.733      -0.002       0.004      63.501
 Approx polarizability:     278.737     -35.880     262.477      -0.001       0.003      82.484

                      1                      2                      3
                      A                      A                      A
 Frequencies --      8.7719                42.0690               104.4316
 Red. masses --      6.6246                 6.5531                 4.4623
 Frc consts  --      0.0003                 0.0068                 0.0287
 IR Inten    --      0.4890                 1.0739                 0.1893

                      4                      5                      6
                      A                      A                      A
 Frequencies --    104.5416               176.9351               222.9204
 Red. masses --      5.4555                 6.0643                 5.3246
 Frc consts  --      0.0351                 0.1119                 0.1559
 IR Inten    --      0.8215                 0.7403                 0.0236

                      7                      8                      9
                      A                      A                      A
 Frequencies --    266.8587               267.9656               296.5426
 Red. masses --      7.6148                 4.8047                 5.9431
 Frc consts  --      0.3195                 0.2033                 0.3079
 IR Inten    --     21.8913                 0.2153                12.5649

                     10                     11                     12
                      A                      A                      A
 Frequencies --    385.8404               393.4700               436.9637
 Red. masses --      4.7948                 8.8918                 3.2182
 Frc consts  --      0.4206                 0.8111                 0.3620
 IR Inten    --      0.3274                 9.7226                 4.9024

                     13                     14                     15
                      A                      A                      A
 Frequencies --    487.1775               489.9319               497.0771
 Red. masses --      4.6680                 4.4322                 3.1586
 Frc consts  --      0.6528                 0.6268                 0.4598
 IR Inten    --      0.1135                13.1446                 0.0578

                     16                     17                     18
                      A                      A                      A
 Frequencies --    504.1121               527.0992               552.2767
 Red. masses --      7.7795                 8.4931                 3.9359
 Frc consts  --      1.1648                 1.3903                 0.7073
 IR Inten    --      1.4476                25.2234                 0.1568

                     19                     20                     21
                      A                      A                      A
 Frequencies --    580.0856               634.7425               689.3882
 Red. masses --      7.5632                 6.9091                 7.4796
 Frc consts  --      1.4995                 1.6401                 2.0944
 IR Inten    --     13.1659                60.2455                 3.8116

                     22                     23                     24
                      A                      A                      A
 Frequencies --    706.0204               718.4075               735.7461
 Red. masses --      1.7727                 8.5220                 1.9314
 Frc consts  --      0.5206                 2.5914                 0.6160
 IR Inten    --     39.2617                14.5614                25.3134

                     25                     26                     27
                      A                      A                      A
 Frequencies --    757.2583               768.5988               805.8014
 Red. masses --      1.8932                 1.9887                 6.4256
 Frc consts  --      0.6396                 0.6922                 2.4582
 IR Inten    --     30.8341                54.9892                 9.7225

                     28                     29                     30
                      A                      A                      A
 Frequencies --    824.8306               857.5720               899.0731
 Red. masses --      1.5924                 1.4244                 6.4311
 Frc consts  --      0.6383                 0.6172                 3.0629
 IR Inten    --      0.0703                 0.9235                42.9495

                     31                     32                     33
                      A                      A                      A
 Frequencies --    916.8938               951.4941               961.3816
 Red. masses --      1.3547                 1.3449                 6.9194
 Frc consts  --      0.6710                 0.7174                 3.7680
 IR Inten    --      5.7105                 1.6325                14.9402

                     34                     35                     36
                      A                      A                      A
 Frequencies --    961.5127               998.4974              1037.3889
 Red. masses --      1.3686                 1.2974                 2.2400
 Frc consts  --      0.7455                 0.7621                 1.4203
 IR Inten    --      0.4520                 0.0373                 1.6784

                     37                     38                     39
                      A                      A                      A
 Frequencies --   1041.5192              1069.2343              1103.8611
 Red. masses --      2.2008                 4.2586                 1.0616
 Frc consts  --      1.4066                 2.8686                 0.7622
 IR Inten    --      0.8647                45.7155                65.1016

                     40                     41                     42
                      A                      A                      A
 Frequencies --   1126.9391              1145.6498              1171.0481
 Red. masses --      1.5430                 1.3112                 1.1491
 Frc consts  --      1.1545                 1.0140                 0.9284
 IR Inten    --     58.9233                12.7654                32.8834

                     43                     44                     45
                      A                      A                      A
 Frequencies --   1175.9348              1236.1936              1247.8620
 Red. masses --      1.1684                 2.6080                 2.2605
 Frc consts  --      0.9520                 2.3482                 2.0739
 IR Inten    --     24.4979               133.5402                64.5049

                     46                     47                     48
                      A                      A                      A
 Frequencies --   1278.1192              1282.4757              1362.8008
 Red. masses --      3.6365                 1.6843                 2.6731
 Frc consts  --      3.5001                 1.6322                 2.9250
 IR Inten    --    211.9959                 2.9724                 4.0334

                     49                     50                     51
                      A                      A                      A
 Frequencies --   1376.0925              1402.4059              1442.2740
 Red. masses --      4.8852                 2.0548                 2.4481
 Frc consts  --      5.4504                 2.3811                 3.0004
 IR Inten    --    105.0449                 0.1900               135.3995

                     52                     53                     54
                      A                      A                      A
 Frequencies --   1475.6967              1492.5530              1515.8486
 Red. masses --      3.7186                 3.6150                 5.0127
 Frc consts  --      4.7712                 4.7448                 6.7863
 IR Inten    --    130.4845                68.2904               439.0525

                     55                     56                     57
                      A                      A                      A
 Frequencies --   1529.3161              1551.9459              1583.6800
 Red. masses --      3.9189                 4.6492                 3.3783
 Frc consts  --      5.4002                 6.5976                 4.9921
 IR Inten    --    146.0758               524.4906                72.6260

                     58                     59                     60
                      A                      A                      A
 Frequencies --   1616.5046              1642.8371              1658.7831
 Red. masses --      5.7552                 3.3173                 3.6395
 Frc consts  --      8.8606                 5.2751                 5.9002
 IR Inten    --    247.3491               734.1991                10.5373

                     61                     62                     63
                      A                      A                      A
 Frequencies --   2201.2907              3204.4817              3207.6191
 Red. masses --      1.1080                 1.0869                 1.0858
 Frc consts  --      3.1634                 6.5760                 6.5820
 IR Inten    --    405.7271                 8.4119                 7.0034

                     64                     65                     66
                      A                      A                      A
 Frequencies --   3216.7478              3217.7802              3226.1326
 Red. masses --      1.0898                 1.0899                 1.0925
 Frc consts  --      6.6442                 6.6491                 6.6995
 IR Inten    --      3.0407                 2.9793                19.5800

                     67                     68                     69
                      A                      A                      A
 Frequencies --   3227.5561              3234.9481              3239.4468
 Red. masses --      1.0954                 1.0995                 1.0988
 Frc consts  --      6.7232                 6.7789                 6.7937
 IR Inten    --     11.2577                35.5965                19.3692

 - Thermochemistry -
 -------------------
 Temperature   298.150 Kelvin.  Pressure   1.00000 Atm.
 Atom     1 has atomic number  6 and mass  12.00000

 Molecular mass:   227.04049 amu.
 Principal axes and moments of inertia in atomic units:
                           1         2         3
     Eigenvalues --  1349.485776327.340987676.82674
           X           -0.69959   0.71455   0.00000
           Y            0.71455   0.69959  -0.00001
           Z            0.00001   0.00000   1.00000
 This molecule is an asymmetric top.
 Rotational symmetry number  1.
 Warning -- assumption of classical behavior for rotation
           may cause significant error
 Rotational temperatures (Kelvin)      0.06418     0.01369     0.01128
 Rotational constants (GHZ):           1.33735     0.28523     0.23509
 Zero-point vibrational energy     484937.7 (Joules/Mol)
                                  115.90290 (Kcal/Mol)
 Warning -- explicit consideration of  19 degrees of freedom as
           vibrations may cause significant error
 Vibrational temperatures:     12.62    60.53   150.25   150.41   254.57
          (Kelvin)            320.73   383.95   385.54   426.66   555.14
                              566.12   628.69   700.94   704.90   715.18
                              725.30   758.38   794.60   834.61   913.25
                              991.88  1015.81  1033.63  1058.57  1089.53
                             1105.84  1159.37  1186.75  1233.85  1293.57
                             1319.21  1368.99  1383.21  1383.40  1436.62
                             1492.57  1498.51  1538.39  1588.21  1621.41
                             1648.33  1684.88  1691.91  1778.61  1795.40
                             1838.93  1845.20  1960.77  1979.89  2017.75
                             2075.11  2123.20  2147.45  2180.97  2200.34
                             2232.90  2278.56  2325.79  2363.68  2386.62
                             3167.17  4610.53  4615.05  4628.18  4629.67
                             4641.69  4643.73  4654.37  4660.84

 Zero-point correction=                           0.184703 (Hartree/Particle)
 Thermal correction to Energy=                    0.197179
 Thermal correction to Enthalpy=                  0.198124
 Thermal correction to Gibbs Free Energy=         0.143456
 Sum of electronic and zero-point Energies=          -1028.503734
 Sum of electronic and thermal Energies=             -1028.491257
 Sum of electronic and thermal Enthalpies=           -1028.490313
 Sum of electronic and thermal Free Energies=        -1028.544981

                     E (Thermal)             CV                S
                      KCal/Mol        Cal/Mol-Kelvin    Cal/Mol-Kelvin
 Total                  123.732             49.388            115.057
 Electronic               0.000              0.000              0.000
 Translational            0.889              2.981             42.162
 Rotational               0.889              2.981             32.550
 Vibrational            121.954             43.426             40.346
 Vibration     1          0.593              1.987              8.271
 Vibration     2          0.595              1.980              5.159
 Vibration     3          0.605              1.946              3.370
 Vibration     4          0.605              1.946              3.368
 Vibration     5          0.628              1.871              2.361
 Vibration     6          0.649              1.806              1.935
 Vibration     7          0.672              1.734              1.616
 Vibration     8          0.673              1.732              1.609
 Vibration     9          0.690              1.680              1.436
 Vibration    10          0.755              1.500              1.016
 Vibration    11          0.761              1.484              0.987
 Vibration    12          0.797              1.390              0.836
 Vibration    13          0.843              1.278              0.691
 Vibration    14          0.846              1.272              0.684
 Vibration    15          0.853              1.256              0.665
 Vibration    16          0.859              1.241              0.648
 Vibration    17          0.882              1.190              0.594
 Vibration    18          0.908              1.135              0.539
 Vibration    19          0.937              1.074              0.485

 Optimization completed.
    -- Stationary point found.
 Normal termination of Gaussian 16 at Mon Jul 13 14:33:08 2020.
