 Gaussian 16, Revision C.01,
 Gaussian 16:  ES64L-G16RevC.01  3-Jul-2019

 ----------------------------------------------------------------------
 #p opt=addgic freq td wb97xd/cc-pvdz nosymm int=ultrafine scrf=(solven
 t=CarbonTetraChloride)
 ----------------------------------------------------------------------

 ------------------------------------------------
 NM 2D-scan of HBT TD-WB97XD pVDZ in CTC Relaxed.
 ------------------------------------------------
 Symbolic Z-matrix:
 Charge =  0 Multiplicity = 1

 SCF Done:  E(RwB97XD) =  -1028.73550166     A.U. after   15 cycles
 Total Energy, E(TD-HF/TD-DFT) =  -1028.60342204
 SCF Done:  E(RwB97XD) =  -1028.81287076     A.U. after   13 cycles
 Total Energy, E(TD-HF/TD-DFT) =  -1028.68316497
 SCF Done:  E(RwB97XD) =  -1028.81519026     A.U. after   14 cycles
 Total Energy, E(TD-HF/TD-DFT) =  -1028.68809505
 SCF Done:  E(RwB97XD) =  -1028.81927290     A.U. after   13 cycles
 Total Energy, E(TD-HF/TD-DFT) =  -1028.69126620
 SCF Done:  E(RwB97XD) =  -1028.81974339     A.U. after   11 cycles
 Total Energy, E(TD-HF/TD-DFT) =  -1028.69197759
 SCF Done:  E(RwB97XD) =  -1028.81997218     A.U. after   10 cycles
 Total Energy, E(TD-HF/TD-DFT) =  -1028.69200330
 Optimization completed.
    -- Stationary point found.
 Normal termination of Gaussian 16 at Mon Jul 13 17:39:15 2020.

 ----------------------------------------------------------------------
 #P Geom=AllCheck Guess=TCheck SCRF=Check GenChk RwB97XD TD(FC,Read)/CC
 -pVDZ Freq
 ----------------------------------------------------------------------

 Structure from the checkpoint file:  "config_2_11.chk"
 ------------------------------------------------
 NM 2D-scan of HBT TD-WB97XD pVDZ in CTC Relaxed.
 ------------------------------------------------
 Charge =  0 Multiplicity = 1

                          Input orientation:
 ---------------------------------------------------------------------
 Center     Atomic      Atomic             Coordinates (Angstroms)
 Number     Number       Type             X           Y           Z
 ---------------------------------------------------------------------
      1          6           0        1.622564   -3.298045   -0.000013
      2          6           0        0.969228   -2.066848   -0.000008
      3          6           0        1.708923   -0.832661   -0.000020
      4          6           0        3.129195   -0.881331   -0.000036
      5          6           0        3.758101   -2.106860   -0.000042
      6          6           0        3.017529   -3.310742   -0.000030
      7          1           0        1.059126   -4.232008   -0.000007
      8          1           0        3.688214    0.054943   -0.000042
      9          1           0        4.848644   -2.153224   -0.000054
     10          1           0        3.544244   -4.266154   -0.000035
     11          7           0        0.987523    0.291614   -0.000010
     12         16           0       -0.745961   -1.723708    0.000005
     13          6           0       -1.323706    1.053861    0.000017
     14          6           0       -2.729857    0.805931    0.000008
     15          6           0       -0.915290    2.472972    0.000037
     16          6           0       -3.642410    1.844702    0.000014
     17          1           0       -3.084538   -0.226171   -0.000006
     18          6           0       -1.867901    3.496370    0.000043
     19          6           0       -3.222584    3.196597    0.000031
     20          1           0       -4.709560    1.617151    0.000006
     21          1           0       -1.500819    4.522978    0.000061
     22          1           0       -3.961029    3.998834    0.000037
     23          6           0       -0.350362    0.036819    0.000007
     24          8           0        0.354206    2.838260    0.000067
     25          1           0        0.915497    2.013538    0.000081
 ---------------------------------------------------------------------

 SCF Done:  E(RwB97XD) =  -1028.81997218     A.U. after    1 cycles

 Excitation energies and oscillator strengths:

 Excited state symmetry could not be determined.
 Excited State   1:      Singlet-?Sym    3.4822 eV  356.05 nm  f=0.7262  <S**2>=0.000
      59 -> 60         0.68927
 This state for optimization and/or second-order correction.
 Total Energy, E(TD-HF/TD-DFT) =  -1028.69200329
 Copying the excited state density for this state as the 1-particle RhoCI density.

 Excited state symmetry could not be determined.
 Excited State   2:      Singlet-?Sym    4.3878 eV  282.56 nm  f=0.1625  <S**2>=0.000
      57 -> 60         0.35250
      58 -> 60         0.55728
      59 -> 62        -0.16677

 Excited state symmetry could not be determined.
 Excited State   3:      Singlet-?Sym    4.5578 eV  272.03 nm  f=0.0779  <S**2>=0.000
      57 -> 60         0.51973
      57 -> 63        -0.11195
      58 -> 60        -0.34013
      58 -> 61        -0.10766
      59 -> 61         0.22669

 Alpha  occ. eigenvalues --  -89.08914 -19.28901 -14.47011 -10.39727 -10.38306
 Alpha  occ. eigenvalues --  -10.34865 -10.34722 -10.32824 -10.32377 -10.32110
 Alpha  occ. eigenvalues --  -10.32033 -10.31345 -10.31286 -10.31179 -10.30570
 Alpha  occ. eigenvalues --  -10.30429  -8.10835  -6.05685  -6.05350  -6.04894
 Alpha  occ. eigenvalues --   -1.17425  -1.08096  -0.96716  -0.95632  -0.91658
 Alpha  occ. eigenvalues --   -0.88782  -0.85054  -0.84443  -0.82223  -0.75992
 Alpha  occ. eigenvalues --   -0.71170  -0.70122  -0.69133  -0.68266  -0.63457
 Alpha  occ. eigenvalues --   -0.60229  -0.58951  -0.58532  -0.55996  -0.54439
 Alpha  occ. eigenvalues --   -0.53604  -0.53210  -0.52805  -0.50718  -0.50509
 Alpha  occ. eigenvalues --   -0.49205  -0.47898  -0.45867  -0.45540  -0.44752
 Alpha  occ. eigenvalues --   -0.43886  -0.42960  -0.42132  -0.39925  -0.37571
 Alpha  occ. eigenvalues --   -0.36428  -0.32019  -0.31591  -0.27987
 Alpha virt. eigenvalues --   -0.01862   0.05239   0.06931   0.07087   0.07414
 Alpha virt. eigenvalues --    0.11233   0.13747   0.15162   0.16249   0.18014
 Alpha virt. eigenvalues --    0.18507   0.20851   0.21619   0.22315   0.22788

 Mulliken charges:
               1
     1  C    0.012795
     2  C   -0.216934
     3  C    0.217255
     4  C   -0.016957
     5  C    0.007682
     6  C   -0.008125
     7  H    0.017594
     8  H    0.015216
     9  H    0.017854
    10  H    0.019923
    11  N   -0.353045
    12  S    0.150210
    13  C   -0.078818
    14  C   -0.020562
    15  C    0.079071
    16  C   -0.009777
    17  H    0.017017
    18  C    0.013998
    19  C    0.021235
    20  H    0.011984
    21  H    0.019949
    22  H    0.023131
    23  C    0.080119
    24  O   -0.189568
    25  H    0.168752
 Sum of Mulliken charges =  -0.00000

 Dipole moment (field-independent basis, Debye):
    X=             -0.5738    Y=             -1.7574    Z=              0.0000  Tot=              1.8487
 Quadrupole moment (field-independent basis, Debye-Ang):
   XX=            -83.1858   YY=            -89.1068   ZZ=           -104.4359
   XY=             -6.8812   XZ=             -0.0001   YZ=              0.0001

  Exact polarizability:     404.402    -196.243     392.609      -0.003       0.003      63.445
 Approx polarizability:     279.973     -37.077     262.584      -0.001       0.001      82.415

                      1                      2                      3
                      A                      A                      A
 Frequencies --     38.1159                71.0033               108.4829
 Red. masses --      6.0352                 5.4612                 5.6411
 Frc consts  --      0.0052                 0.0162                 0.0391
 IR Inten    --      1.2795                 0.0206                 2.0839

                      4                      5                      6
                      A                      A                      A
 Frequencies --    109.1335               182.1371               223.7868
 Red. masses --      4.9229                 6.7564                 5.4310
 Frc consts  --      0.0345                 0.1321                 0.1603
 IR Inten    --      0.2948                 1.1686                 0.0034

                      7                      8                      9
                      A                      A                      A
 Frequencies --    264.1107               269.7368               292.5732
 Red. masses --      7.9641                 4.8298                 6.6602
 Frc consts  --      0.3273                 0.2070                 0.3359
 IR Inten    --     21.4292                 0.0826                 8.0483

                     10                     11                     12
                      A                      A                      A
 Frequencies --    393.5651               398.4778               439.1593
 Red. masses --      4.5810                 8.9849                 3.2975
 Frc consts  --      0.4181                 0.8406                 0.3747
 IR Inten    --      0.0903                13.4800                 4.1068

                     13                     14                     15
                      A                      A                      A
 Frequencies --    492.9605               496.2964               507.6254
 Red. masses --      4.4537                 7.1733                 3.1514
 Frc consts  --      0.6377                 1.0410                 0.4785
 IR Inten    --      0.2042                11.4392                 0.1386

                     16                     17                     18
                      A                      A                      A
 Frequencies --    509.3286               524.6008               550.2830
 Red. masses --      5.5286                 8.0123                 3.9965
 Frc consts  --      0.8450                 1.2992                 0.7130
 IR Inten    --     24.6898                18.9653                 0.1766

                     19                     20                     21
                      A                      A                      A
 Frequencies --    577.4016               643.2436               676.4697
 Red. masses --      7.7020                 6.5735                 9.8100
 Frc consts  --      1.5129                 1.6025                 2.6449
 IR Inten    --     53.8330                23.1375                45.8469

                     22                     23                     24
                      A                      A                      A
 Frequencies --    710.2325               720.4317               735.8207
 Red. masses --      6.8050                 1.7605                 1.8591
 Frc consts  --      2.0224                 0.5383                 0.5931
 IR Inten    --     12.8122                50.2194                37.6344

                     25                     26                     27
                      A                      A                      A
 Frequencies --    745.6617               772.4959               809.3488
 Red. masses --      1.8705                 2.0973                 6.4312
 Frc consts  --      0.6128                 0.7374                 2.4821
 IR Inten    --     21.4649                51.6102                20.5488

                     28                     29                     30
                      A                      A                      A
 Frequencies --    820.5419               860.4870               885.3839
 Red. masses --      1.6605                 1.4210                 6.3651
 Frc consts  --      0.6587                 0.6199                 2.9398
 IR Inten    --      4.2965                 0.1347                59.9198

                     31                     32                     33
                      A                      A                      A
 Frequencies --    886.6854               923.6221               953.2929
 Red. masses --      1.0819                 1.3355                 7.2213
 Frc consts  --      0.5011                 0.6712                 3.8665
 IR Inten    --     70.4220                 0.2176                 6.2058

                     34                     35                     36
                      A                      A                      A
 Frequencies --    954.4733               969.2561               999.9551
 Red. masses --      1.3420                 1.3459                 1.3016
 Frc consts  --      0.7203                 0.7449                 0.7668
 IR Inten    --      2.0234                 0.0101                 0.0000

                     37                     38                     39
                      A                      A                      A
 Frequencies --   1039.0601              1039.5387              1076.3159
 Red. masses --      2.0980                 2.1907                 4.9525
 Frc consts  --      1.3345                 1.3948                 3.3803
 IR Inten    --      2.4273                 2.0984                39.7320

                     40                     41                     42
                      A                      A                      A
 Frequencies --   1136.6551              1149.0876              1175.5749
 Red. masses --      1.4685                 1.3161                 1.1452
 Frc consts  --      1.1179                 1.0239                 0.9324
 IR Inten    --     53.1568                14.8845                 9.7567

                     43                     44                     45
                      A                      A                      A
 Frequencies --   1180.0516              1217.8630              1235.2091
 Red. masses --      1.1872                 5.3891                 1.7033
 Frc consts  --      0.9740                 4.7093                 1.5312
 IR Inten    --     29.2290                41.5069               180.4036

                     46                     47                     48
                      A                      A                      A
 Frequencies --   1276.9641              1308.2737              1360.8044
 Red. masses --      1.6588                 2.9725                 2.8948
 Frc consts  --      1.5937                 2.9976                 3.1583
 IR Inten    --      2.9042               271.1627                67.3090

                     49                     50                     51
                      A                      A                      A
 Frequencies --   1372.2914              1399.8067              1437.1331
 Red. masses --      5.7899                 1.9617                 2.5863
 Frc consts  --      6.4242                 2.2647                 3.1472
 IR Inten    --     25.9338                10.6789               212.3248

                     52                     53                     54
                      A                      A                      A
 Frequencies --   1473.1552              1495.8500              1513.3869
 Red. masses --      3.3948                 2.2339                 4.2073
 Frc consts  --      4.3407                 2.9450                 5.6774
 IR Inten    --     65.3033               197.2085                37.1698

                     55                     56                     57
                      A                      A                      A
 Frequencies --   1540.7516              1566.1993              1587.7887
 Red. masses --      4.6380                 7.1231                 2.9540
 Frc consts  --      6.4871                10.2946                 4.3878
 IR Inten    --     12.2287               362.3813               448.2515

                     58                     59                     60
                      A                      A                      A
 Frequencies --   1601.2060              1629.0696              1649.1746
 Red. masses --      3.6889                 5.2246                 5.6631
 Frc consts  --      5.5725                 8.1693                 9.0748
 IR Inten    --     40.2366               405.0689               203.1987

                     61                     62                     63
                      A                      A                      A
 Frequencies --   3142.0747              3208.3207              3208.5659
 Red. masses --      1.0722                 1.0862                 1.0863
 Frc consts  --      6.2370                 6.5873                 6.5893
 IR Inten    --     23.9927                12.4731                 1.8455

                     64                     65                     66
                      A                      A                      A
 Frequencies --   3218.9586              3220.8705              3228.7764
 Red. masses --      1.0899                 1.0893                 1.0940
 Frc consts  --      6.6538                 6.6582                 6.7198
 IR Inten    --      3.5021                 0.9479                17.5708

                     67                     68                     69
                      A                      A                      A
 Frequencies --   3231.2889              3237.2832              3240.8551
 Red. masses --      1.0954                 1.0989                 1.0986
 Frc consts  --      6.7386                 6.7854                 6.7987
 IR Inten    --     12.1855                40.4336                27.4571

 - Thermochemistry -
 -------------------
 Temperature   298.150 Kelvin.  Pressure   1.00000 Atm.
 Atom     1 has atomic number  6 and mass  12.00000

 Molecular mass:   227.04049 amu.
 Principal axes and moments of inertia in atomic units:
                           1         2         3
     Eigenvalues --  1337.225836361.435987698.66180
           X           -0.69668   0.71738   0.00000
           Y            0.71738   0.69668  -0.00001
           Z            0.00001   0.00000   1.00000
 This molecule is an asymmetric top.
 Rotational symmetry number  1.
 Warning -- assumption of classical behavior for rotation
           may cause significant error
 Rotational temperatures (Kelvin)      0.06477     0.01362     0.01125
 Rotational constants (GHZ):           1.34962     0.28370     0.23442
 Zero-point vibrational energy     489956.8 (Joules/Mol)
                                  117.10249 (Kcal/Mol)
 Warning -- explicit consideration of  19 degrees of freedom as
           vibrations may cause significant error
 Vibrational temperatures:     54.84   102.16   156.08   157.02   262.05
          (Kelvin)            321.98   380.00   388.09   420.95   566.25
                              573.32   631.85   709.26   714.06   730.36
                              732.81   754.78   791.73   830.75   925.48
                              973.29  1021.87  1036.54  1058.68  1072.84
                             1111.45  1164.47  1180.58  1238.05  1273.87
                             1275.74  1328.89  1371.58  1373.27  1394.54
                             1438.71  1494.98  1495.66  1548.58  1635.39
                             1653.28  1691.39  1697.83  1752.23  1777.19
                             1837.27  1882.31  1957.89  1974.42  2014.01
                             2067.71  2119.54  2152.19  2177.43  2216.80
                             2253.41  2284.47  2303.78  2343.87  2372.79
                             4520.74  4616.06  4616.41  4631.36  4634.11
                             4645.49  4649.10  4657.73  4662.87

 Zero-point correction=                           0.186615 (Hartree/Particle)
 Thermal correction to Energy=                    0.198949
 Thermal correction to Enthalpy=                  0.199893
 Thermal correction to Gibbs Free Energy=         0.147204
 Sum of electronic and zero-point Energies=          -1028.505389
 Sum of electronic and thermal Energies=             -1028.493054
 Sum of electronic and thermal Enthalpies=           -1028.492110
 Sum of electronic and thermal Free Energies=        -1028.544799

                     E (Thermal)             CV                S
                      KCal/Mol        Cal/Mol-Kelvin    Cal/Mol-Kelvin
 Total                  124.842             49.523            110.893
 Electronic               0.000              0.000              0.000
 Translational            0.889              2.981             42.162
 Rotational               0.889              2.981             32.549
 Vibrational            123.065             43.562             36.182
 Vibration     1          0.594              1.982              5.355
 Vibration     2          0.598              1.968              4.125
 Vibration     3          0.606              1.942              3.296
 Vibration     4          0.606              1.942              3.284
 Vibration     5          0.630              1.864              2.306
 Vibration     6          0.649              1.805              1.928
 Vibration     7          0.671              1.739              1.634
 Vibration     8          0.674              1.729              1.598
 Vibration     9          0.688              1.688              1.459
 Vibration    10          0.761              1.484              0.987
 Vibration    11          0.765              1.473              0.968
 Vibration    12          0.799              1.385              0.829
 Vibration    13          0.849              1.266              0.676
 Vibration    14          0.852              1.258              0.667
 Vibration    15          0.863              1.233              0.639
 Vibration    16          0.864              1.229              0.635
 Vibration    17          0.880              1.196              0.599
 Vibration    18          0.906              1.139              0.544
 Vibration    19          0.934              1.080              0.490

 Optimization completed.
    -- Stationary point found.
 Normal termination of Gaussian 16 at Mon Jul 13 17:57:00 2020.
