 Gaussian 16, Revision C.01,
 Gaussian 16:  ES64L-G16RevC.01  3-Jul-2019

 ----------------------------------------------------------------------
 #p opt=addgic freq td wb97xd/cc-pvdz nosymm int=ultrafine scrf=(solven
 t=CarbonTetraChloride)
 ----------------------------------------------------------------------

 ------------------------------------------------
 NM 2D-scan of HBT TD-WB97XD pVDZ in CTC Relaxed.
 ------------------------------------------------
 Symbolic Z-matrix:
 Charge =  0 Multiplicity = 1

 SCF Done:  E(RwB97XD) =  -1028.44697528     A.U. after   16 cycles
 Total Energy, E(TD-HF/TD-DFT) =  -1028.34274535
 SCF Done:  E(RwB97XD) =  -1028.68726769     A.U. after   14 cycles
 Total Energy, E(TD-HF/TD-DFT) =  -1028.58583645
 SCF Done:  E(RwB97XD) =  -1028.76982399     A.U. after   15 cycles
 Total Energy, E(TD-HF/TD-DFT) =  -1028.67366031
 SCF Done:  E(RwB97XD) =  -1028.78157674     A.U. after   14 cycles
 Total Energy, E(TD-HF/TD-DFT) =  -1028.68475760
 SCF Done:  E(RwB97XD) =  -1028.78405805     A.U. after   12 cycles
 Total Energy, E(TD-HF/TD-DFT) =  -1028.68577952
 SCF Done:  E(RwB97XD) =  -1028.78445809     A.U. after   12 cycles
 Total Energy, E(TD-HF/TD-DFT) =  -1028.68590600
 SCF Done:  E(RwB97XD) =  -1028.78454586     A.U. after   10 cycles
 Total Energy, E(TD-HF/TD-DFT) =  -1028.68591184
 Optimization completed.
    -- Stationary point found.
 Normal termination of Gaussian 16 at Mon Jul 13 21:22:25 2020.

 ----------------------------------------------------------------------
 #P Geom=AllCheck Guess=TCheck SCRF=Check GenChk RwB97XD TD(FC,Read)/CC
 -pVDZ Freq
 ----------------------------------------------------------------------

 Structure from the checkpoint file:  "config_12_14.chk"
 ------------------------------------------------
 NM 2D-scan of HBT TD-WB97XD pVDZ in CTC Relaxed.
 ------------------------------------------------
 Charge =  0 Multiplicity = 1

                          Input orientation:
 ---------------------------------------------------------------------
 Center     Atomic      Atomic             Coordinates (Angstroms)
 Number     Number       Type             X           Y           Z
 ---------------------------------------------------------------------
      1          6           0        1.610771   -3.298363    0.000309
      2          6           0        1.018831   -2.043286    0.000136
      3          6           0        1.794151   -0.890026   -0.000163
      4          6           0        3.193598   -0.949351   -0.000289
      5          6           0        3.781334   -2.212078   -0.000116
      6          6           0        3.003817   -3.374635    0.000179
      7          1           0        1.001458   -4.201984    0.000531
      8          1           0        3.796975   -0.040184   -0.000515
      9          1           0        4.869613   -2.289654   -0.000211
     10          1           0        3.488897   -4.350986    0.000304
     11          7           0        0.999267    0.223873   -0.000314
     12         16           0       -0.697161   -1.619447    0.000200
     13          6           0       -1.378507    1.118251   -0.000090
     14          6           0       -2.723669    0.819493   -0.000307
     15          6           0       -0.928992    2.521542    0.000254
     16          6           0       -3.722998    1.849311   -0.000183
     17          1           0       -3.057573   -0.221574   -0.000596
     18          6           0       -1.977067    3.513902    0.000364
     19          6           0       -3.347816    3.180364    0.000157
     20          1           0       -4.774769    1.559005   -0.000353
     21          1           0       -1.662086    4.559508    0.000686
     22          1           0       -4.105768    3.965635    0.000270
     23          6           0       -0.362699    0.082905   -0.000120
     24          8           0        0.295948    2.744957    0.000499
     25          1           0        1.560756    1.036412   -0.000545
 ---------------------------------------------------------------------

 SCF Done:  E(RwB97XD) =  -1028.78454586     A.U. after    1 cycles

 Excitation energies and oscillator strengths:

 Excited state symmetry could not be determined.
 Excited State   1:      Singlet-?Sym    2.6840 eV  461.94 nm  f=0.4319  <S**2>=0.000
      59 -> 60         0.69771
 This state for optimization and/or second-order correction.
 Total Energy, E(TD-HF/TD-DFT) =  -1028.68591184
 Copying the excited state density for this state as the 1-particle RhoCI density.

 Excited state symmetry could not be determined.
 Excited State   2:      Singlet-?Sym    3.2655 eV  379.68 nm  f=0.0000  <S**2>=0.000
      58 -> 60         0.68447
      58 -> 62         0.11287
      58 -> 64         0.10115

 Excited state symmetry could not be determined.
 Excited State   3:      Singlet-?Sym    4.2796 eV  289.71 nm  f=0.4423  <S**2>=0.000
      57 -> 60         0.68394

 Alpha  occ. eigenvalues --  -89.10521 -19.19890 -14.53184 -10.42808 -10.37369
 Alpha  occ. eigenvalues --  -10.36164 -10.35152 -10.33598 -10.33499 -10.32961
 Alpha  occ. eigenvalues --  -10.32621 -10.31318 -10.30776 -10.30509 -10.28970
 Alpha  occ. eigenvalues --  -10.28070  -8.12562  -6.07442  -6.07046  -6.06583
 Alpha  occ. eigenvalues --   -1.13420  -1.09047  -0.98722  -0.95830  -0.93268
 Alpha  occ. eigenvalues --   -0.89048  -0.86874  -0.84090  -0.80570  -0.75980
 Alpha  occ. eigenvalues --   -0.74787  -0.72003  -0.69427  -0.67427  -0.64737
 Alpha  occ. eigenvalues --   -0.61086  -0.59796  -0.56500  -0.56310  -0.56087
 Alpha  occ. eigenvalues --   -0.55108  -0.53645  -0.53015  -0.50376  -0.48699
 Alpha  occ. eigenvalues --   -0.48655  -0.48184  -0.47088  -0.45603  -0.44884
 Alpha  occ. eigenvalues --   -0.43938  -0.42741  -0.42241  -0.39786  -0.36963
 Alpha  occ. eigenvalues --   -0.33875  -0.31580  -0.30436  -0.25204
 Alpha virt. eigenvalues --   -0.02294   0.03485   0.05632   0.06666   0.09846
 Alpha virt. eigenvalues --    0.10952   0.13273   0.14418   0.15865   0.16491
 Alpha virt. eigenvalues --    0.17821   0.19765   0.20796   0.21228   0.22653

 Mulliken charges:
               1
     1  C    0.016194
     2  C   -0.240663
     3  C    0.201335
     4  C   -0.012429
     5  C    0.012616
     6  C    0.004398
     7  H    0.025743
     8  H    0.033213
     9  H    0.029692
    10  H    0.028158
    11  N   -0.083489
    12  S    0.200044
    13  C   -0.066543
    14  C   -0.039869
    15  C    0.103131
    16  C   -0.039148
    17  H    0.007517
    18  C   -0.062050
    19  C    0.035037
    20  H    0.000454
    21  H   -0.002056
    22  H    0.013446
    23  C    0.091906
    24  O   -0.377079
    25  H    0.120443
 Sum of Mulliken charges =  -0.00000

 Dipole moment (field-independent basis, Debye):
    X=              2.8058    Y=             -6.3159    Z=             -0.0014  Tot=              6.9111
 Quadrupole moment (field-independent basis, Debye-Ang):
   XX=            -80.9881   YY=            -97.1990   ZZ=           -104.1385
   XY=             -5.8597   XZ=             -0.0022   YZ=             -0.0040

  Exact polarizability:     345.544    -116.394     287.782       0.001      -0.000      63.277
 Approx polarizability:     276.849     -40.662     264.384      -0.001       0.002      81.988

 ******    2 imaginary frequencies (negative Signs) ******

                      1                      2                      3
                      A                      A                      A
 Frequencies --   -132.1094               -38.5633                68.2265
 Red. masses --      2.1559                 5.9164                 6.0657
 Frc consts  --      0.0222                 0.0052                 0.0166
 IR Inten    --     24.5985                 0.2520                 2.5454

                      4                      5                      6
                      A                      A                      A
 Frequencies --    106.9048               155.1419               183.5919
 Red. masses --      5.7453                 3.0275                 5.2306
 Frc consts  --      0.0387                 0.0429                 0.1039
 IR Inten    --      5.6468                18.9134                 9.5097

                      7                      8                      9
                      A                      A                      A
 Frequencies --    246.2056               261.9923               282.5439
 Red. masses --      3.7299                 8.0448                 8.3709
 Frc consts  --      0.1332                 0.3253                 0.3937
 IR Inten    --      5.9226                 1.2792                 2.2608

                     10                     11                     12
                      A                      A                      A
 Frequencies --    320.3919               336.3317               376.0191
 Red. masses --      2.5779                 4.5977                 6.8960
 Frc consts  --      0.1559                 0.3064                 0.5745
 IR Inten    --     18.1586                 1.0741                 6.9623

                     13                     14                     15
                      A                      A                      A
 Frequencies --    432.4433               442.2247               500.6708
 Red. masses --      3.9334                 3.0669                 8.1742
 Frc consts  --      0.4334                 0.3534                 1.2073
 IR Inten    --      6.1580                 0.1204                10.5990

                     16                     17                     18
                      A                      A                      A
 Frequencies --    517.2050               538.5027               542.9359
 Red. masses --      3.2355                 6.2829                 8.9330
 Frc consts  --      0.5099                 1.0735                 1.5515
 IR Inten    --      0.5320                28.4071                28.7738

                     19                     20                     21
                      A                      A                      A
 Frequencies --    559.4650               565.4027               642.9360
 Red. masses --      3.7996                 7.4071                 6.5189
 Frc consts  --      0.7007                 1.3951                 1.5877
 IR Inten    --      0.0644                 4.0588                 9.8982

                     22                     23                     24
                      A                      A                      A
 Frequencies --    688.2666               705.2559               738.5864
 Red. masses --      1.5011                 5.6958                 7.4000
 Frc consts  --      0.4190                 1.6692                 2.3784
 IR Inten    --     32.9634                 1.6921                 5.9719

                     25                     26                     27
                      A                      A                      A
 Frequencies --    743.6719               757.2611               766.6423
 Red. masses --      2.3462                 1.6686                 1.7430
 Frc consts  --      0.7645                 0.5638                 0.6036
 IR Inten    --     20.8036                12.5355                82.9997

                     28                     29                     30
                      A                      A                      A
 Frequencies --    820.6244               837.4136               863.3795
 Red. masses --      6.2500                 2.0637                 1.3861
 Frc consts  --      2.4798                 0.8527                 0.6088
 IR Inten    --     15.2165                 1.5573                 1.2003

                     31                     32                     33
                      A                      A                      A
 Frequencies --    895.0836               899.7468               953.2105
 Red. masses --      5.9252                 1.4486                 1.3560
 Frc consts  --      2.7969                 0.6910                 0.7259
 IR Inten    --      3.1065                 9.3324                 0.3168

                     34                     35                     36
                      A                      A                      A
 Frequencies --    956.9610               970.2844              1003.1965
 Red. masses --      1.3529                 5.1633                 1.2964
 Frc consts  --      0.7300                 2.8640                 0.7687
 IR Inten    --      1.7144                 3.5669                 0.0003

                     37                     38                     39
                      A                      A                      A
 Frequencies --   1036.7085              1056.9594              1086.6847
 Red. masses --      2.3105                 2.1809                 2.6690
 Frc consts  --      1.4631                 1.4355                 1.8570
 IR Inten    --      1.0197                10.2262                14.1852

                     40                     41                     42
                      A                      A                      A
 Frequencies --   1096.4097              1153.0895              1154.8959
 Red. masses --      2.0553                 1.4275                 1.2316
 Frc consts  --      1.4557                 1.1183                 0.9678
 IR Inten    --     16.9868                11.8763                76.8274

                     43                     44                     45
                      A                      A                      A
 Frequencies --   1168.3704              1180.8045              1223.3304
 Red. masses --      1.2715                 1.1431                 3.7775
 Frc consts  --      1.0227                 0.9391                 3.3308
 IR Inten    --     13.7603                 5.5802                26.6911

                     46                     47                     48
                      A                      A                      A
 Frequencies --   1241.0111              1303.5833              1333.0218
 Red. masses --      2.1749                 1.5530                 3.2183
 Frc consts  --      1.9736                 1.5549                 3.3694
 IR Inten    --     27.2055                 4.2654                17.6452

                     49                     50                     51
                      A                      A                      A
 Frequencies --   1357.1352              1403.1055              1404.8243
 Red. masses --      2.5875                 3.5120                 3.2757
 Frc consts  --      2.8079                 4.0736                 3.8088
 IR Inten    --     31.0625               120.1391                 4.2564

                     52                     53                     54
                      A                      A                      A
 Frequencies --   1444.8778              1461.1144              1510.5950
 Red. masses --      2.7466                 3.3989                 3.6823
 Frc consts  --      3.3784                 4.2752                 4.9507
 IR Inten    --     74.1334                 9.6945                96.9752

                     55                     56                     57
                      A                      A                      A
 Frequencies --   1526.1287              1538.8733              1620.4398
 Red. masses --      2.7756                 4.9426                 5.2978
 Frc consts  --      3.8088                 6.8963                 8.1962
 IR Inten    --      0.7264               191.1395                84.7270

                     58                     59                     60
                      A                      A                      A
 Frequencies --   1649.7384              1664.5822              1687.5532
 Red. masses --      9.5249                 6.8818                 7.3811
 Frc consts  --     15.2736                11.2347                12.3848
 IR Inten    --    163.1327                89.9467                24.5120

                     61                     62                     63
                      A                      A                      A
 Frequencies --   3190.3098              3207.4058              3212.0834
 Red. masses --      1.0891                 1.0862                 1.0868
 Frc consts  --      6.5311                 6.5837                 6.6066
 IR Inten    --     27.2798                 2.5448                 4.7426

                     64                     65                     66
                      A                      A                      A
 Frequencies --   3219.0196              3222.5481              3230.7843
 Red. masses --      1.0913                 1.0909                 1.0953
 Frc consts  --      6.6623                 6.6746                 6.7360
 IR Inten    --     15.7113                 1.4445                 7.1633

                     67                     68                     69
                      A                      A                      A
 Frequencies --   3232.5400              3241.5171              3950.2146
 Red. masses --      1.0991                 1.0990                 1.0783
 Frc consts  --      6.7668                 6.8037                 9.9139
 IR Inten    --     27.1580                12.6566               171.3849

 - Thermochemistry -
 -------------------
 Temperature   298.150 Kelvin.  Pressure   1.00000 Atm.
 Atom     1 has atomic number  6 and mass  12.00000

 Molecular mass:   227.04049 amu.
 Principal axes and moments of inertia in atomic units:
                           1         2         3
     Eigenvalues --  1256.376186554.116797810.49286
           X           -0.70691   0.70730  -0.00000
           Y            0.70730   0.70691  -0.00002
           Z            0.00001   0.00001   1.00000
 This molecule is an asymmetric top.
 Rotational symmetry number  1.
 Warning -- assumption of classical behavior for rotation
           may cause significant error
 Rotational temperatures (Kelvin)      0.06894     0.01322     0.01109
 Rotational constants (GHZ):           1.43647     0.27536     0.23107
    2 imaginary frequencies ignored.
 Zero-point vibrational energy     488608.6 (Joules/Mol)
                                  116.78026 (Kcal/Mol)
 Warning -- explicit consideration of  18 degrees of freedom as
           vibrations may cause significant error
 Vibrational temperatures:     98.16   153.81   223.21   264.15   354.23
          (Kelvin)            376.95   406.52   460.97   483.91   541.01
                              622.19   636.26   720.35   744.14   774.79
                              781.16   804.95   813.49   925.04   990.26
                             1014.71  1062.66  1069.98  1089.53  1103.03
                             1180.70  1204.85  1242.21  1287.83  1294.53
                             1371.46  1376.85  1396.02  1443.38  1491.59
                             1520.73  1563.50  1577.49  1659.04  1661.64
                             1681.02  1698.91  1760.10  1785.54  1875.57
                             1917.92  1952.61  2018.76  2021.23  2078.86
                             2102.22  2173.41  2195.76  2214.10  2331.45
                             2373.61  2394.96  2428.01  4590.14  4614.74
                             4621.47  4631.45  4636.53  4648.38  4650.90
                             4663.82  5683.48

 Zero-point correction=                           0.186101 (Hartree/Particle)
 Thermal correction to Energy=                    0.197441
 Thermal correction to Enthalpy=                  0.198385
 Thermal correction to Gibbs Free Energy=         0.148625
 Sum of electronic and zero-point Energies=          -1028.499811
 Sum of electronic and thermal Energies=             -1028.488471
 Sum of electronic and thermal Enthalpies=           -1028.487527
 Sum of electronic and thermal Free Energies=        -1028.537286

                     E (Thermal)             CV                S
                      KCal/Mol        Cal/Mol-Kelvin    Cal/Mol-Kelvin
 Total                  123.896             47.039            104.728
 Electronic               0.000              0.000              0.000
 Translational            0.889              2.981             42.162
 Rotational               0.889              2.981             32.531
 Vibrational            122.119             41.077             30.035
 Vibration     1          0.598              1.969              4.204
 Vibration     2          0.606              1.944              3.324
 Vibration     3          0.620              1.897              2.608
 Vibration     4          0.631              1.862              2.292
 Vibration     5          0.661              1.769              1.758
 Vibration     6          0.669              1.742              1.648
 Vibration     7          0.682              1.706              1.518
 Vibration     8          0.706              1.635              1.308
 Vibration     9          0.717              1.603              1.229
 Vibration    10          0.747              1.521              1.055
 Vibration    11          0.793              1.400              0.851
 Vibration    12          0.802              1.378              0.820
 Vibration    13          0.856              1.249              0.656
 Vibration    14          0.872              1.212              0.616
 Vibration    15          0.894              1.165              0.569
 Vibration    16          0.898              1.155              0.559
 Vibration    17          0.915              1.119              0.525
 Vibration    18          0.921              1.106              0.513

 Optimization completed.
    -- Stationary point found.
 Normal termination of Gaussian 16 at Mon Jul 13 21:39:50 2020.
