 Gaussian 16, Revision C.01,
 Gaussian 16:  ES64L-G16RevC.01  3-Jul-2019

 ----------------------------------------------------------------------
 #p opt=addgic freq td wb97xd/cc-pvdz nosymm int=ultrafine scrf=(solven
 t=CarbonTetraChloride)
 ----------------------------------------------------------------------

 ------------------------------------------------
 NM 2D-scan of HBT TD-WB97XD pVDZ in CTC Relaxed.
 ------------------------------------------------
 Symbolic Z-matrix:
 Charge =  0 Multiplicity = 1

 SCF Done:  E(RwB97XD) =  -1028.78481675     A.U. after   15 cycles
 Total Energy, E(TD-HF/TD-DFT) =  -1028.65389117
 SCF Done:  E(RwB97XD) =  -1028.81750868     A.U. after   13 cycles
 Total Energy, E(TD-HF/TD-DFT) =  -1028.68819975
 SCF Done:  E(RwB97XD) =  -1028.81825032     A.U. after   12 cycles
 Total Energy, E(TD-HF/TD-DFT) =  -1028.68979705
 SCF Done:  E(RwB97XD) =  -1028.81875650     A.U. after   12 cycles
 Total Energy, E(TD-HF/TD-DFT) =  -1028.69021131
 SCF Done:  E(RwB97XD) =  -1028.81885150     A.U. after   10 cycles
 Total Energy, E(TD-HF/TD-DFT) =  -1028.69050300
 SCF Done:  E(RwB97XD) =  -1028.81887044     A.U. after    9 cycles
 Total Energy, E(TD-HF/TD-DFT) =  -1028.69050531
 SCF Done:  E(RwB97XD) =  -1028.81889892     A.U. after    7 cycles
 Total Energy, E(TD-HF/TD-DFT) =  -1028.69050567
 SCF Done:  E(RwB97XD) =  -1028.81890988     A.U. after    7 cycles
 Total Energy, E(TD-HF/TD-DFT) =  -1028.69050565
 Optimization completed.
    -- Stationary point found.
 Normal termination of Gaussian 16 at Tue Jul 14 15:22:05 2020.

 ----------------------------------------------------------------------
 #P Geom=AllCheck Guess=TCheck SCRF=Check GenChk RwB97XD TD(FC,Read)/CC
 -pVDZ Freq
 ----------------------------------------------------------------------

 Structure from the checkpoint file:  "config_2_18.chk"
 ------------------------------------------------
 NM 2D-scan of HBT TD-WB97XD pVDZ in CTC Relaxed.
 ------------------------------------------------
 Charge =  0 Multiplicity = 1

                          Input orientation:
 ---------------------------------------------------------------------
 Center     Atomic      Atomic             Coordinates (Angstroms)
 Number     Number       Type             X           Y           Z
 ---------------------------------------------------------------------
      1          6           0        1.523218   -3.275950   -0.000105
      2          6           0        0.977950   -1.995734   -0.000099
      3          6           0        1.780171   -0.801642    0.000038
      4          6           0        3.193333   -0.970430    0.000172
      5          6           0        3.723325   -2.248809    0.000163
      6          6           0        2.906596   -3.401643    0.000025
      7          1           0        0.875817   -4.153678   -0.000207
      8          1           0        3.838249   -0.091034    0.000276
      9          1           0        4.808014   -2.372268    0.000265
     10          1           0        3.363827   -4.391936    0.000024
     11          7           0        1.086814    0.356652    0.000006
     12         16           0       -0.707117   -1.594372   -0.000229
     13          6           0       -1.276853    1.087564   -0.000123
     14          6           0       -2.655991    0.730815   -0.000023
     15          6           0       -0.941067    2.511232   -0.000077
     16          6           0       -3.637637    1.703430    0.000146
     17          1           0       -2.937974   -0.322498   -0.000038
     18          6           0       -1.961103    3.472366    0.000134
     19          6           0       -3.298203    3.075680    0.000244
     20          1           0       -4.687836    1.407679    0.000237
     21          1           0       -1.676735    4.524989    0.000165
     22          1           0       -4.087029    3.828805    0.000391
     23          6           0       -0.258592    0.122366   -0.000152
     24          8           0        0.325802    2.871066   -0.000339
     25          1           0        0.898176    2.034479   -0.000771
 ---------------------------------------------------------------------

 SCF Done:  E(RwB97XD) =  -1028.81890988     A.U. after    1 cycles

 Excitation energies and oscillator strengths:

 Excited state symmetry could not be determined.
 Excited State   1:      Singlet-?Sym    3.4941 eV  354.84 nm  f=0.7057  <S**2>=0.000
      59 -> 60         0.68872
 This state for optimization and/or second-order correction.
 Total Energy, E(TD-HF/TD-DFT) =  -1028.69050561
 Copying the excited state density for this state as the 1-particle RhoCI density.

 Excited state symmetry could not be determined.
 Excited State   2:      Singlet-?Sym    4.3781 eV  283.19 nm  f=0.1132  <S**2>=0.000
      57 -> 60         0.43142
      58 -> 60         0.50024
      59 -> 62        -0.13346

 Excited state symmetry could not be determined.
 Excited State   3:      Singlet-?Sym    4.5749 eV  271.01 nm  f=0.1166  <S**2>=0.000
      57 -> 60         0.46903
      57 -> 62         0.10726
      58 -> 60        -0.42089
      59 -> 61         0.19623

 Alpha  occ. eigenvalues --  -89.08597 -19.28847 -14.47359 -10.39565 -10.38246
 Alpha  occ. eigenvalues --  -10.35175 -10.34473 -10.32444 -10.32364 -10.32176
 Alpha  occ. eigenvalues --  -10.31952 -10.31487 -10.31311 -10.31234 -10.30678
 Alpha  occ. eigenvalues --  -10.30633  -8.10656  -6.05489  -6.05152  -6.04722
 Alpha  occ. eigenvalues --   -1.17339  -1.08043  -0.96860  -0.95799  -0.92072
 Alpha  occ. eigenvalues --   -0.88789  -0.85131  -0.84605  -0.82201  -0.75985
 Alpha  occ. eigenvalues --   -0.71381  -0.70227  -0.69173  -0.68132  -0.63671
 Alpha  occ. eigenvalues --   -0.60386  -0.59041  -0.58683  -0.56117  -0.54506
 Alpha  occ. eigenvalues --   -0.53772  -0.53476  -0.52911  -0.50553  -0.50507
 Alpha  occ. eigenvalues --   -0.49251  -0.47576  -0.45970  -0.45636  -0.44826
 Alpha  occ. eigenvalues --   -0.44093  -0.43031  -0.42047  -0.39987  -0.37602
 Alpha  occ. eigenvalues --   -0.36445  -0.31900  -0.31691  -0.28146
 Alpha virt. eigenvalues --   -0.01858   0.05213   0.06856   0.07065   0.07900
 Alpha virt. eigenvalues --    0.11159   0.14361   0.15244   0.16988   0.18057
 Alpha virt. eigenvalues --    0.18583   0.21057   0.21493   0.22341   0.22741

 Mulliken charges:
               1
     1  C    0.020707
     2  C   -0.214913
     3  C    0.206973
     4  C   -0.020781
     5  C    0.004282
     6  C   -0.005031
     7  H    0.016297
     8  H    0.016766
     9  H    0.018281
    10  H    0.019728
    11  N   -0.365731
    12  S    0.153412
    13  C   -0.068913
    14  C   -0.028092
    15  C    0.082756
    16  C   -0.007486
    17  H    0.025110
    18  C    0.006323
    19  C    0.022336
    20  H    0.011892
    21  H    0.020634
    22  H    0.023847
    23  C    0.084676
    24  O   -0.200414
    25  H    0.177342
 Sum of Mulliken charges =  -0.00000

 Dipole moment (field-independent basis, Debye):
    X=             -0.8179    Y=             -1.9908    Z=             -0.0004  Tot=              2.1523
 Quadrupole moment (field-independent basis, Debye-Ang):
   XX=            -83.1528   YY=            -89.4526   ZZ=           -104.3216
   XY=             -7.0739   XZ=             -0.0010   YZ=              0.0004

  Exact polarizability:     398.169    -192.752     387.307      -0.001       0.006      63.318
 Approx polarizability:     277.822     -36.471     260.246       0.001       0.007      82.352

                      1                      2                      3
                      A                      A                      A
 Frequencies --     46.6341                61.0122               110.1603
 Red. masses --      6.1787                 5.1041                 5.2098
 Frc consts  --      0.0079                 0.0112                 0.0372
 IR Inten    --      1.3948                 0.0009                 0.1817

                      4                      5                      6
                      A                      A                      A
 Frequencies --    110.2987               179.8254               224.8405
 Red. masses --      5.6386                 6.6331                 5.3192
 Frc consts  --      0.0404                 0.1264                 0.1584
 IR Inten    --      2.1889                 1.5169                 0.0061

                      7                      8                      9
                      A                      A                      A
 Frequencies --    267.7437               273.5385               295.1699
 Red. masses --      7.8452                 4.8493                 6.5884
 Frc consts  --      0.3314                 0.2138                 0.3382
 IR Inten    --     24.2053                 0.0117                 9.8378

                     10                     11                     12
                      A                      A                      A
 Frequencies --    389.7375               409.6729               441.9778
 Red. masses --      4.4966                 9.2864                 3.2492
 Frc consts  --      0.4024                 0.9183                 0.3740
 IR Inten    --      0.0535                14.7244                 3.8543

                     13                     14                     15
                      A                      A                      A
 Frequencies --    489.1480               501.0225               509.0825
 Red. masses --      4.4617                 8.0546                 3.1527
 Frc consts  --      0.6290                 1.1913                 0.4814
 IR Inten    --      0.2065                 3.0363                 0.0658

                     16                     17                     18
                      A                      A                      A
 Frequencies --    517.8157               526.2324               553.7193
 Red. masses --      5.0130                 8.1930                 3.9582
 Frc consts  --      0.7919                 1.3367                 0.7150
 IR Inten    --     18.6579                44.0260                 0.1612

                     19                     20                     21
                      A                      A                      A
 Frequencies --    575.8734               645.1241               702.8888
 Red. masses --      7.6965                 6.6293                10.3882
 Frc consts  --      1.5038                 1.6256                 3.0239
 IR Inten    --     37.9600                12.3894                58.4045

                     22                     23                     24
                      A                      A                      A
 Frequencies --    720.1255               720.8585               736.1370
 Red. masses --      6.5770                 1.4762                 1.9370
 Frc consts  --      2.0095                 0.4520                 0.6184
 IR Inten    --     12.9784                70.3105                37.1694

                     25                     26                     27
                      A                      A                      A
 Frequencies --    739.9165               770.6588               811.0674
 Red. masses --      1.9311                 2.3399                 1.7566
 Frc consts  --      0.6229                 0.8188                 0.6808
 IR Inten    --      4.5002                45.3628                 5.5020

                     28                     29                     30
                      A                      A                      A
 Frequencies --    822.4913               860.1766               883.2440
 Red. masses --      6.2660                 1.4343                 6.4039
 Frc consts  --      2.4975                 0.6253                 2.9435
 IR Inten    --     19.9913                 0.9658                69.3528

                     31                     32                     33
                      A                      A                      A
 Frequencies --    917.0124               953.2400               955.1438
 Red. masses --      1.3389                 1.3439                 1.0734
 Frc consts  --      0.6634                 0.7195                 0.5770
 IR Inten    --     10.7932                 3.6364                59.4586

                     34                     35                     36
                      A                      A                      A
 Frequencies --    965.6048               966.7446               998.4642
 Red. masses --      7.4070                 1.3473                 1.3064
 Frc consts  --      4.0691                 0.7419                 0.7673
 IR Inten    --     14.4288                 1.0251                 0.0223

                     37                     38                     39
                      A                      A                      A
 Frequencies --   1040.0401              1041.2913              1089.5014
 Red. masses --      2.1301                 2.0773                 4.0830
 Frc consts  --      1.3576                 1.3270                 2.8555
 IR Inten    --      3.6977                 1.3600                56.0126

                     40                     41                     42
                      A                      A                      A
 Frequencies --   1138.2871              1152.9355              1175.8494
 Red. masses --      1.4667                 1.3635                 1.1715
 Frc consts  --      1.1197                 1.0678                 0.9543
 IR Inten    --     56.8157                15.7408                21.6240

                     43                     44                     45
                      A                      A                      A
 Frequencies --   1178.8574              1213.9310              1241.4511
 Red. masses --      1.2377                 3.9476                 1.8477
 Frc consts  --      1.0134                 3.4275                 1.6778
 IR Inten    --     15.0088                46.0568               140.0508

                     46                     47                     48
                      A                      A                      A
 Frequencies --   1277.6285              1322.9576              1358.2941
 Red. masses --      1.7121                 3.7859                 2.7033
 Frc consts  --      1.6466                 3.9041                 2.9385
 IR Inten    --      0.3729               224.9688                45.3293

                     49                     50                     51
                      A                      A                      A
 Frequencies --   1369.0738              1395.8880              1439.2327
 Red. masses --      4.8659                 2.2047                 2.6321
 Frc consts  --      5.3737                 2.5310                 3.2123
 IR Inten    --     74.4877                 8.9415               179.7998

                     52                     53                     54
                      A                      A                      A
 Frequencies --   1469.6974              1495.0921              1523.0539
 Red. masses --      3.6355                 3.4889                 2.5898
 Frc consts  --      4.6267                 4.5948                 3.5396
 IR Inten    --     80.1164                30.5171               225.8690

                     55                     56                     57
                      A                      A                      A
 Frequencies --   1547.5307              1581.7235              1598.9409
 Red. masses --      4.8420                 6.8599                 5.9183
 Frc consts  --      6.8321                10.1119                 8.9148
 IR Inten    --     53.3381                 6.1859               384.0773

                     58                     59                     60
                      A                      A                      A
 Frequencies --   1610.4707              1629.0564              1645.2011
 Red. masses --      2.7734                 2.8861                 4.1957
 Frc consts  --      4.2381                 4.5126                 6.6910
 IR Inten    --    817.7708                64.3276               177.1353

                     61                     62                     63
                      A                      A                      A
 Frequencies --   2868.2076              3204.8410              3212.9302
 Red. masses --      1.0800                 1.0862                 1.0861
 Frc consts  --      5.2347                 6.5734                 6.6055
 IR Inten    --     41.8876                 9.4116                 5.3280

                     64                     65                     66
                      A                      A                      A
 Frequencies --   3215.5365              3223.2370              3226.9682
 Red. masses --      1.0897                 1.0885                 1.0953
 Frc consts  --      6.6384                 6.6628                 6.7199
 IR Inten    --      2.2013                10.3496                10.0264

                     67                     68                     69
                      A                      A                      A
 Frequencies --   3231.9385              3233.4307              3240.3341
 Red. masses --      1.0950                 1.0992                 1.0985
 Frc consts  --      6.7392                 6.7710                 6.7954
 IR Inten    --      7.9410                41.2329                28.0443

 - Thermochemistry -
 -------------------
 Temperature   298.150 Kelvin.  Pressure   1.00000 Atm.
 Atom     1 has atomic number  6 and mass  12.00000

 Molecular mass:   227.04049 amu.
 Principal axes and moments of inertia in atomic units:
                           1         2         3
     Eigenvalues --  1301.483876333.996907635.48072
           X           -0.69973   0.71441  -0.00001
           Y            0.71441   0.69973  -0.00001
           Z            0.00000   0.00002   1.00000
 This molecule is an asymmetric top.
 Rotational symmetry number  1.
 Warning -- assumption of classical behavior for rotation
           may cause significant error
 Rotational temperatures (Kelvin)      0.06655     0.01367     0.01134
 Rotational constants (GHZ):           1.38668     0.28493     0.23636
 Zero-point vibrational energy     489546.7 (Joules/Mol)
                                  117.00446 (Kcal/Mol)
 Warning -- explicit consideration of  19 degrees of freedom as
           vibrations may cause significant error
 Vibrational temperatures:     67.10    87.78   158.50   158.70   258.73
          (Kelvin)            323.50   385.22   393.56   424.68   560.75
                              589.43   635.91   703.77   720.86   732.46
                              745.02   757.13   796.68   828.55   928.19
                             1011.30  1036.10  1037.15  1059.14  1064.57
                             1108.81  1166.95  1183.38  1237.60  1270.79
                             1319.38  1371.50  1374.24  1389.29  1390.93
                             1436.57  1496.39  1498.19  1567.55  1637.74
                             1658.82  1691.79  1696.11  1746.58  1786.17
                             1838.22  1903.44  1954.28  1969.79  2008.37
                             2070.73  2114.57  2151.10  2191.33  2226.55
                             2275.75  2300.52  2317.11  2343.85  2367.08
                             4126.71  4611.05  4622.69  4626.44  4637.52
                             4642.89  4650.04  4652.19  4662.12

 Zero-point correction=                           0.186458 (Hartree/Particle)
 Thermal correction to Energy=                    0.198729
 Thermal correction to Enthalpy=                  0.199673
 Thermal correction to Gibbs Free Energy=         0.147170
 Sum of electronic and zero-point Energies=          -1028.504047
 Sum of electronic and thermal Energies=             -1028.491777
 Sum of electronic and thermal Enthalpies=           -1028.490833
 Sum of electronic and thermal Free Energies=        -1028.543336

                     E (Thermal)             CV                S
                      KCal/Mol        Cal/Mol-Kelvin    Cal/Mol-Kelvin
 Total                  124.704             49.267            110.502
 Electronic               0.000              0.000              0.000
 Translational            0.889              2.981             42.162
 Rotational               0.889              2.981             32.509
 Vibrational            122.927             43.306             35.831
 Vibration     1          0.595              1.979              4.955
 Vibration     2          0.597              1.973              4.424
 Vibration     3          0.606              1.941              3.266
 Vibration     4          0.606              1.941              3.264
 Vibration     5          0.629              1.867              2.330
 Vibration     6          0.650              1.803              1.920
 Vibration     7          0.673              1.732              1.611
 Vibration     8          0.676              1.722              1.574
 Vibration     9          0.689              1.683              1.444
 Vibration    10          0.758              1.492              1.001
 Vibration    11          0.774              1.449              0.928
 Vibration    12          0.802              1.379              0.820
 Vibration    13          0.845              1.274              0.686
 Vibration    14          0.856              1.248              0.656
 Vibration    15          0.864              1.230              0.636
 Vibration    16          0.873              1.211              0.615
 Vibration    17          0.881              1.192              0.596
 Vibration    18          0.909              1.132              0.537
 Vibration    19          0.932              1.083              0.493

 Optimization completed.
    -- Stationary point found.
 Normal termination of Gaussian 16 at Tue Jul 14 15:39:51 2020.
