 Gaussian 16, Revision C.01,
 Gaussian 16:  ES64L-G16RevC.01  3-Jul-2019

 ----------------------------------------------------------------------
 #p opt=addgic freq td wb97xd/cc-pvdz nosymm int=ultrafine scrf=(solven
 t=CarbonTetraChloride)
 ----------------------------------------------------------------------

 ------------------------------------------------
 NM 2D-scan of HBT TD-WB97XD pVDZ in CTC Relaxed.
 ------------------------------------------------
 Symbolic Z-matrix:
 Charge =  0 Multiplicity = 1

 SCF Done:  E(RwB97XD) =  -1028.65996889     A.U. after   16 cycles
 Total Energy, E(TD-HF/TD-DFT) =  -1028.55570625
 SCF Done:  E(RwB97XD) =  -1028.76202634     A.U. after   14 cycles
 Total Energy, E(TD-HF/TD-DFT) =  -1028.66011076
 SCF Done:  E(RwB97XD) =  -1028.76524191     A.U. after   14 cycles
 Total Energy, E(TD-HF/TD-DFT) =  -1028.66692037
 SCF Done:  E(RwB97XD) =  -1028.78206800     A.U. after   14 cycles
 Total Energy, E(TD-HF/TD-DFT) =  -1028.67863588
 SCF Done:  E(RwB97XD) =  -1028.78118865     A.U. after   13 cycles
 Total Energy, E(TD-HF/TD-DFT) =  -1028.68062244
 SCF Done:  E(RwB97XD) =  -1028.78185987     A.U. after   11 cycles
 Total Energy, E(TD-HF/TD-DFT) =  -1028.68070321
 SCF Done:  E(RwB97XD) =  -1028.78179489     A.U. after    9 cycles
 Total Energy, E(TD-HF/TD-DFT) =  -1028.68070640
 Optimization completed.
    -- Stationary point found.
 Normal termination of Gaussian 16 at Tue Jul 14 11:17:01 2020.

 ----------------------------------------------------------------------
 #P Geom=AllCheck Guess=TCheck SCRF=Check GenChk RwB97XD TD(FC,Read)/CC
 -pVDZ Freq
 ----------------------------------------------------------------------

 Structure from the checkpoint file:  "config_12_1_fixed.chk"
 ------------------------------------------------
 NM 2D-scan of HBT TD-WB97XD pVDZ in CTC Relaxed.
 ------------------------------------------------
 Charge =  0 Multiplicity = 1

                          Input orientation:
 ---------------------------------------------------------------------
 Center     Atomic      Atomic             Coordinates (Angstroms)
 Number     Number       Type             X           Y           Z
 ---------------------------------------------------------------------
      1          6           0        1.790983   -3.291235   -0.000029
      2          6           0        1.037338   -2.121733   -0.000030
      3          6           0        1.691712   -0.897600   -0.000019
      4          6           0        3.085745   -0.769635   -0.000012
      5          6           0        3.825841   -1.943441   -0.000010
      6          6           0        3.187180   -3.188554   -0.000017
      7          1           0        1.311543   -4.270007   -0.000041
      8          1           0        3.556706    0.214064   -0.000005
      9          1           0        4.915604   -1.892279   -0.000004
     10          1           0        3.784823   -4.100539   -0.000017
     11          7           0        0.804601    0.121832   -0.000014
     12         16           0       -0.734319   -1.838256   -0.000063
     13          6           0       -1.463097    1.047926   -0.000014
     14          6           0       -2.838636    0.951651   -0.000016
     15          6           0       -0.849810    2.414571    0.000018
     16          6           0       -3.699087    2.105292    0.000037
     17          1           0       -3.309312   -0.034966   -0.000037
     18          6           0       -1.768103    3.526084    0.000063
     19          6           0       -3.164625    3.381178    0.000076
     20          1           0       -4.778826    1.948657    0.000045
     21          1           0       -1.305771    4.515101    0.000079
     22          1           0       -3.814598    4.257484    0.000112
     23          6           0       -0.539333   -0.086903   -0.000018
     24          8           0        0.386077    2.566024   -0.000019
     25          1           0        1.257916    0.999717    0.000000
 ---------------------------------------------------------------------

 SCF Done:  E(RwB97XD) =  -1028.78179489     A.U. after    1 cycles

 Excitation energies and oscillator strengths:

 Excited state symmetry could not be determined.
 Excited State   1:      Singlet-?Sym    2.7508 eV  450.73 nm  f=0.4211  <S**2>=0.000
      59 -> 60         0.69625
 This state for optimization and/or second-order correction.
 Total Energy, E(TD-HF/TD-DFT) =  -1028.68070645
 Copying the excited state density for this state as the 1-particle RhoCI density.

 Excited state symmetry could not be determined.
 Excited State   2:      Singlet-?Sym    3.4240 eV  362.10 nm  f=0.0000  <S**2>=0.000
      58 -> 60         0.68392
      58 -> 62         0.11684
      58 -> 64         0.10662

 Excited state symmetry could not be determined.
 Excited State   3:      Singlet-?Sym    4.3362 eV  285.93 nm  f=0.5134  <S**2>=0.000
      57 -> 60         0.68137

 Alpha  occ. eigenvalues --  -89.10969 -19.20547 -14.52052 -10.42925 -10.37035
 Alpha  occ. eigenvalues --  -10.36407 -10.35728 -10.33770 -10.33274 -10.32903
 Alpha  occ. eigenvalues --  -10.32644 -10.31495 -10.31357 -10.30415 -10.28967
 Alpha  occ. eigenvalues --  -10.28011  -8.12862  -6.07761  -6.07362  -6.06874
 Alpha  occ. eigenvalues --   -1.13687  -1.09729  -0.98662  -0.95032  -0.93179
 Alpha  occ. eigenvalues --   -0.89224  -0.86578  -0.84312  -0.80513  -0.76165
 Alpha  occ. eigenvalues --   -0.74402  -0.71565  -0.69385  -0.67314  -0.64720
 Alpha  occ. eigenvalues --   -0.60950  -0.59888  -0.56559  -0.56266  -0.55946
 Alpha  occ. eigenvalues --   -0.55054  -0.53490  -0.52939  -0.50812  -0.48856
 Alpha  occ. eigenvalues --   -0.48726  -0.48076  -0.46969  -0.45594  -0.44731
 Alpha  occ. eigenvalues --   -0.44321  -0.42716  -0.41988  -0.40088  -0.36956
 Alpha  occ. eigenvalues --   -0.33886  -0.31604  -0.30966  -0.25372
 Alpha virt. eigenvalues --   -0.02280   0.03484   0.05980   0.06333   0.09677
 Alpha virt. eigenvalues --    0.10700   0.10984   0.14445   0.16019   0.16941
 Alpha virt. eigenvalues --    0.18616   0.19839   0.20952   0.21309   0.22806

 Mulliken charges:
               1
     1  C    0.008679
     2  C   -0.256453
     3  C    0.232931
     4  C   -0.012373
     5  C    0.016197
     6  C    0.001062
     7  H    0.027966
     8  H    0.037123
     9  H    0.029812
    10  H    0.028282
    11  N   -0.059536
    12  S    0.195507
    13  C   -0.117181
    14  C   -0.022191
    15  C    0.120450
    16  C   -0.042876
    17  H   -0.001011
    18  C   -0.047220
    19  C    0.035974
    20  H    0.001678
    21  H   -0.002007
    22  H    0.012763
    23  C    0.083859
    24  O   -0.386178
    25  H    0.114744
 Sum of Mulliken charges =  -0.00000

 Dipole moment (field-independent basis, Debye):
    X=              2.4878    Y=             -5.8582    Z=              0.0000  Tot=              6.3646
 Quadrupole moment (field-independent basis, Debye-Ang):
   XX=            -82.0194   YY=            -95.3521   ZZ=           -104.2788
   XY=             -6.3583   XZ=             -0.0000   YZ=              0.0005

  Exact polarizability:     348.407    -119.542     293.389      -0.002       0.004      63.415
 Approx polarizability:     277.771     -41.137     267.371      -0.001       0.003      82.173

 ******    1 imaginary frequencies (negative Signs) ******

                      1                      2                      3
                      A                      A                      A
 Frequencies --   -131.3959                32.5864                84.7956
 Red. masses --      6.7304                 6.0315                 4.7109
 Frc consts  --      0.0685                 0.0038                 0.0200
 IR Inten    --      3.5724                 0.6453                 0.3942

                      4                      5                      6
                      A                      A                      A
 Frequencies --    106.3601               160.1146               221.8269
 Red. masses --      5.7529                 4.2957                 5.5200
 Frc consts  --      0.0383                 0.0649                 0.1600
 IR Inten    --      7.6342                 0.6417                 4.1520

                      7                      8                      9
                      A                      A                      A
 Frequencies --    260.1781               260.5075               323.3330
 Red. masses --      3.9921                 7.4911                 7.8421
 Frc consts  --      0.1592                 0.2995                 0.4830
 IR Inten    --      4.8168                 1.3907                 1.9790

                     10                     11                     12
                      A                      A                      A
 Frequencies --    340.6491               364.4480               409.0553
 Red. masses --      4.3678                 7.6435                 2.6710
 Frc consts  --      0.2986                 0.5982                 0.2633
 IR Inten    --      1.1365                 8.6173                20.9312

                     13                     14                     15
                      A                      A                      A
 Frequencies --    436.8886               490.9591               493.0964
 Red. masses --      4.3466                 1.4848                 7.8760
 Frc consts  --      0.4888                 0.2109                 1.1283
 IR Inten    --      5.8672                26.7584                11.4257

                     16                     17                     18
                      A                      A                      A
 Frequencies --    512.0832               537.2395               557.1457
 Red. masses --      3.1700                 8.7352                 7.0607
 Frc consts  --      0.4898                 1.4854                 1.2913
 IR Inten    --      2.6447                13.9076                40.2614

                     19                     20                     21
                      A                      A                      A
 Frequencies --    562.2438               566.6465               644.3285
 Red. masses --      3.1244                 7.4448                 6.2093
 Frc consts  --      0.5819                 1.4084                 1.5188
 IR Inten    --      2.2074                11.5090                32.5420

                     22                     23                     24
                      A                      A                      A
 Frequencies --    684.2304               687.2297               730.5455
 Red. masses --      1.5652                 6.2485                 7.9094
 Frc consts  --      0.4317                 1.7387                 2.4871
 IR Inten    --     26.4317                 0.8896                 3.9633

                     25                     26                     27
                      A                      A                      A
 Frequencies --    739.9390               759.4486               766.2573
 Red. masses --      2.3016                 1.7189                 1.7591
 Frc consts  --      0.7425                 0.5841                 0.6085
 IR Inten    --     17.3430                 3.8293               101.2557

                     28                     29                     30
                      A                      A                      A
 Frequencies --    803.0121               844.9594               856.9520
 Red. masses --      6.4992                 1.8491                 1.3986
 Frc consts  --      2.4692                 0.7778                 0.6051
 IR Inten    --     19.1361                 1.4132                 1.7576

                     31                     32                     33
                      A                      A                      A
 Frequencies --    904.3767               908.8460               953.8837
 Red. masses --      5.9888                 1.4326                 1.3520
 Frc consts  --      2.8859                 0.6972                 0.7248
 IR Inten    --      0.4251                 9.3543                 0.5716

                     34                     35                     36
                      A                      A                      A
 Frequencies --    954.4659               960.2789              1001.8914
 Red. masses --      1.3547                 5.0210                 1.2950
 Frc consts  --      0.7271                 2.7279                 0.7659
 IR Inten    --      1.7013                 1.8350                 0.0000

                     37                     38                     39
                      A                      A                      A
 Frequencies --   1030.5309              1052.1907              1074.5861
 Red. masses --      2.3874                 2.3616                 3.5166
 Frc consts  --      1.4938                 1.5404                 2.3925
 IR Inten    --      4.0494                14.9290                 0.2280

                     40                     41                     42
                      A                      A                      A
 Frequencies --   1095.3949              1148.4731              1154.6297
 Red. masses --      1.6999                 1.3835                 1.2462
 Frc consts  --      1.2017                 1.0751                 0.9789
 IR Inten    --     43.9769                20.2948               145.5686

                     43                     44                     45
                      A                      A                      A
 Frequencies --   1167.9725              1179.6218              1225.2320
 Red. masses --      1.3821                 1.1505                 3.0424
 Frc consts  --      1.1109                 0.9433                 2.6909
 IR Inten    --     50.4425                 2.1649                17.5896

                     46                     47                     48
                      A                      A                      A
 Frequencies --   1242.8506              1294.0383              1333.9732
 Red. masses --      2.3358                 1.5970                 2.7148
 Frc consts  --      2.1258                 1.5756                 2.8463
 IR Inten    --     58.3236                10.9031                36.4150

                     49                     50                     51
                      A                      A                      A
 Frequencies --   1362.9518              1384.6316              1404.6317
 Red. masses --      2.3204                 2.2664                 5.6504
 Frc consts  --      2.5397                 2.5601                 6.5683
 IR Inten    --     41.9684                37.7307                71.2855

                     52                     53                     54
                      A                      A                      A
 Frequencies --   1451.6077              1466.0547              1518.0111
 Red. masses --      2.9811                 2.8694                 3.5918
 Frc consts  --      3.7011                 3.6336                 4.8765
 IR Inten    --    111.9077                 9.4279               105.8253

                     55                     56                     57
                      A                      A                      A
 Frequencies --   1525.8438              1571.6797              1617.8151
 Red. masses --      2.8291                 6.6453                 5.2719
 Frc consts  --      3.8808                 9.6714                 8.1298
 IR Inten    --      4.7181               158.8678               121.1329

                     58                     59                     60
                      A                      A                      A
 Frequencies --   1654.5990              1663.9539              1690.1794
 Red. masses --      9.1935                 7.1125                 7.2208
 Frc consts  --     14.8292                11.6027                12.1535
 IR Inten    --    133.5804               117.1874                48.8045

                     61                     62                     63
                      A                      A                      A
 Frequencies --   3188.7706              3207.4242              3213.9709
 Red. masses --      1.0893                 1.0861                 1.0863
 Frc consts  --      6.5262                 6.5834                 6.6110
 IR Inten    --     21.0300                 1.2376                 5.6617

                     64                     65                     66
                      A                      A                      A
 Frequencies --   3220.0007              3223.7881              3231.3630
 Red. masses --      1.0913                 1.0901                 1.0962
 Frc consts  --      6.6667                 6.6752                 6.7441
 IR Inten    --     13.3069                 1.3544                 7.0648

                     67                     68                     69
                      A                      A                      A
 Frequencies --   3232.3995              3241.0939              3890.0649
 Red. masses --      1.0993                 1.0992                 1.0784
 Frc consts  --      6.7673                 6.8033                 9.6150
 IR Inten    --     24.1112                14.5063               440.1315

 - Thermochemistry -
 -------------------
 Temperature   298.150 Kelvin.  Pressure   1.00000 Atm.
 Atom     1 has atomic number  6 and mass  12.00000

 Molecular mass:   227.04049 amu.
 Principal axes and moments of inertia in atomic units:
                           1         2         3
     Eigenvalues --  1308.938776497.200037806.13880
           X           -0.70467   0.70954  -0.00000
           Y            0.70954   0.70467  -0.00001
           Z            0.00001   0.00001   1.00000
 This molecule is an asymmetric top.
 Rotational symmetry number  1.
 Warning -- assumption of classical behavior for rotation
           may cause significant error
 Rotational temperatures (Kelvin)      0.06617     0.01333     0.01110
 Rotational constants (GHZ):           1.37878     0.27777     0.23120
    1 imaginary frequencies ignored.
 Zero-point vibrational energy     489757.9 (Joules/Mol)
                                  117.05495 (Kcal/Mol)
 Warning -- explicit consideration of  19 degrees of freedom as
           vibrations may cause significant error
 Vibrational temperatures:     46.88   122.00   153.03   230.37   319.16
          (Kelvin)            374.34   374.81   465.20   490.12   524.36
                              588.54   628.59   706.38   709.46   736.77
                              772.97   801.61   808.94   815.28   927.05
                              984.45   988.77  1051.09  1064.61  1092.68
                             1102.47  1155.36  1215.71  1232.96  1301.20
                             1307.63  1372.43  1373.26  1381.63  1441.50
                             1482.70  1513.87  1546.09  1576.03  1652.40
                             1661.25  1680.45  1697.21  1762.84  1788.18
                             1861.83  1919.29  1960.98  1992.18  2020.95
                             2088.54  2109.33  2184.08  2195.35  2261.30
                             2327.68  2380.60  2394.06  2431.79  4587.93
                             4614.77  4624.19  4632.86  4638.31  4649.21
                             4650.70  4663.21  5596.94

 Zero-point correction=                           0.186539 (Hartree/Particle)
 Thermal correction to Energy=                    0.198467
 Thermal correction to Enthalpy=                  0.199412
 Thermal correction to Gibbs Free Energy=         0.147702
 Sum of electronic and zero-point Energies=          -1028.494168
 Sum of electronic and thermal Energies=             -1028.482239
 Sum of electronic and thermal Enthalpies=           -1028.481295
 Sum of electronic and thermal Free Energies=        -1028.533004

                     E (Thermal)             CV                S
                      KCal/Mol        Cal/Mol-Kelvin    Cal/Mol-Kelvin
 Total                  124.540             48.655            108.832
 Electronic               0.000              0.000              0.000
 Translational            0.889              2.981             42.162
 Rotational               0.889              2.981             32.562
 Vibrational            122.763             42.693             34.107
 Vibration     1          0.594              1.983              5.665
 Vibration     2          0.601              1.960              3.777
 Vibration     3          0.605              1.944              3.334
 Vibration     4          0.622              1.891              2.548
 Vibration     5          0.648              1.808              1.944
 Vibration     6          0.668              1.746              1.661
 Vibration     7          0.669              1.745              1.658
 Vibration     8          0.708              1.629              1.293
 Vibration     9          0.720              1.594              1.209
 Vibration    10          0.738              1.545              1.103
 Vibration    11          0.773              1.451              0.930
 Vibration    12          0.797              1.390              0.836
 Vibration    13          0.847              1.270              0.681
 Vibration    14          0.849              1.265              0.676
 Vibration    15          0.867              1.223              0.629
 Vibration    16          0.892              1.168              0.571
 Vibration    17          0.913              1.124              0.530
 Vibration    18          0.918              1.113              0.519
 Vibration    19          0.923              1.103              0.511

 Optimization completed.
    -- Stationary point found.
 Normal termination of Gaussian 16 at Tue Jul 14 11:34:35 2020.
