 Gaussian 16, Revision C.01,
 Gaussian 16:  ES64L-G16RevC.01  3-Jul-2019

 ----------------------------------------------------------------------
 #p opt=addgic freq td wb97xd/cc-pvdz nosymm int=ultrafine scrf=(solven
 t=CarbonTetraChloride)
 ----------------------------------------------------------------------

 ------------------------------------------------
 NM 2D-scan of HBT TD-WB97XD pVDZ in CTC Relaxed.
 ------------------------------------------------
 Symbolic Z-matrix:
 Charge =  0 Multiplicity = 1

 SCF Done:  E(RwB97XD) =  -1028.81402494     A.U. after   15 cycles
 Total Energy, E(TD-HF/TD-DFT) =  -1028.69190585
 Optimization completed.
    -- Stationary point found.
 Normal termination of Gaussian 16 at Mon Jul 13 14:36:42 2020.

 ----------------------------------------------------------------------
 #P Geom=AllCheck Guess=TCheck SCRF=Check GenChk RwB97XD TD(FC,Read)/CC
 -pVDZ Freq
 ----------------------------------------------------------------------

 Structure from the checkpoint file:  "config_6_9.chk"
 ------------------------------------------------
 NM 2D-scan of HBT TD-WB97XD pVDZ in CTC Relaxed.
 ------------------------------------------------
 Charge =  0 Multiplicity = 1

                          Input orientation:
 ---------------------------------------------------------------------
 Center     Atomic      Atomic             Coordinates (Angstroms)
 Number     Number       Type             X           Y           Z
 ---------------------------------------------------------------------
      1          6           0        1.647797   -3.263001   -0.000021
      2          6           0        0.999952   -2.031361   -0.000022
      3          6           0        1.722940   -0.803248   -0.000023
      4          6           0        3.134098   -0.842338   -0.000024
      5          6           0        3.768786   -2.074637   -0.000023
      6          6           0        3.041361   -3.278349   -0.000021
      7          1           0        1.077522   -4.192728   -0.000019
      8          1           0        3.699924    0.089913   -0.000025
      9          1           0        4.859702   -2.111562   -0.000023
     10          1           0        3.570140   -4.232363   -0.000020
     11          7           0        0.937749    0.299666   -0.000023
     12         16           0       -0.726809   -1.724265   -0.000021
     13          6           0       -1.368342    1.031994    0.000005
     14          6           0       -2.756080    0.813362    0.000005
     15          6           0       -0.886837    2.429974    0.000033
     16          6           0       -3.648080    1.891482    0.000026
     17          1           0       -3.142497   -0.207458   -0.000015
     18          6           0       -1.823045    3.488240    0.000053
     19          6           0       -3.191135    3.224334    0.000050
     20          1           0       -4.720759    1.690972    0.000025
     21          1           0       -1.430766    4.505843    0.000074
     22          1           0       -3.908212    4.045540    0.000068
     23          6           0       -0.390644    0.008027   -0.000017
     24          8           0        0.385509    2.662367    0.000042
     25          1           0        0.918528    1.616405    0.000012
 ---------------------------------------------------------------------

 SCF Done:  E(RwB97XD) =  -1028.81402494     A.U. after    1 cycles

 Excitation energies and oscillator strengths:

 Excited state symmetry could not be determined.
 Excited State   1:      Singlet-?Sym    3.3230 eV  373.11 nm  f=0.5277  <S**2>=0.000
      59 -> 60         0.69268
 This state for optimization and/or second-order correction.
 Total Energy, E(TD-HF/TD-DFT) =  -1028.69190577
 Copying the excited state density for this state as the 1-particle RhoCI density.

 Excited state symmetry could not be determined.
 Excited State   2:      Singlet-?Sym    4.3808 eV  283.02 nm  f=0.3393  <S**2>=0.000
      57 -> 60         0.13907
      58 -> 60         0.66090
      59 -> 64        -0.10262

 Excited state symmetry could not be determined.
 Excited State   3:      Singlet-?Sym    4.7295 eV  262.15 nm  f=0.0528  <S**2>=0.000
      55 -> 61        -0.10995
      57 -> 60         0.57968
      57 -> 62        -0.15428
      58 -> 60        -0.14178
      58 -> 61        -0.19129
      59 -> 61        -0.23213

 Alpha  occ. eigenvalues --  -89.09572 -19.25507 -14.48630 -10.40493 -10.37375
 Alpha  occ. eigenvalues --  -10.35969 -10.35279 -10.32587 -10.32041 -10.32002
 Alpha  occ. eigenvalues --  -10.31830 -10.31779 -10.31730 -10.31623 -10.29994
 Alpha  occ. eigenvalues --  -10.29694  -8.11560  -6.06414  -6.06064  -6.05609
 Alpha  occ. eigenvalues --   -1.14579  -1.09293  -0.97128  -0.95535  -0.92417
 Alpha  occ. eigenvalues --   -0.88907  -0.85499  -0.83918  -0.82311  -0.75888
 Alpha  occ. eigenvalues --   -0.71289  -0.70731  -0.68740  -0.68062  -0.63537
 Alpha  occ. eigenvalues --   -0.60784  -0.59166  -0.58060  -0.55539  -0.54482
 Alpha  occ. eigenvalues --   -0.54334  -0.53347  -0.52794  -0.51006  -0.49853
 Alpha  occ. eigenvalues --   -0.49754  -0.47164  -0.46276  -0.45588  -0.44930
 Alpha  occ. eigenvalues --   -0.44104  -0.42911  -0.42318  -0.40531  -0.36554
 Alpha  occ. eigenvalues --   -0.35645  -0.32608  -0.31223  -0.27626
 Alpha virt. eigenvalues --   -0.01757   0.04633   0.06680   0.07122   0.07862
 Alpha virt. eigenvalues --    0.10743   0.13989   0.15004   0.16321   0.17863
 Alpha virt. eigenvalues --    0.18742   0.20872   0.21589   0.22229   0.22564

 Mulliken charges:
               1
     1  C    0.016853
     2  C   -0.231064
     3  C    0.261875
     4  C   -0.016280
     5  C    0.008673
     6  C   -0.002556
     7  H    0.020557
     8  H    0.023186
     9  H    0.022075
    10  H    0.022661
    11  N   -0.323493
    12  S    0.177073
    13  C   -0.103688
    14  C   -0.022820
    15  C    0.117680
    16  C   -0.023793
    17  H    0.011183
    18  C   -0.007939
    19  C    0.027476
    20  H    0.007655
    21  H    0.012842
    22  H    0.020238
    23  C    0.076904
    24  O   -0.315537
    25  H    0.220238
 Sum of Mulliken charges =  -0.00000

 Dipole moment (field-independent basis, Debye):
    X=              0.2531    Y=             -3.3441    Z=             -0.0000  Tot=              3.3537
 Quadrupole moment (field-independent basis, Debye-Ang):
   XX=            -83.1899   YY=            -91.0915   ZZ=           -104.2826
   XY=             -6.9542   XZ=             -0.0001   YZ=              0.0001

  Exact polarizability:     369.507    -152.235     333.012      -0.002       0.003      63.301
 Approx polarizability:     275.035     -35.139     260.912      -0.001       0.002      82.314

 ******    1 imaginary frequencies (negative Signs) ******

                      1                      2                      3
                      A                      A                      A
 Frequencies --  -1037.7187                43.0737                55.4572
 Red. masses --      1.0930                 5.7495                 6.8697
 Frc consts  --      0.6935                 0.0063                 0.0124
 IR Inten    --   1133.0233                 1.0372                 0.5240

                      4                      5                      6
                      A                      A                      A
 Frequencies --    111.5519               141.2170               177.3217
 Red. masses --      5.0119                 5.7137                 6.0450
 Frc consts  --      0.0367                 0.0671                 0.1120
 IR Inten    --      0.0068                 4.7510                 0.7250

                      7                      8                      9
                      A                      A                      A
 Frequencies --    221.4239               271.5939               274.1464
 Red. masses --      5.3762                 4.7453                 7.4250
 Frc consts  --      0.1553                 0.2062                 0.3288
 IR Inten    --      0.0514                 0.1223                14.1922

                     10                     11                     12
                      A                      A                      A
 Frequencies --    374.5593               381.4498               412.4345
 Red. masses --      4.8652                 6.0533                11.5086
 Frc consts  --      0.4022                 0.5189                 1.1534
 IR Inten    --      0.2969                 2.8533                 5.1630

                     13                     14                     15
                      A                      A                      A
 Frequencies --    437.9379               477.4204               497.9345
 Red. masses --      3.2274                 4.8109                 3.1678
 Frc consts  --      0.3647                 0.6461                 0.4628
 IR Inten    --      4.6189                 0.0678                 0.3549

                     16                     17                     18
                      A                      A                      A
 Frequencies --    505.9091               540.2888               557.8120
 Red. masses --      8.8508                 8.3570                 3.8963
 Frc consts  --      1.3347                 1.4373                 0.7143
 IR Inten    --      1.0220                 9.1386                 0.2325

                     19                     20                     21
                      A                      A                      A
 Frequencies --    577.9389               616.9172               682.3775
 Red. masses --      7.5701                 7.1840                 6.8691
 Frc consts  --      1.4898                 1.6109                 1.8845
 IR Inten    --      1.4467                 5.4880               130.2781

                     22                     23                     24
                      A                      A                      A
 Frequencies --    698.9432               721.5014               741.6654
 Red. masses --      1.6246                 6.4023                 2.1702
 Frc consts  --      0.4676                 1.9636                 0.7033
 IR Inten    --     42.9583                44.8779                20.7180

                     25                     26                     27
                      A                      A                      A
 Frequencies --    747.0158               761.2225               768.3576
 Red. masses --      9.5074                 1.9239                 1.8230
 Frc consts  --      3.1259                 0.6568                 0.6341
 IR Inten    --     21.5636                21.5138                65.8572

                     28                     29                     30
                      A                      A                      A
 Frequencies --    819.0411               825.5618               863.8441
 Red. masses --      1.6582                 6.2722                 1.4009
 Frc consts  --      0.6554                 2.5186                 0.6159
 IR Inten    --      0.0065                 4.7229                 0.9883

                     31                     32                     33
                      A                      A                      A
 Frequencies --    907.6894               915.1259               954.3976
 Red. masses --      1.3700                 6.7851                 1.3462
 Frc consts  --      0.6650                 3.3479                 0.7224
 IR Inten    --      5.0984                19.9666                 1.8148

                     34                     35                     36
                      A                      A                      A
 Frequencies --    958.4126               989.4789              1000.9282
 Red. masses --      1.3815                 7.4959                 1.2954
 Frc consts  --      0.7476                 4.3240                 0.7646
 IR Inten    --      0.4552                 8.9854                 0.0000

                     37                     38                     39
                      A                      A                      A
 Frequencies --   1039.7959              1048.6877              1087.0920
 Red. masses --      2.1325                 2.0522                 4.3811
 Frc consts  --      1.3584                 1.3297                 3.0505
 IR Inten    --      0.6619                 2.3034                64.5539

                     40                     41                     42
                      A                      A                      A
 Frequencies --   1131.5613              1151.4821              1171.4236
 Red. masses --      1.4421                 1.3452                 1.1587
 Frc consts  --      1.0879                 1.0509                 0.9368
 IR Inten    --     41.6992                18.4857                83.3572

                     43                     44                     45
                      A                      A                      A
 Frequencies --   1179.5633              1229.2093              1252.8369
 Red. masses --      1.1679                 1.0518                 1.8246
 Frc consts  --      0.9574                 0.9363                 1.6874
 IR Inten    --     31.5560                64.9207               101.3157

                     46                     47                     48
                      A                      A                      A
 Frequencies --   1264.7179              1295.9047              1358.5861
 Red. masses --      2.7780                 2.1951                 3.9257
 Frc consts  --      2.6180                 2.1719                 4.2691
 IR Inten    --     31.9066                13.5608               137.2487

                     49                     50                     51
                      A                      A                      A
 Frequencies --   1369.7502              1390.9261              1404.8948
 Red. masses --      5.6162                 2.6151                 2.3765
 Frc consts  --      6.2084                 2.9809                 2.7636
 IR Inten    --    305.9451                12.0382                 7.9658

                     52                     53                     54
                      A                      A                      A
 Frequencies --   1445.6569              1478.7633              1513.3155
 Red. masses --      3.0600                 3.3065                 4.4703
 Frc consts  --      3.7680                 4.2601                 6.0318
 IR Inten    --    333.4386                94.3470               133.2990

                     55                     56                     57
                      A                      A                      A
 Frequencies --   1522.0944              1543.4883              1567.0241
 Red. masses --      4.6029                 4.8870                 4.7653
 Frc consts  --      6.2830                 6.8597                 6.8944
 IR Inten    --    269.9750                78.8960               356.6212

                     58                     59                     60
                      A                      A                      A
 Frequencies --   1620.5224              1643.1734              1654.2003
 Red. masses --      6.0132                 6.1717                 6.3540
 Frc consts  --      9.3039                 9.8180                10.2441
 IR Inten    --    121.9921              1013.3353                68.5278

                     61                     62                     63
                      A                      A                      A
 Frequencies --   1832.8232              3206.4026              3208.2989
 Red. masses --      1.0915                 1.0874                 1.0863
 Frc consts  --      2.1602                 6.5866                 6.5879
 IR Inten    --     81.9071                13.9816                 7.8001

                     64                     65                     66
                      A                      A                      A
 Frequencies --   3218.3502              3219.6391              3226.8081
 Red. masses --      1.0882                 1.0901                 1.0934
 Frc consts  --      6.6412                 6.6576                 6.7076
 IR Inten    --      3.2388                 3.0859                15.8769

                     67                     68                     69
                      A                      A                      A
 Frequencies --   3231.0473              3237.3157              3239.0156
 Red. masses --      1.0952                 1.0992                 1.0985
 Frc consts  --      6.7365                 6.7870                 6.7900
 IR Inten    --     10.2828                30.4630                15.4822

 - Thermochemistry -
 -------------------
 Temperature   298.150 Kelvin.  Pressure   1.00000 Atm.
 Atom     1 has atomic number  6 and mass  12.00000

 Molecular mass:   227.04049 amu.
 Principal axes and moments of inertia in atomic units:
                           1         2         3
     Eigenvalues --  1304.532156309.044377613.57652
           X           -0.70412   0.71008   0.00000
           Y            0.71008   0.70412  -0.00001
           Z            0.00001   0.00001   1.00000
 This molecule is an asymmetric top.
 Rotational symmetry number  1.
 Warning -- assumption of classical behavior for rotation
           may cause significant error
 Rotational temperatures (Kelvin)      0.06639     0.01373     0.01138
 Rotational constants (GHZ):           1.38344     0.28606     0.23704
    1 imaginary frequencies ignored.
 Zero-point vibrational energy     478603.9 (Joules/Mol)
                                  114.38908 (Kcal/Mol)
 Warning -- explicit consideration of  19 degrees of freedom as
           vibrations may cause significant error
 Vibrational temperatures:     61.97    79.79   160.50   203.18   255.13
          (Kelvin)            318.58   390.76   394.44   538.91   548.82
                              593.40   630.09   686.90   716.42   727.89
                              777.36   802.57   831.53   887.61   981.79
                             1005.62  1038.08  1067.09  1074.79  1095.23
                             1105.50  1178.42  1187.80  1242.88  1305.96
                             1316.66  1373.17  1378.94  1423.64  1440.11
                             1496.03  1508.83  1564.08  1628.06  1656.73
                             1685.42  1697.13  1768.56  1802.55  1819.65
                             1864.52  1954.70  1970.77  2001.23  2021.33
                             2079.98  2127.61  2177.32  2189.95  2220.74
                             2254.60  2331.57  2364.16  2380.03  2637.02
                             4613.30  4616.03  4630.49  4632.34  4642.66
                             4648.76  4657.78  4660.22

 Zero-point correction=                           0.182291 (Hartree/Particle)
 Thermal correction to Energy=                    0.194299
 Thermal correction to Enthalpy=                  0.195243
 Thermal correction to Gibbs Free Energy=         0.143168
 Sum of electronic and zero-point Energies=          -1028.509615
 Sum of electronic and thermal Energies=             -1028.497607
 Sum of electronic and thermal Enthalpies=           -1028.496663
 Sum of electronic and thermal Free Energies=        -1028.548738

                     E (Thermal)             CV                S
                      KCal/Mol        Cal/Mol-Kelvin    Cal/Mol-Kelvin
 Total                  121.924             48.290            109.600
 Electronic               0.000              0.000              0.000
 Translational            0.889              2.981             42.162
 Rotational               0.889              2.981             32.505
 Vibrational            120.147             42.329             34.933
 Vibration     1          0.595              1.980              5.112
 Vibration     2          0.596              1.975              4.613
 Vibration     3          0.607              1.940              3.242
 Vibration     4          0.615              1.912              2.787
 Vibration     5          0.628              1.870              2.356
 Vibration     6          0.648              1.808              1.947
 Vibration     7          0.675              1.726              1.586
 Vibration     8          0.676              1.721              1.570
 Vibration     9          0.746              1.524              1.061
 Vibration    10          0.751              1.510              1.033
 Vibration    11          0.776              1.443              0.918
 Vibration    12          0.798              1.387              0.833
 Vibration    13          0.834              1.300              0.717
 Vibration    14          0.853              1.255              0.663
 Vibration    15          0.861              1.237              0.644
 Vibration    16          0.895              1.161              0.565
 Vibration    17          0.913              1.123              0.528
 Vibration    18          0.934              1.079              0.489
 Vibration    19          0.977              0.996              0.421

 Optimization completed.
    -- Stationary point found.
 Normal termination of Gaussian 16 at Mon Jul 13 14:55:18 2020.
