 Gaussian 16, Revision C.01,
 Gaussian 16:  ES64L-G16RevC.01  3-Jul-2019

 ----------------------------------------------------------------------
 #p opt=addgic freq td wb97xd/cc-pvdz nosymm int=ultrafine scrf=(solven
 t=CarbonTetraChloride)
 ----------------------------------------------------------------------

 ------------------------------------------------
 NM 2D-scan of HBT TD-WB97XD pVDZ in CTC Relaxed.
 ------------------------------------------------
 Symbolic Z-matrix:
 Charge =  0 Multiplicity = 1

 SCF Done:  E(RwB97XD) =  -1028.78295928     A.U. after   16 cycles
 Total Energy, E(TD-HF/TD-DFT) =  -1028.67515632
 SCF Done:  E(RwB97XD) =  -1028.79612874     A.U. after   13 cycles
 Total Energy, E(TD-HF/TD-DFT) =  -1028.69423772
 SCF Done:  E(RwB97XD) =  -1028.80290130     A.U. after   13 cycles
 Total Energy, E(TD-HF/TD-DFT) =  -1028.69678080
 SCF Done:  E(RwB97XD) =  -1028.80247056     A.U. after   12 cycles
 Total Energy, E(TD-HF/TD-DFT) =  -1028.69744055
 SCF Done:  E(RwB97XD) =  -1028.80246735     A.U. after    9 cycles
 Total Energy, E(TD-HF/TD-DFT) =  -1028.69745091
 Optimization completed.
    -- Stationary point found.
 Normal termination of Gaussian 16 at Mon Jul 13 16:51:39 2020.

 ----------------------------------------------------------------------
 #P Geom=AllCheck Guess=TCheck SCRF=Check GenChk RwB97XD TD(FC,Read)/CC
 -pVDZ Freq
 ----------------------------------------------------------------------

 Structure from the checkpoint file:  "config_10_5.chk"
 ------------------------------------------------
 NM 2D-scan of HBT TD-WB97XD pVDZ in CTC Relaxed.
 ------------------------------------------------
 Charge =  0 Multiplicity = 1

                          Input orientation:
 ---------------------------------------------------------------------
 Center     Atomic      Atomic             Coordinates (Angstroms)
 Number     Number       Type             X           Y           Z
 ---------------------------------------------------------------------
      1          6           0        1.723383   -3.287113   -0.000007
      2          6           0        1.016676   -2.087393   -0.000011
      3          6           0        1.709520   -0.865315   -0.000027
      4          6           0        3.109853   -0.810497   -0.000035
      5          6           0        3.802304   -2.012228   -0.000029
      6          6           0        3.120334   -3.237146   -0.000017
      7          1           0        1.203326   -4.245440    0.000005
      8          1           0        3.622163    0.151928   -0.000044
      9          1           0        4.893309   -2.002455   -0.000035
     10          1           0        3.685767   -4.169646   -0.000014
     11          7           0        0.866553    0.192805   -0.000033
     12         16           0       -0.735495   -1.789915    0.000001
     13          6           0       -1.411791    1.049864   -0.000000
     14          6           0       -2.790866    0.890968   -0.000024
     15          6           0       -0.865071    2.440334    0.000041
     16          6           0       -3.678334    2.004358    0.000012
     17          1           0       -3.219478   -0.114426   -0.000067
     18          6           0       -1.808214    3.515707    0.000077
     19          6           0       -3.190563    3.307755    0.000067
     20          1           0       -4.753083    1.816703   -0.000001
     21          1           0       -1.381328    4.520215    0.000117
     22          1           0       -3.877269    4.155231    0.000097
     23          6           0       -0.471118   -0.045403   -0.000015
     24          8           0        0.374596    2.666822    0.000047
     25          1           0        1.154255    1.178144   -0.000026
 ---------------------------------------------------------------------

 SCF Done:  E(RwB97XD) =  -1028.80246735     A.U. after    1 cycles

 Excitation energies and oscillator strengths:

 Excited state symmetry could not be determined.
 Excited State   1:      Singlet-?Sym    2.8576 eV  433.87 nm  f=0.4351  <S**2>=0.000
      59 -> 60         0.69621
 This state for optimization and/or second-order correction.
 Total Energy, E(TD-HF/TD-DFT) =  -1028.69745092
 Copying the excited state density for this state as the 1-particle RhoCI density.

 Excited state symmetry could not be determined.
 Excited State   2:      Singlet-?Sym    3.6450 eV  340.15 nm  f=0.0000  <S**2>=0.000
      57 -> 60         0.68354
      57 -> 62         0.11772
      57 -> 64         0.11427

 Excited state symmetry could not be determined.
 Excited State   3:      Singlet-?Sym    4.3358 eV  285.95 nm  f=0.4627  <S**2>=0.000
      58 -> 60         0.68046

 Alpha  occ. eigenvalues --  -89.10774 -19.21143 -14.51984 -10.42329 -10.37235
 Alpha  occ. eigenvalues --  -10.36362 -10.35976 -10.33559 -10.33006 -10.32668
 Alpha  occ. eigenvalues --  -10.32473 -10.31509 -10.31393 -10.30665 -10.29147
 Alpha  occ. eigenvalues --  -10.28269  -8.12694  -6.07580  -6.07200  -6.06711
 Alpha  occ. eigenvalues --   -1.13227  -1.09592  -0.98422  -0.95066  -0.93204
 Alpha  occ. eigenvalues --   -0.89196  -0.86531  -0.84093  -0.80992  -0.76072
 Alpha  occ. eigenvalues --   -0.73405  -0.71826  -0.69066  -0.67578  -0.64948
 Alpha  occ. eigenvalues --   -0.60969  -0.59772  -0.56663  -0.56021  -0.55677
 Alpha  occ. eigenvalues --   -0.54982  -0.53623  -0.53086  -0.50851  -0.49062
 Alpha  occ. eigenvalues --   -0.48776  -0.48261  -0.46948  -0.45513  -0.44812
 Alpha  occ. eigenvalues --   -0.44388  -0.42913  -0.42074  -0.40231  -0.36873
 Alpha  occ. eigenvalues --   -0.33713  -0.31714  -0.31489  -0.25805
 Alpha virt. eigenvalues --   -0.02132   0.03661   0.05947   0.06298   0.09317
 Alpha virt. eigenvalues --    0.10637   0.12209   0.14568   0.16072   0.17206
 Alpha virt. eigenvalues --    0.18799   0.20029   0.21000   0.21352   0.23034

 Mulliken charges:
               1
     1  C    0.013109
     2  C   -0.248936
     3  C    0.257728
     4  C   -0.010136
     5  C    0.014533
     6  C    0.000101
     7  H    0.026861
     8  H    0.033334
     9  H    0.028220
    10  H    0.027224
    11  N   -0.110067
    12  S    0.199175
    13  C   -0.112309
    14  C   -0.023280
    15  C    0.118842
    16  C   -0.038659
    17  H    0.001731
    18  C   -0.029523
    19  C    0.034026
    20  H    0.002210
    21  H    0.000760
    22  H    0.014018
    23  C    0.066508
    24  O   -0.401998
    25  H    0.136528
 Sum of Mulliken charges =  -0.00000

 Dipole moment (field-independent basis, Debye):
    X=              1.9586    Y=             -5.5991    Z=             -0.0001  Tot=              5.9318
 Quadrupole moment (field-independent basis, Debye-Ang):
   XX=            -82.3785   YY=            -95.1765   ZZ=           -104.2541
   XY=             -6.5958   XZ=             -0.0002   YZ=             -0.0001

  Exact polarizability:     349.249    -122.643     298.569      -0.002       0.003      63.337
 Approx polarizability:     275.124     -38.193     266.460      -0.001       0.002      82.126

 ******    1 imaginary frequencies (negative Signs) ******

                      1                      2                      3
                      A                      A                      A
 Frequencies --    -75.7548                43.7921               104.4754
 Red. masses --      6.9175                 6.4524                 4.8164
 Frc consts  --      0.0234                 0.0073                 0.0310
 IR Inten    --      1.5750                 1.7282                 0.1463

                      4                      5                      6
                      A                      A                      A
 Frequencies --    115.1400               174.5592               225.3577
 Red. masses --      5.7428                 5.2289                 5.4046
 Frc consts  --      0.0449                 0.0939                 0.1617
 IR Inten    --      7.3596                 0.0940                 0.2852

                      7                      8                      9
                      A                      A                      A
 Frequencies --    264.4038               270.6189               321.9581
 Red. masses --      7.5976                 4.6213                 7.4291
 Frc consts  --      0.3129                 0.1994                 0.4537
 IR Inten    --      0.8393                 0.8473                 4.4800

                     10                     11                     12
                      A                      A                      A
 Frequencies --    351.4441               383.8059               431.6798
 Red. masses --      4.8275                 8.8044                 3.4104
 Frc consts  --      0.3513                 0.7641                 0.3744
 IR Inten    --      1.0096                 5.6031                 4.1642

                     13                     14                     15
                      A                      A                      A
 Frequencies --    451.7318               501.4296               508.5136
 Red. masses --      4.5815                 8.4195                 3.1933
 Frc consts  --      0.5508                 1.2473                 0.4865
 IR Inten    --      2.7967                 8.7086                 0.5187

                     16                     17                     18
                      A                      A                      A
 Frequencies --    539.4252               555.9856               564.8274
 Red. masses --      8.7867                 3.8170                 6.8245
 Frc consts  --      1.5064                 0.6952                 1.2828
 IR Inten    --      9.4505                 1.0129                23.2925

                     19                     20                     21
                      A                      A                      A
 Frequencies --    569.3737               640.5498               688.8319
 Red. masses --      7.5063                 6.1805                 1.5692
 Frc consts  --      1.4337                 1.4941                 0.4387
 IR Inten    --     24.3707                56.9853                38.3452

                     22                     23                     24
                      A                      A                      A
 Frequencies --    700.7333               726.8408               742.7788
 Red. masses --      6.4109                 8.1424                 2.5570
 Frc consts  --      1.8547                 2.5344                 0.8312
 IR Inten    --      1.2684                 3.9985                13.6662

                     25                     26                     27
                      A                      A                      A
 Frequencies --    762.0922               766.5664               810.5227
 Red. masses --      1.7553                 1.6280                 6.4596
 Frc consts  --      0.6006                 0.5636                 2.5003
 IR Inten    --      6.5479                68.5695                18.4501

                     28                     29                     30
                      A                      A                      A
 Frequencies --    838.7359               846.5442               866.6416
 Red. masses --      1.3669                 1.3471                 1.3653
 Frc consts  --      0.5665                 0.5688                 0.6042
 IR Inten    --     20.2050                48.7228                11.5191

                     31                     32                     33
                      A                      A                      A
 Frequencies --    890.5142               906.8643               953.7164
 Red. masses --      5.0784                 1.4287                 1.3628
 Frc consts  --      2.3728                 0.6923                 0.7303
 IR Inten    --      3.4360                 9.8610                 1.0745

                     34                     35                     36
                      A                      A                      A
 Frequencies --    957.5480               957.7574              1004.0163
 Red. masses --      1.3481                 5.4893                 1.2939
 Frc consts  --      0.7283                 2.9667                 0.7685
 IR Inten    --      1.7291                 1.0945                 0.0083

                     37                     38                     39
                      A                      A                      A
 Frequencies --   1044.4118              1052.2245              1080.1175
 Red. masses --      2.2387                 2.1929                 4.0563
 Frc consts  --      1.4387                 1.4305                 2.7882
 IR Inten    --      0.3776                 8.6209                 1.2563

                     40                     41                     42
                      A                      A                      A
 Frequencies --   1109.1097              1150.1499              1160.1769
 Red. masses --      1.5918                 1.3192                 1.1862
 Frc consts  --      1.1537                 1.0282                 0.9407
 IR Inten    --     38.8739                 4.9120                70.5193

                     43                     44                     45
                      A                      A                      A
 Frequencies --   1179.7815              1220.3152              1249.8560
 Red. masses --      1.1373                 2.0653                 2.2621
 Frc consts  --      0.9327                 1.8121                 2.0820
 IR Inten    --     24.6989                78.9409                24.0760

                     46                     47                     48
                      A                      A                      A
 Frequencies --   1291.3919              1302.7075              1335.1433
 Red. masses --      1.5608                 1.8975                 4.5500
 Frc consts  --      1.5336                 1.8973                 4.7788
 IR Inten    --     82.6179                88.8967                29.6778

                     49                     50                     51
                      A                      A                      A
 Frequencies --   1370.5439              1392.8931              1399.4192
 Red. masses --      3.4978                 2.3509                 3.3578
 Frc consts  --      3.8711                 2.6874                 3.8744
 IR Inten    --     92.9273                39.4379                22.9372

                     52                     53                     54
                      A                      A                      A
 Frequencies --   1441.1394              1478.7652              1512.8631
 Red. masses --      3.2095                 2.7529                 2.9505
 Frc consts  --      3.9273                 3.5468                 3.9788
 IR Inten    --    272.0494                 4.8701                24.1633

                     55                     56                     57
                      A                      A                      A
 Frequencies --   1530.5330              1572.4645              1590.5038
 Red. masses --      3.9729                 5.4926                 4.6248
 Frc consts  --      5.4833                 8.0018                 6.8930
 IR Inten    --     56.8642               207.8207                75.5340

                     58                     59                     60
                      A                      A                      A
 Frequencies --   1627.5514              1657.3358              1673.4897
 Red. masses --      6.8104                 6.5348                 6.6823
 Frc consts  --     10.6290                10.5756                11.0261
 IR Inten    --    176.7392                 6.7885               207.3419

                     61                     62                     63
                      A                      A                      A
 Frequencies --   3189.2376              3209.1493              3212.8113
 Red. masses --      1.0893                 1.0862                 1.0864
 Frc consts  --      6.5280                 6.5911                 6.6071
 IR Inten    --     17.9986                 2.1634                 6.2492

                     64                     65                     66
                      A                      A                      A
 Frequencies --   3221.4618              3223.8660              3232.4678
 Red. masses --      1.0919                 1.0901                 1.0962
 Frc consts  --      6.6763                 6.6753                 6.7484
 IR Inten    --     13.5357                 2.5799                 7.1600

                     67                     68                     69
                      A                      A                      A
 Frequencies --   3233.6746              3240.3252              3353.4391
 Red. masses --      1.0989                 1.0994                 1.0858
 Frc consts  --      6.7704                 6.8013                 7.1944
 IR Inten    --     27.9368                14.5958               910.5853

 - Thermochemistry -
 -------------------
 Temperature   298.150 Kelvin.  Pressure   1.00000 Atm.
 Atom     1 has atomic number  6 and mass  12.00000

 Molecular mass:   227.04049 amu.
 Principal axes and moments of inertia in atomic units:
                           1         2         3
     Eigenvalues --  1313.333286439.008637752.34190
           X           -0.70267   0.71151   0.00000
           Y            0.71151   0.70267  -0.00001
           Z            0.00001   0.00001   1.00000
 This molecule is an asymmetric top.
 Rotational symmetry number  1.
 Warning -- assumption of classical behavior for rotation
           may cause significant error
 Rotational temperatures (Kelvin)      0.06595     0.01345     0.01117
 Rotational constants (GHZ):           1.37417     0.28028     0.23280
    1 imaginary frequencies ignored.
 Zero-point vibrational energy     490343.9 (Joules/Mol)
                                  117.19500 (Kcal/Mol)
 Warning -- explicit consideration of  18 degrees of freedom as
           vibrations may cause significant error
 Vibrational temperatures:     63.01   150.32   165.66   251.15   324.24
          (Kelvin)            380.42   389.36   463.23   505.65   552.21
                              621.09   649.94   721.45   731.64   776.11
                              799.94   812.66   819.20   921.61   991.08
                             1008.20  1045.76  1068.69  1096.48  1102.92
                             1166.16  1206.75  1217.99  1246.90  1281.25
                             1304.78  1372.19  1377.70  1378.00  1444.56
                             1502.68  1513.92  1554.05  1595.76  1654.81
                             1669.24  1697.44  1755.76  1798.26  1858.02
                             1874.31  1920.97  1971.91  2004.06  2013.45
                             2073.48  2127.61  2176.67  2202.10  2262.43
                             2288.38  2341.68  2384.54  2407.78  4588.60
                             4617.25  4622.52  4634.97  4638.42  4650.80
                             4652.54  4662.11  4824.85

 Zero-point correction=                           0.186762 (Hartree/Particle)
 Thermal correction to Energy=                    0.198308
 Thermal correction to Enthalpy=                  0.199253
 Thermal correction to Gibbs Free Energy=         0.148622
 Sum of electronic and zero-point Energies=          -1028.510689
 Sum of electronic and thermal Energies=             -1028.499142
 Sum of electronic and thermal Enthalpies=           -1028.498198
 Sum of electronic and thermal Free Energies=        -1028.548829

                     E (Thermal)             CV                S
                      KCal/Mol        Cal/Mol-Kelvin    Cal/Mol-Kelvin
 Total                  124.440             47.586            106.561
 Electronic               0.000              0.000              0.000
 Translational            0.889              2.981             42.162
 Rotational               0.889              2.981             32.550
 Vibrational            122.663             41.625             31.849
 Vibration     1          0.595              1.980              5.080
 Vibration     2          0.605              1.946              3.369
 Vibration     3          0.608              1.937              3.180
 Vibration     4          0.627              1.874              2.386
 Vibration     5          0.650              1.802              1.916
 Vibration     6          0.671              1.738              1.633
 Vibration     7          0.674              1.727              1.592
 Vibration     8          0.707              1.631              1.300
 Vibration     9          0.728              1.572              1.160
 Vibration    10          0.753              1.505              1.024
 Vibration    11          0.793              1.401              0.853
 Vibration    12          0.810              1.357              0.791
 Vibration    13          0.857              1.247              0.655
 Vibration    14          0.864              1.231              0.637
 Vibration    15          0.894              1.163              0.567
 Vibration    16          0.911              1.127              0.532
 Vibration    17          0.921              1.107              0.514
 Vibration    18          0.925              1.097              0.505

 Optimization completed.
    -- Stationary point found.
 Normal termination of Gaussian 16 at Mon Jul 13 17:10:04 2020.
