 Gaussian 16, Revision C.01,
 Gaussian 16:  ES64L-G16RevC.01  3-Jul-2019

 ----------------------------------------------------------------------
 #p opt=addgic freq td wb97xd/cc-pvdz nosymm int=ultrafine scrf=(solven
 t=CarbonTetraChloride)
 ----------------------------------------------------------------------

 ------------------------------------------------
 NM 2D-scan of HBT TD-WB97XD pVDZ in CTC Relaxed.
 ------------------------------------------------
 Symbolic Z-matrix:
 Charge =  0 Multiplicity = 1

 SCF Done:  E(RwB97XD) =  -1028.55239736     A.U. after   16 cycles
 Total Energy, E(TD-HF/TD-DFT) =  -1028.44777945
 SCF Done:  E(RwB97XD) =  -1028.72880040     A.U. after   14 cycles
 Total Energy, E(TD-HF/TD-DFT) =  -1028.62687266
 SCF Done:  E(RwB97XD) =  -1028.76940368     A.U. after   15 cycles
 Total Energy, E(TD-HF/TD-DFT) =  -1028.67256987
 SCF Done:  E(RwB97XD) =  -1028.78408371     A.U. after   14 cycles
 Total Energy, E(TD-HF/TD-DFT) =  -1028.68519378
 SCF Done:  E(RwB97XD) =  -1028.78440976     A.U. after   13 cycles
 Total Energy, E(TD-HF/TD-DFT) =  -1028.68560790
 SCF Done:  E(RwB97XD) =  -1028.78551916     A.U. after   12 cycles
 Total Energy, E(TD-HF/TD-DFT) =  -1028.68584607
 SCF Done:  E(RwB97XD) =  -1028.78550629     A.U. after   10 cycles
 Total Energy, E(TD-HF/TD-DFT) =  -1028.68585592
 Optimization completed.
    -- Stationary point found.
 Normal termination of Gaussian 16 at Tue Jul 14 11:44:05 2020.

 ----------------------------------------------------------------------
 #P Geom=AllCheck Guess=TCheck SCRF=Check GenChk RwB97XD TD(FC,Read)/CC
 -pVDZ Freq
 ----------------------------------------------------------------------

 Structure from the checkpoint file:  "config_12_9_fixed.chk"
 ------------------------------------------------
 NM 2D-scan of HBT TD-WB97XD pVDZ in CTC Relaxed.
 ------------------------------------------------
 Charge =  0 Multiplicity = 1

                          Input orientation:
 ---------------------------------------------------------------------
 Center     Atomic      Atomic             Coordinates (Angstroms)
 Number     Number       Type             X           Y           Z
 ---------------------------------------------------------------------
      1          6           0        1.680023   -3.298236    0.000031
      2          6           0        1.025441   -2.073352    0.000000
      3          6           0        1.755494   -0.891642   -0.000047
      4          6           0        3.155487   -0.879706   -0.000051
      5          6           0        3.802609   -2.110858   -0.000015
      6          6           0        3.077115   -3.306522    0.000022
      7          1           0        1.119122   -4.232685    0.000059
      8          1           0        3.709897    0.059925   -0.000082
      9          1           0        4.893258   -2.139240   -0.000018
     10          1           0        3.606021   -4.259916    0.000044
     11          7           0        0.924721    0.186972   -0.000095
     12         16           0       -0.713371   -1.702144   -0.000003
     13          6           0       -1.412165    1.090996   -0.000014
     14          6           0       -2.771725    0.868302   -0.000048
     15          6           0       -0.897500    2.480429    0.000046
     16          6           0       -3.719076    1.949087    0.000013
     17          1           0       -3.157736   -0.154708   -0.000130
     18          6           0       -1.896124    3.521496    0.000111
     19          6           0       -3.280211    3.260534    0.000099
     20          1           0       -4.783773    1.710905   -0.000010
     21          1           0       -1.523489    4.547961    0.000189
     22          1           0       -3.997155    4.083298    0.000153
     23          6           0       -0.430992    0.018375   -0.000077
     24          8           0        0.332473    2.671243    0.000062
     25          1           0        1.444981    1.025707   -0.000161
 ---------------------------------------------------------------------

 SCF Done:  E(RwB97XD) =  -1028.78550629     A.U. after    1 cycles

 Excitation energies and oscillator strengths:

 Excited state symmetry could not be determined.
 Excited State   1:      Singlet-?Sym    2.7116 eV  457.23 nm  f=0.4294  <S**2>=0.000
      59 -> 60         0.69723
 This state for optimization and/or second-order correction.
 Total Energy, E(TD-HF/TD-DFT) =  -1028.68585592
 Copying the excited state density for this state as the 1-particle RhoCI density.

 Excited state symmetry could not be determined.
 Excited State   2:      Singlet-?Sym    3.3205 eV  373.39 nm  f=0.0000  <S**2>=0.000
      58 -> 60         0.68420
      58 -> 62         0.11444
      58 -> 64         0.10353

 Excited state symmetry could not be determined.
 Excited State   3:      Singlet-?Sym    4.3093 eV  287.71 nm  f=0.4784  <S**2>=0.000
      57 -> 60         0.68263

 Alpha  occ. eigenvalues --  -89.10708 -19.20101 -14.52770 -10.42819 -10.37238
 Alpha  occ. eigenvalues --  -10.36266 -10.35338 -10.33666 -10.33406 -10.32938
 Alpha  occ. eigenvalues --  -10.32624 -10.31343 -10.30987 -10.30472 -10.28970
 Alpha  occ. eigenvalues --  -10.28036  -8.12692  -6.07579  -6.07183  -6.06711
 Alpha  occ. eigenvalues --   -1.13515  -1.09286  -0.98696  -0.95531  -0.93248
 Alpha  occ. eigenvalues --   -0.89108  -0.86765  -0.84192  -0.80541  -0.76040
 Alpha  occ. eigenvalues --   -0.74652  -0.71848  -0.69390  -0.67390  -0.64742
 Alpha  occ. eigenvalues --   -0.61050  -0.59840  -0.56499  -0.56299  -0.56031
 Alpha  occ. eigenvalues --   -0.55094  -0.53558  -0.53008  -0.50552  -0.48709
 Alpha  occ. eigenvalues --   -0.48691  -0.48185  -0.47053  -0.45589  -0.44835
 Alpha  occ. eigenvalues --   -0.44072  -0.42760  -0.42156  -0.39890  -0.36965
 Alpha  occ. eigenvalues --   -0.33871  -0.31601  -0.30611  -0.25261
 Alpha virt. eigenvalues --   -0.02278   0.03486   0.05768   0.06496   0.09800
 Alpha virt. eigenvalues --    0.10878   0.12520   0.14417   0.15974   0.16630
 Alpha virt. eigenvalues --    0.18072   0.19818   0.20862   0.21266   0.22774

 Mulliken charges:
               1
     1  C    0.013477
     2  C   -0.248045
     3  C    0.214420
     4  C   -0.012319
     5  C    0.014126
     6  C    0.003082
     7  H    0.026594
     8  H    0.034460
     9  H    0.029680
    10  H    0.028190
    11  N   -0.072859
    12  S    0.199557
    13  C   -0.084043
    14  C   -0.032939
    15  C    0.110338
    16  C   -0.040776
    17  H    0.002978
    18  C   -0.057303
    19  C    0.035188
    20  H    0.000917
    21  H   -0.002205
    22  H    0.013225
    23  C    0.087728
    24  O   -0.381200
    25  H    0.117728
 Sum of Mulliken charges =  -0.00000

 Dipole moment (field-independent basis, Debye):
    X=              2.6855    Y=             -6.1419    Z=             -0.0003  Tot=              6.7033
 Quadrupole moment (field-independent basis, Debye-Ang):
   XX=            -81.4370   YY=            -96.4185   ZZ=           -104.1853
   XY=             -6.0664   XZ=             -0.0004   YZ=             -0.0004

  Exact polarizability:     347.065    -117.952     289.903      -0.002       0.002      63.314
 Approx polarizability:     277.121     -40.986     265.299      -0.001       0.002      82.041

 ******    1 imaginary frequencies (negative Signs) ******

                      1                      2                      3
                      A                      A                      A
 Frequencies --   -114.6424                10.7924                77.9436
 Red. masses --      3.6563                 5.5532                 5.3487
 Frc consts  --      0.0283                 0.0004                 0.0191
 IR Inten    --     10.2940                 0.0192                 2.2737

                      4                      5                      6
                      A                      A                      A
 Frequencies --     93.2721               160.1707               200.9112
 Red. masses --      5.7039                 3.5730                 4.4944
 Frc consts  --      0.0292                 0.0540                 0.1069
 IR Inten    --      9.5954                 6.5838                15.5471

                      7                      8                      9
                      A                      A                      A
 Frequencies --    251.9116               258.9771               287.7778
 Red. masses --      3.5690                 7.7283                 7.9708
 Frc consts  --      0.1334                 0.3054                 0.3889
 IR Inten    --      7.4676                 2.6097                 2.5731

                     10                     11                     12
                      A                      A                      A
 Frequencies --    334.4771               350.1552               368.1338
 Red. masses --      3.3230                 2.3692                 6.8474
 Frc consts  --      0.2190                 0.1711                 0.5467
 IR Inten    --      6.6886                27.0294                 9.7933

                     13                     14                     15
                      A                      A                      A
 Frequencies --    434.4820               446.3597               496.3088
 Red. masses --      4.0869                 2.7422                 7.8367
 Frc consts  --      0.4546                 0.3219                 1.1373
 IR Inten    --      6.6934                 0.7035                14.8987

                     16                     17                     18
                      A                      A                      A
 Frequencies --    515.8991               536.5066               541.3126
 Red. masses --      3.2386                 6.1100                 8.9832
 Frc consts  --      0.5079                 1.0362                 1.5509
 IR Inten    --      0.6991                17.2668                45.3772

                     19                     20                     21
                      A                      A                      A
 Frequencies --    558.8527               565.6792               640.7134
 Red. masses --      3.7591                 7.3720                 6.1137
 Frc consts  --      0.6917                 1.3899                 1.4787
 IR Inten    --      0.0002                 5.5623                16.7327

                     22                     23                     24
                      A                      A                      A
 Frequencies --    686.7468               695.6447               734.6999
 Red. masses --      1.5259                 5.6591                 7.4892
 Frc consts  --      0.4240                 1.6135                 2.3818
 IR Inten    --     30.9015                 2.2578                 5.5924

                     25                     26                     27
                      A                      A                      A
 Frequencies --    743.6708               758.5186               767.7460
 Red. masses --      2.5425                 1.6968                 1.6550
 Frc consts  --      0.8285                 0.5752                 0.5747
 IR Inten    --     15.7480                12.5046                89.2916

                     28                     29                     30
                      A                      A                      A
 Frequencies --    814.5402               840.5622               863.6670
 Red. masses --      6.2797                 1.9512                 1.3788
 Frc consts  --      2.4548                 0.8122                 0.6060
 IR Inten    --     15.4362                 1.3849                 1.3239

                     31                     32                     33
                      A                      A                      A
 Frequencies --    896.7343               903.6616               953.4398
 Red. masses --      5.4275                 1.4371                 1.3565
 Frc consts  --      2.5715                 0.6914                 0.7265
 IR Inten    --      0.5958                 9.4844                 0.4458

                     34                     35                     36
                      A                      A                      A
 Frequencies --    954.8355               957.5654              1004.3587
 Red. masses --      3.8041                 1.3497                 1.2938
 Frc consts  --      2.0434                 0.7292                 0.7690
 IR Inten    --      2.1722                 1.6527                 0.0006

                     37                     38                     39
                      A                      A                      A
 Frequencies --   1033.2335              1057.4189              1081.1369
 Red. masses --      2.3185                 2.2743                 1.7682
 Frc consts  --      1.4583                 1.4982                 1.2177
 IR Inten    --      4.3377                12.8314               104.4200

                     40                     41                     42
                      A                      A                      A
 Frequencies --   1084.1428              1113.7378              1154.0978
 Red. masses --      3.5155                 1.5577                 1.3407
 Frc consts  --      2.4345                 1.1384                 1.0522
 IR Inten    --      5.1192                49.0497                 5.5695

                     43                     44                     45
                      A                      A                      A
 Frequencies --   1160.2722              1182.7194              1228.0520
 Red. masses --      1.1817                 1.1283                 3.8289
 Frc consts  --      0.9373                 0.9299                 3.4022
 IR Inten    --     18.1105                11.3581                27.3145

                     46                     47                     48
                      A                      A                      A
 Frequencies --   1238.5316              1301.1908              1334.2682
 Red. masses --      2.2532                 1.5499                 3.3212
 Frc consts  --      2.0364                 1.5461                 3.4836
 IR Inten    --     25.0560                 3.7614                19.6498

                     49                     50                     51
                      A                      A                      A
 Frequencies --   1359.7275              1396.7832              1405.7929
 Red. masses --      2.5956                 2.2400                 5.9992
 Frc consts  --      2.8274                 2.5749                 6.9853
 IR Inten    --     33.7518                49.4490                65.4403

                     52                     53                     54
                      A                      A                      A
 Frequencies --   1448.1760              1462.6476              1512.3844
 Red. masses --      2.7959                 3.2713                 3.6707
 Frc consts  --      3.4548                 4.1233                 4.9468
 IR Inten    --     81.1072                 6.3157               104.1903

                     55                     56                     57
                      A                      A                      A
 Frequencies --   1525.1855              1550.0920              1620.8985
 Red. masses --      2.8135                 5.5656                 5.3119
 Frc consts  --      3.8561                 7.8791                 8.2227
 IR Inten    --      2.7329               177.5017                96.9354

                     58                     59                     60
                      A                      A                      A
 Frequencies --   1654.0453              1664.6371              1688.7953
 Red. masses --      9.4448                 6.9330                 7.5456
 Frc consts  --     15.2243                11.3191                12.6794
 IR Inten    --    151.4244               101.0704                25.3529

                     61                     62                     63
                      A                      A                      A
 Frequencies --   3187.0945              3206.1363              3213.8988
 Red. masses --      1.0893                 1.0861                 1.0865
 Frc consts  --      6.5191                 6.5778                 6.6123
 IR Inten    --     24.8591                 2.4466                 6.1128

                     64                     65                     66
                      A                      A                      A
 Frequencies --   3218.5116              3225.8409              3232.0496
 Red. masses --      1.0912                 1.0903                 1.0990
 Frc consts  --      6.6601                 6.6850                 6.7638
 IR Inten    --     13.4323                 1.8667                27.0489

                     67                     68                     69
                      A                      A                      A
 Frequencies --   3232.7614              3242.9265              3931.7827
 Red. masses --      1.0961                 1.0990                 1.0789
 Frc consts  --      6.7493                 6.8094                 9.8267
 IR Inten    --      5.7016                12.8477               228.3421

 - Thermochemistry -
 -------------------
 Temperature   298.150 Kelvin.  Pressure   1.00000 Atm.
 Atom     1 has atomic number  6 and mass  12.00000

 Molecular mass:   227.04049 amu.
 Principal axes and moments of inertia in atomic units:
                           1         2         3
     Eigenvalues --  1273.175336536.819837809.99515
           X           -0.70656   0.70765   0.00000
           Y            0.70765   0.70656  -0.00001
           Z            0.00001   0.00001   1.00000
 This molecule is an asymmetric top.
 Rotational symmetry number  1.
 Warning -- assumption of classical behavior for rotation
           may cause significant error
 Rotational temperatures (Kelvin)      0.06803     0.01325     0.01109
 Rotational constants (GHZ):           1.41751     0.27609     0.23108
    1 imaginary frequencies ignored.
 Zero-point vibrational energy     488411.3 (Joules/Mol)
                                  116.73311 (Kcal/Mol)
 Warning -- explicit consideration of  19 degrees of freedom as
           vibrations may cause significant error
 Vibrational temperatures:     15.53   112.14   134.20   230.45   289.07
          (Kelvin)            362.44   372.61   414.05   481.24   503.80
                              529.66   625.12   642.21   714.08   742.26
                              771.91   778.83   804.06   813.89   921.84
                              988.08  1000.88  1057.07  1069.98  1091.34
                             1104.62  1171.94  1209.38  1242.62  1290.20
                             1300.17  1371.79  1373.80  1377.72  1445.05
                             1486.59  1521.39  1555.51  1559.84  1602.42
                             1660.49  1669.37  1701.67  1766.89  1781.97
                             1872.12  1919.71  1956.34  2009.66  2022.62
                             2083.60  2104.42  2175.98  2194.40  2230.24
                             2332.11  2379.80  2395.04  2429.80  4585.52
                             4612.92  4624.08  4630.72  4641.27  4650.20
                             4651.22  4665.85  5656.96

 Zero-point correction=                           0.186026 (Hartree/Particle)
 Thermal correction to Energy=                    0.198237
 Thermal correction to Enthalpy=                  0.199181
 Thermal correction to Gibbs Free Energy=         0.145841
 Sum of electronic and zero-point Energies=          -1028.499830
 Sum of electronic and thermal Energies=             -1028.487619
 Sum of electronic and thermal Enthalpies=           -1028.486675
 Sum of electronic and thermal Free Energies=        -1028.540015

                     E (Thermal)             CV                S
                      KCal/Mol        Cal/Mol-Kelvin    Cal/Mol-Kelvin
 Total                  124.395             49.047            112.263
 Electronic               0.000              0.000              0.000
 Translational            0.889              2.981             42.162
 Rotational               0.889              2.981             32.541
 Vibrational            122.618             43.085             37.560
 Vibration     1          0.593              1.987              7.860
 Vibration     2          0.599              1.964              3.942
 Vibration     3          0.602              1.954              3.590
 Vibration     4          0.622              1.891              2.548
 Vibration     5          0.638              1.839              2.125
 Vibration     6          0.664              1.760              1.717
 Vibration     7          0.668              1.748              1.669
 Vibration     8          0.685              1.696              1.487
 Vibration     9          0.716              1.607              1.238
 Vibration    10          0.727              1.575              1.165
 Vibration    11          0.741              1.538              1.088
 Vibration    12          0.795              1.395              0.844
 Vibration    13          0.806              1.369              0.807
 Vibration    14          0.852              1.258              0.667
 Vibration    15          0.871              1.215              0.620
 Vibration    16          0.892              1.169              0.573
 Vibration    17          0.896              1.159              0.562
 Vibration    18          0.914              1.120              0.526
 Vibration    19          0.922              1.106              0.513

 Optimization completed.
    -- Stationary point found.
 Normal termination of Gaussian 16 at Tue Jul 14 12:01:56 2020.
