 Gaussian 16, Revision C.01,
 Gaussian 16:  ES64L-G16RevC.01  3-Jul-2019

 ----------------------------------------------------------------------
 #p opt=addgic freq td wb97xd/cc-pvdz nosymm int=ultrafine scrf=(solven
 t=CarbonTetraChloride)
 ----------------------------------------------------------------------

 ------------------------------------------------
 NM 2D-scan of HBT TD-WB97XD pVDZ in CTC Relaxed.
 ------------------------------------------------
 Symbolic Z-matrix:
 Charge =  0 Multiplicity = 1

 SCF Done:  E(RwB97XD) =  -1028.81378387     A.U. after   15 cycles
 Total Energy, E(TD-HF/TD-DFT) =  -1028.69063049
 SCF Done:  E(RwB97XD) =  -1028.81395292     A.U. after   10 cycles
 Total Energy, E(TD-HF/TD-DFT) =  -1028.69063895
 SCF Done:  E(RwB97XD) =  -1028.81384628     A.U. after   10 cycles
 Total Energy, E(TD-HF/TD-DFT) =  -1028.69064765
 SCF Done:  E(RwB97XD) =  -1028.81383312     A.U. after    9 cycles
 Total Energy, E(TD-HF/TD-DFT) =  -1028.69065702
 SCF Done:  E(RwB97XD) =  -1028.81379852     A.U. after    9 cycles
 Total Energy, E(TD-HF/TD-DFT) =  -1028.69065735
 SCF Done:  E(RwB97XD) =  -1028.81378212     A.U. after    8 cycles
 Total Energy, E(TD-HF/TD-DFT) =  -1028.69065747
 Optimization completed.
    -- Stationary point found.
 Normal termination of Gaussian 16 at Mon Jul 13 15:03:11 2020.

 ----------------------------------------------------------------------
 #P Geom=AllCheck Guess=TCheck SCRF=Check GenChk RwB97XD TD(FC,Read)/CC
 -pVDZ Freq
 ----------------------------------------------------------------------

 Structure from the checkpoint file:  "config_6_4.chk"
 ------------------------------------------------
 NM 2D-scan of HBT TD-WB97XD pVDZ in CTC Relaxed.
 ------------------------------------------------
 Charge =  0 Multiplicity = 1

                          Input orientation:
 ---------------------------------------------------------------------
 Center     Atomic      Atomic             Coordinates (Angstroms)
 Number     Number       Type             X           Y           Z
 ---------------------------------------------------------------------
      1          6           0        1.719694   -3.269471   -0.000059
      2          6           0        1.000940   -2.075729   -0.000063
      3          6           0        1.677136   -0.822553    0.000014
      4          6           0        3.088190   -0.779292    0.000097
      5          6           0        3.787771   -1.971295    0.000099
      6          6           0        3.115271   -3.207704    0.000021
      7          1           0        1.208186   -4.232810   -0.000116
      8          1           0        3.593631    0.186963    0.000156
      9          1           0        4.879103   -1.955084    0.000162
     10          1           0        3.690619   -4.134505    0.000025
     11          7           0        0.868784    0.249505   -0.000005
     12         16           0       -0.743881   -1.812582   -0.000146
     13          6           0       -1.403713    1.007748   -0.000084
     14          6           0       -2.805134    0.870848   -0.000028
     15          6           0       -0.871563    2.397177   -0.000066
     16          6           0       -3.642648    1.992885    0.000108
     17          1           0       -3.246179   -0.127547   -0.000052
     18          6           0       -1.753577    3.498136    0.000100
     19          6           0       -3.129506    3.306293    0.000192
     20          1           0       -4.723402    1.841483    0.000168
     21          1           0       -1.303718    4.491501    0.000122
     22          1           0       -3.806955    4.160266    0.000308
     23          6           0       -0.454954   -0.051795   -0.000106
     24          8           0        0.405665    2.616597   -0.000251
     25          1           0        0.888055    1.600407   -0.000508
 ---------------------------------------------------------------------

 SCF Done:  E(RwB97XD) =  -1028.81378212     A.U. after    1 cycles

 Excitation energies and oscillator strengths:

 Excited state symmetry could not be determined.
 Excited State   1:      Singlet-?Sym    3.3504 eV  370.06 nm  f=0.5470  <S**2>=0.000
      59 -> 60         0.69225
 This state for optimization and/or second-order correction.
 Total Energy, E(TD-HF/TD-DFT) =  -1028.69065744
 Copying the excited state density for this state as the 1-particle RhoCI density.

 Excited state symmetry could not be determined.
 Excited State   2:      Singlet-?Sym    4.3857 eV  282.70 nm  f=0.3597  <S**2>=0.000
      57 -> 60         0.14144
      58 -> 60         0.65885
      59 -> 62        -0.10110
      59 -> 64        -0.10876

 Excited state symmetry could not be determined.
 Excited State   3:      Singlet-?Sym    4.6962 eV  264.01 nm  f=0.0394  <S**2>=0.000
      55 -> 61        -0.11083
      57 -> 60         0.57967
      57 -> 62        -0.15048
      58 -> 60        -0.13968
      58 -> 61        -0.18817
      59 -> 61        -0.23941

 Alpha  occ. eigenvalues --  -89.09668 -19.26001 -14.48019 -10.40559 -10.37557
 Alpha  occ. eigenvalues --  -10.35592 -10.35307 -10.32624 -10.32272 -10.32081
 Alpha  occ. eigenvalues --  -10.31833 -10.31737 -10.31673 -10.31599 -10.30030
 Alpha  occ. eigenvalues --  -10.29690  -8.11573  -6.06437  -6.06085  -6.05618
 Alpha  occ. eigenvalues --   -1.15270  -1.09195  -0.97002  -0.95395  -0.92072
 Alpha  occ. eigenvalues --   -0.88895  -0.85250  -0.84014  -0.82325  -0.75928
 Alpha  occ. eigenvalues --   -0.71179  -0.70440  -0.68769  -0.68327  -0.63426
 Alpha  occ. eigenvalues --   -0.60703  -0.59042  -0.58201  -0.55559  -0.54323
 Alpha  occ. eigenvalues --   -0.54322  -0.53248  -0.52640  -0.51188  -0.49869
 Alpha  occ. eigenvalues --   -0.49810  -0.47398  -0.46178  -0.45539  -0.44871
 Alpha  occ. eigenvalues --   -0.43914  -0.42809  -0.42400  -0.40396  -0.36536
 Alpha  occ. eigenvalues --   -0.35881  -0.32599  -0.31179  -0.27664
 Alpha virt. eigenvalues --   -0.01768   0.04698   0.06846   0.07021   0.07730
 Alpha virt. eigenvalues --    0.10766   0.13197   0.15021   0.16020   0.17865
 Alpha virt. eigenvalues --    0.18768   0.20854   0.21659   0.22344   0.22505

 Mulliken charges:
               1
     1  C    0.011849
     2  C   -0.234153
     3  C    0.266728
     4  C   -0.015194
     5  C    0.010291
     6  C   -0.004664
     7  H    0.021014
     8  H    0.022437
     9  H    0.021527
    10  H    0.022488
    11  N   -0.327074
    12  S    0.171511
    13  C   -0.111878
    14  C   -0.018099
    15  C    0.111255
    16  C   -0.024455
    17  H    0.007754
    18  C   -0.002452
    19  C    0.027009
    20  H    0.008477
    21  H    0.013512
    22  H    0.020197
    23  C    0.078236
    24  O   -0.283891
    25  H    0.207572
 Sum of Mulliken charges =  -0.00000

 Dipole moment (field-independent basis, Debye):
    X=              0.2583    Y=             -2.9917    Z=             -0.0001  Tot=              3.0028
 Quadrupole moment (field-independent basis, Debye-Ang):
   XX=            -83.3042   YY=            -90.4235   ZZ=           -104.3608
   XY=             -6.9249   XZ=             -0.0004   YZ=              0.0009

  Exact polarizability:     377.193    -159.508     342.398      -0.002       0.006      63.400
 Approx polarizability:     276.604     -35.474     261.883       0.000       0.005      82.399

 ******    1 imaginary frequencies (negative Signs) ******

                      1                      2                      3
                      A                      A                      A
 Frequencies --   -480.6000                 9.0806                46.6244
 Red. masses --      1.4327                 6.7569                 6.5950
 Frc consts  --      0.1950                 0.0003                 0.0084
 IR Inten    --    411.0394                 0.2028                 1.3813

                      4                      5                      6
                      A                      A                      A
 Frequencies --    105.4172               148.7948               176.0927
 Red. masses --      4.5746                 5.6576                 5.8907
 Frc consts  --      0.0300                 0.0738                 0.1076
 IR Inten    --      0.0678                12.9040                 0.6580

                      7                      8                      9
                      A                      A                      A
 Frequencies --    222.2832               269.6982               270.0192
 Red. masses --      5.3371                 4.7695                 7.4661
 Frc consts  --      0.1554                 0.2044                 0.3207
 IR Inten    --      0.0519                 0.1906                16.3847

                     10                     11                     12
                      A                      A                      A
 Frequencies --    378.2354               391.3383               416.0418
 Red. masses --      4.8586                 6.1823                 7.9515
 Frc consts  --      0.4095                 0.5578                 0.8109
 IR Inten    --      0.3969                 2.9587                 7.9877

                     13                     14                     15
                      A                      A                      A
 Frequencies --    437.6921               480.8115               495.6597
 Red. masses --      3.2221                 4.7346                 3.1707
 Frc consts  --      0.3637                 0.6449                 0.4590
 IR Inten    --      4.9234                 0.0005                 0.2791

                     16                     17                     18
                      A                      A                      A
 Frequencies --    504.7928               535.1933               555.3715
 Red. masses --      8.8434                 8.2934                 3.9152
 Frc consts  --      1.3277                 1.3996                 0.7115
 IR Inten    --      0.2623                13.6332                 0.2105

                     19                     20                     21
                      A                      A                      A
 Frequencies --    579.9954               627.8507               699.4838
 Red. masses --      7.4880                 7.0886                 1.6779
 Frc consts  --      1.4841                 1.6464                 0.4837
 IR Inten    --      0.1080                21.1426                40.6134

                     22                     23                     24
                      A                      A                      A
 Frequencies --    700.6231               738.5570               739.2556
 Red. masses --      6.7562                 9.6047                 2.0783
 Frc consts  --      1.9540                 3.0868                 0.6692
 IR Inten    --      3.8463                14.6851                21.3822

                     25                     26                     27
                      A                      A                      A
 Frequencies --    760.8204               768.2442               796.5850
 Red. masses --      1.9334                 1.8693                 4.6940
 Frc consts  --      0.6594                 0.6500                 1.7549
 IR Inten    --     26.1468                61.3133               213.9352

                     28                     29                     30
                      A                      A                      A
 Frequencies --    822.6962               827.1902               861.1346
 Red. masses --      1.6195                 5.2151                 1.4096
 Frc consts  --      0.6458                 2.1025                 0.6159
 IR Inten    --      0.0036                97.3760                 1.0033

                     31                     32                     33
                      A                      A                      A
 Frequencies --    910.8710               916.4196               953.7071
 Red. masses --      1.3670                 6.4695                 1.3444
 Frc consts  --      0.6683                 3.2012                 0.7205
 IR Inten    --      5.2923                 3.6549                 1.7476

                     34                     35                     36
                      A                      A                      A
 Frequencies --    958.3083               988.2394              1000.0754
 Red. masses --      1.3798                 7.0006                 1.2947
 Frc consts  --      0.7466                 4.0282                 0.7629
 IR Inten    --      0.5781                 3.2983                 0.0080

                     37                     38                     39
                      A                      A                      A
 Frequencies --   1038.2765              1047.5477              1081.5067
 Red. masses --      2.1870                 2.0433                 4.8033
 Frc consts  --      1.3891                 1.3211                 3.3101
 IR Inten    --      0.4552                 2.6821                59.0545

                     40                     41                     42
                      A                      A                      A
 Frequencies --   1133.0553              1150.1110              1171.4556
 Red. masses --      1.4073                 1.3242                 1.1572
 Frc consts  --      1.0645                 1.0320                 0.9356
 IR Inten    --     55.7663                16.6410                88.8051

                     43                     44                     45
                      A                      A                      A
 Frequencies --   1178.2679              1208.4816              1251.5945
 Red. masses --      1.1566                 1.0549                 1.8241
 Frc consts  --      0.9460                 0.9077                 1.6836
 IR Inten    --     43.4205                63.6465               110.6069

                     46                     47                     48
                      A                      A                      A
 Frequencies --   1260.0506              1291.1321              1354.7121
 Red. masses --      3.5415                 1.9196                 3.0229
 Frc consts  --      3.3129                 1.8854                 3.2686
 IR Inten    --     35.6847                12.8433               157.8200

                     49                     50                     51
                      A                      A                      A
 Frequencies --   1372.6441              1403.6241              1409.7557
 Red. masses --      5.8657                 2.1685                 2.7911
 Frc consts  --      6.5116                 2.5172                 3.2682
 IR Inten    --    206.1147                 5.2626                85.6075

                     52                     53                     54
                      A                      A                      A
 Frequencies --   1447.8744              1479.7255              1509.2756
 Red. masses --      3.1675                 3.3104                 4.9466
 Frc consts  --      3.9123                 4.2706                 6.6389
 IR Inten    --    323.0328               237.3801               430.8660

                     55                     56                     57
                      A                      A                      A
 Frequencies --   1536.8460              1540.5069              1560.0513
 Red. masses --      5.1375                 4.8652                 4.3623
 Frc consts  --      7.1492                 6.8027                 6.2552
 IR Inten    --      1.1371               103.1025               440.6923

                     58                     59                     60
                      A                      A                      A
 Frequencies --   1619.4706              1649.6919              1657.6708
 Red. masses --      6.0572                 5.8012                 5.7150
 Frc consts  --      9.3599                 9.3019                 9.2526
 IR Inten    --    158.1341               989.6373                44.4619

                     61                     62                     63
                      A                      A                      A
 Frequencies --   1842.6390              3204.3113              3207.9916
 Red. masses --      1.0954                 1.0874                 1.0862
 Frc consts  --      2.1913                 6.5784                 6.5862
 IR Inten    --     75.1439                11.7399                 8.3157

                     64                     65                     66
                      A                      A                      A
 Frequencies --   3217.3506              3218.9983              3226.0692
 Red. masses --      1.0889                 1.0899                 1.0929
 Frc consts  --      6.6410                 6.6540                 6.7014
 IR Inten    --      2.6200                 2.8986                18.5248

                     67                     68                     69
                      A                      A                      A
 Frequencies --   3229.9816              3236.6630              3238.7230
 Red. masses --      1.0953                 1.0992                 1.0987
 Frc consts  --      6.7328                 6.7845                 6.7900
 IR Inten    --     10.5999                31.9306                14.6750

 - Thermochemistry -
 -------------------
 Temperature   298.150 Kelvin.  Pressure   1.00000 Atm.
 Atom     1 has atomic number  6 and mass  12.00000

 Molecular mass:   227.04049 amu.
 Principal axes and moments of inertia in atomic units:
                           1         2         3
     Eigenvalues --  1328.064146316.896677644.96079
           X           -0.70232   0.71186  -0.00001
           Y            0.71186   0.70232  -0.00001
           Z            0.00001   0.00001   1.00000
 This molecule is an asymmetric top.
 Rotational symmetry number  1.
 Warning -- assumption of classical behavior for rotation
           may cause significant error
 Rotational temperatures (Kelvin)      0.06522     0.01371     0.01133
 Rotational constants (GHZ):           1.35893     0.28570     0.23607
    1 imaginary frequencies ignored.
 Zero-point vibrational energy     478920.5 (Joules/Mol)
                                  114.46475 (Kcal/Mol)
 Warning -- explicit consideration of  18 degrees of freedom as
           vibrations may cause significant error
 Vibrational temperatures:     13.06    67.08   151.67   214.08   253.36
          (Kelvin)            319.82   388.04   388.50   544.20   563.05
                              598.59   629.74   691.78   713.14   726.28
                              770.02   799.06   834.48   903.34  1006.40
                             1008.04  1062.62  1063.62  1094.65  1105.33
                             1146.11  1183.68  1190.14  1238.98  1310.54
                             1318.52  1372.17  1378.79  1421.86  1438.89
                             1493.85  1507.19  1556.05  1630.21  1654.75
                             1685.46  1695.26  1738.74  1800.77  1812.93
                             1857.65  1949.13  1974.93  2019.50  2028.32
                             2083.17  2128.99  2171.51  2211.18  2216.45
                             2244.57  2330.06  2373.54  2385.02  2651.15
                             4610.29  4615.58  4629.05  4631.42  4641.59
                             4647.22  4656.84  4659.80

 Zero-point correction=                           0.182411 (Hartree/Particle)
 Thermal correction to Energy=                    0.194472
 Thermal correction to Enthalpy=                  0.195416
 Thermal correction to Gibbs Free Energy=         0.141746
 Sum of electronic and zero-point Energies=          -1028.508246
 Sum of electronic and thermal Energies=             -1028.496185
 Sum of electronic and thermal Enthalpies=           -1028.495241
 Sum of electronic and thermal Free Energies=        -1028.548912

                     E (Thermal)             CV                S
                      KCal/Mol        Cal/Mol-Kelvin    Cal/Mol-Kelvin
 Total                  122.033             48.124            112.959
 Electronic               0.000              0.000              0.000
 Translational            0.889              2.981             42.162
 Rotational               0.889              2.981             32.528
 Vibrational            120.256             42.162             38.269
 Vibration     1          0.593              1.987              8.203
 Vibration     2          0.595              1.979              4.956
 Vibration     3          0.605              1.945              3.352
 Vibration     4          0.618              1.904              2.688
 Vibration     5          0.628              1.872              2.369
 Vibration     6          0.648              1.807              1.940
 Vibration     7          0.674              1.729              1.598
 Vibration     8          0.674              1.728              1.596
 Vibration     9          0.749              1.517              1.046
 Vibration    10          0.759              1.489              0.995
 Vibration    11          0.779              1.435              0.906
 Vibration    12          0.798              1.388              0.834
 Vibration    13          0.837              1.293              0.708
 Vibration    14          0.851              1.260              0.669
 Vibration    15          0.860              1.239              0.646
 Vibration    16          0.890              1.172              0.576
 Vibration    17          0.911              1.128              0.533
 Vibration    18          0.937              1.075              0.485

 Optimization completed.
    -- Stationary point found.
 Normal termination of Gaussian 16 at Mon Jul 13 15:20:40 2020.
