 Gaussian 16, Revision C.01,
 Gaussian 16:  ES64L-G16RevC.01  3-Jul-2019

 ----------------------------------------------------------------------
 #p opt=addgic freq td wb97xd/cc-pvdz nosymm int=ultrafine scrf=(solven
 t=CarbonTetraChloride)
 ----------------------------------------------------------------------

 ------------------------------------------------
 NM 2D-scan of HBT TD-WB97XD pVDZ in CTC Relaxed.
 ------------------------------------------------
 Symbolic Z-matrix:
 Charge =  0 Multiplicity = 1

 SCF Done:  E(RwB97XD) =  -1028.80251847     A.U. after   16 cycles
 Total Energy, E(TD-HF/TD-DFT) =  -1028.69224298
 SCF Done:  E(RwB97XD) =  -1028.79459028     A.U. after   14 cycles
 Total Energy, E(TD-HF/TD-DFT) =  -1028.69126529
 SCF Done:  E(RwB97XD) =  -1028.80406714     A.U. after   12 cycles
 Total Energy, E(TD-HF/TD-DFT) =  -1028.69624544
 SCF Done:  E(RwB97XD) =  -1028.80462329     A.U. after   11 cycles
 Total Energy, E(TD-HF/TD-DFT) =  -1028.69631156
 SCF Done:  E(RwB97XD) =  -1028.80456136     A.U. after    9 cycles
 Total Energy, E(TD-HF/TD-DFT) =  -1028.69631363
 Optimization completed.
    -- Stationary point found.
 Normal termination of Gaussian 16 at Mon Jul 13 16:20:31 2020.

 ----------------------------------------------------------------------
 #P Geom=AllCheck Guess=TCheck SCRF=Check GenChk RwB97XD TD(FC,Read)/CC
 -pVDZ Freq
 ----------------------------------------------------------------------

 Structure from the checkpoint file:  "config_9_3.chk"
 ------------------------------------------------
 NM 2D-scan of HBT TD-WB97XD pVDZ in CTC Relaxed.
 ------------------------------------------------
 Charge =  0 Multiplicity = 1

                          Input orientation:
 ---------------------------------------------------------------------
 Center     Atomic      Atomic             Coordinates (Angstroms)
 Number     Number       Type             X           Y           Z
 ---------------------------------------------------------------------
      1          6           0        1.744404   -3.282124    0.000021
      2          6           0        1.008757   -2.097040    0.000008
      3          6           0        1.681812   -0.854430   -0.000030
      4          6           0        3.082499   -0.776639   -0.000059
      5          6           0        3.799752   -1.960491   -0.000046
      6          6           0        3.140581   -3.200320   -0.000006
      7          1           0        1.248200   -4.253286    0.000046
      8          1           0        3.571752    0.197733   -0.000091
      9          1           0        4.890397   -1.929462   -0.000068
     10          1           0        3.725762   -4.120764    0.000001
     11          7           0        0.843170    0.203042   -0.000043
     12         16           0       -0.746969   -1.830948    0.000012
     13          6           0       -1.415760    1.027446   -0.000010
     14          6           0       -2.804596    0.900202   -0.000043
     15          6           0       -0.855020    2.416686    0.000050
     16          6           0       -3.657314    2.031376   -0.000013
     17          1           0       -3.255505   -0.094995   -0.000094
     18          6           0       -1.762984    3.512248    0.000101
     19          6           0       -3.143691    3.331001    0.000065
     20          1           0       -4.736664    1.871652   -0.000040
     21          1           0       -1.309118    4.504367    0.000171
     22          1           0       -3.814881    4.190470    0.000101
     23          6           0       -0.485799   -0.070242   -0.000013
     24          8           0        0.394417    2.649350    0.000139
     25          1           0        1.034279    1.257844   -0.000081
 ---------------------------------------------------------------------

 SCF Done:  E(RwB97XD) =  -1028.80456136     A.U. after    1 cycles

 Excitation energies and oscillator strengths:

 Excited state symmetry could not be determined.
 Excited State   1:      Singlet-?Sym    2.9456 eV  420.92 nm  f=0.4397  <S**2>=0.000
      59 -> 60         0.69561
 This state for optimization and/or second-order correction.
 Total Energy, E(TD-HF/TD-DFT) =  -1028.69631367
 Copying the excited state density for this state as the 1-particle RhoCI density.

 Excited state symmetry could not be determined.
 Excited State   2:      Singlet-?Sym    3.8696 eV  320.41 nm  f=0.0000  <S**2>=0.000
      57 -> 60         0.68416
      57 -> 62         0.11576
      57 -> 64         0.11760

 Excited state symmetry could not be determined.
 Excited State   3:      Singlet-?Sym    4.3391 eV  285.74 nm  f=0.4453  <S**2>=0.000
      58 -> 60         0.67888

 Alpha  occ. eigenvalues --  -89.10713 -19.21895 -14.51354 -10.42057 -10.37046
 Alpha  occ. eigenvalues --  -10.36328 -10.36319 -10.33447 -10.32711 -10.32459
 Alpha  occ. eigenvalues --  -10.32343 -10.31662 -10.31609 -10.30832 -10.29298
 Alpha  occ. eigenvalues --  -10.28480  -8.12594  -6.07480  -6.07109  -6.06612
 Alpha  occ. eigenvalues --   -1.12966  -1.09843  -0.98133  -0.94936  -0.93036
 Alpha  occ. eigenvalues --   -0.89171  -0.86272  -0.84001  -0.81282  -0.76048
 Alpha  occ. eigenvalues --   -0.72670  -0.71603  -0.68868  -0.67687  -0.64700
 Alpha  occ. eigenvalues --   -0.60901  -0.59638  -0.56849  -0.55695  -0.55386
 Alpha  occ. eigenvalues --   -0.54810  -0.53587  -0.52991  -0.50995  -0.49364
 Alpha  occ. eigenvalues --   -0.48870  -0.48163  -0.46801  -0.45390  -0.44954
 Alpha  occ. eigenvalues --   -0.44332  -0.42986  -0.41953  -0.40447  -0.36791
 Alpha  occ. eigenvalues --   -0.33536  -0.32529  -0.31385  -0.26184
 Alpha virt. eigenvalues --   -0.02065   0.03825   0.06112   0.06216   0.08991
 Alpha virt. eigenvalues --    0.10509   0.12097   0.14656   0.16042   0.17397
 Alpha virt. eigenvalues --    0.18963   0.20259   0.21115   0.21469   0.22935

 Mulliken charges:
               1
     1  C    0.011451
     2  C   -0.245124
     3  C    0.271499
     4  C   -0.011382
     5  C    0.014237
     6  C   -0.001809
     7  H    0.026571
     8  H    0.032274
     9  H    0.026906
    10  H    0.026400
    11  N   -0.151782
    12  S    0.196629
    13  C   -0.124099
    14  C   -0.019419
    15  C    0.122545
    16  C   -0.036674
    17  H    0.002247
    18  C   -0.016766
    19  C    0.032799
    20  H    0.003319
    21  H    0.003248
    22  H    0.014914
    23  C    0.062201
    24  O   -0.405130
    25  H    0.164943
 Sum of Mulliken charges =  -0.00000

 Dipole moment (field-independent basis, Debye):
    X=              1.5306    Y=             -5.1230    Z=             -0.0003  Tot=              5.3467
 Quadrupole moment (field-independent basis, Debye-Ang):
   XX=            -82.7725   YY=            -94.1689   ZZ=           -104.3114
   XY=             -6.7954   XZ=             -0.0005   YZ=             -0.0007

  Exact polarizability:     350.768    -125.669     303.922      -0.001       0.003      63.371
 Approx polarizability:     274.865     -36.899     267.268      -0.000       0.002      82.219

 ******    1 imaginary frequencies (negative Signs) ******

                      1                      2                      3
                      A                      A                      A
 Frequencies --    -56.7766                38.5002               106.9530
 Red. masses --      7.2613                 6.4183                 4.6701
 Frc consts  --      0.0138                 0.0056                 0.0315
 IR Inten    --      0.9912                 1.8940                 0.0719

                      4                      5                      6
                      A                      A                      A
 Frequencies --    119.9230               175.1655               221.5634
 Red. masses --      5.7420                 5.3627                 5.3362
 Frc consts  --      0.0487                 0.0969                 0.1543
 IR Inten    --      8.8981                 0.1614                 0.2107

                      7                      8                      9
                      A                      A                      A
 Frequencies --    266.3545               268.6461               327.9309
 Red. masses --      7.7063                 4.6727                 6.8486
 Frc consts  --      0.3221                 0.1987                 0.4339
 IR Inten    --      0.7355                 0.4721                13.3212

                     10                     11                     12
                      A                      A                      A
 Frequencies --    358.5788               391.3350               434.6603
 Red. masses --      5.0680                 9.8600                 3.2881
 Frc consts  --      0.3839                 0.8897                 0.3660
 IR Inten    --      1.0209                 3.2668                 4.8342

                     13                     14                     15
                      A                      A                      A
 Frequencies --    459.4848               503.4103               503.9106
 Red. masses --      4.6982                 3.1650                 8.8000
 Frc consts  --      0.5844                 0.4726                 1.3166
 IR Inten    --      1.5395                 0.5878                 6.1734

                     16                     17                     18
                      A                      A                      A
 Frequencies --    539.5348               555.7453               568.3530
 Red. masses --      8.7699                 3.8375                 6.7260
 Frc consts  --      1.5041                 0.6983                 1.2801
 IR Inten    --      3.2832                 0.6909                 5.8881

                     19                     20                     21
                      A                      A                      A
 Frequencies --    577.3504               636.1990               691.3365
 Red. masses --      7.6303                 5.9477                 1.6002
 Frc consts  --      1.4986                 1.4184                 0.4506
 IR Inten    --     42.7893               115.5688                35.6711

                     22                     23                     24
                      A                      A                      A
 Frequencies --    695.7494               712.6949               741.0902
 Red. masses --      7.4078                 6.9583                 2.4954
 Frc consts  --      2.1127                 2.0824                 0.8075
 IR Inten    --      1.4302                 9.5001                14.4363

                     25                     26                     27
                      A                      A                      A
 Frequencies --    764.1256               767.4771               808.1730
 Red. masses --      1.7160                 1.7755                 6.5189
 Frc consts  --      0.5903                 0.6162                 2.5086
 IR Inten    --      0.8647                88.0971                13.3417

                     28                     29                     30
                      A                      A                      A
 Frequencies --    840.0101               863.3751               877.8712
 Red. masses --      1.6738                 1.3919                 4.4857
 Frc consts  --      0.6958                 0.6113                 2.0368
 IR Inten    --      0.0205                 0.5927                20.9686

                     31                     32                     33
                      A                      A                      A
 Frequencies --    909.0761               949.3776               954.1391
 Red. masses --      1.4141                 5.6655                 1.3666
 Frc consts  --      0.6885                 3.0086                 0.7330
 IR Inten    --      6.5565                 5.1205                 0.4325

                     34                     35                     36
                      A                      A                      A
 Frequencies --    955.9462              1002.6611              1032.1487
 Red. masses --      1.3481                 1.2941                 1.0699
 Frc consts  --      0.7259                 0.7666                 0.6716
 IR Inten    --      1.4015                 0.2674                68.6045

                     37                     38                     39
                      A                      A                      A
 Frequencies --   1045.6255              1049.9876              1075.8852
 Red. masses --      2.2342                 2.2107                 4.1055
 Frc consts  --      1.4392                 1.4360                 2.8000
 IR Inten    --      0.7971                 8.5763                 2.2411

                     40                     41                     42
                      A                      A                      A
 Frequencies --   1116.4881              1150.4749              1161.8973
 Red. masses --      1.5222                 1.3179                 1.2034
 Frc consts  --      1.1180                 1.0278                 0.9572
 IR Inten    --     43.1303                12.2374                74.1014

                     43                     44                     45
                      A                      A                      A
 Frequencies --   1178.5748              1229.0056              1258.3871
 Red. masses --      1.1395                 2.2972                 2.2304
 Frc consts  --      0.9326                 2.0444                 2.0810
 IR Inten    --     28.0874                93.9768                35.8568

                     46                     47                     48
                      A                      A                      A
 Frequencies --   1282.9530              1323.9385              1335.4162
 Red. masses --      1.5962                 1.9937                 3.9981
 Frc consts  --      1.5480                 2.0590                 4.2009
 IR Inten    --    102.4258               230.6289                 1.2826

                     49                     50                     51
                      A                      A                      A
 Frequencies --   1367.0958              1395.7802              1401.6274
 Red. masses --      5.6360                 2.6170                 2.3048
 Frc consts  --      6.2061                 3.0039                 2.6678
 IR Inten    --    133.2625                23.0978                 4.4961

                     52                     53                     54
                      A                      A                      A
 Frequencies --   1436.1556              1484.3856              1503.9119
 Red. masses --      3.5874                 2.6187                 3.0299
 Frc consts  --      4.3594                 3.3996                 4.0376
 IR Inten    --    484.1420                 4.5686                16.7274

                     55                     56                     57
                      A                      A                      A
 Frequencies --   1535.5572              1561.8153              1591.4279
 Red. masses --      4.4516                 4.8394                 4.2726
 Frc consts  --      6.1844                 6.9551                 6.3756
 IR Inten    --     59.5031               152.4948                41.7147

                     58                     59                     60
                      A                      A                      A
 Frequencies --   1624.3716              1647.5879              1670.2483
 Red. masses --      5.6260                 5.4995                 6.5585
 Frc consts  --      8.7462                 8.7957                10.7800
 IR Inten    --    265.2061                90.4732               258.3500

                     61                     62                     63
                      A                      A                      A
 Frequencies --   2728.5375              3193.8224              3211.9498
 Red. masses --      1.1034                 1.0888                 1.0865
 Frc consts  --      4.8400                 6.5438                 6.6044
 IR Inten    --   1426.1417                22.2484                 0.3825

                     64                     65                     66
                      A                      A                      A
 Frequencies --   3212.0804              3221.3322              3223.5294
 Red. masses --      1.0862                 1.0902                 1.0922
 Frc consts  --      6.6028                 6.6652                 6.6868
 IR Inten    --      5.4433                 2.7725                17.6643

                     67                     68                     69
                      A                      A                      A
 Frequencies --   3230.7442              3234.9531              3238.6042
 Red. masses --      1.0959                 1.0991                 1.0996
 Frc consts  --      6.7396                 6.7765                 6.7951
 IR Inten    --      7.8178                20.5819                14.7042

 - Thermochemistry -
 -------------------
 Temperature   298.150 Kelvin.  Pressure   1.00000 Atm.
 Atom     1 has atomic number  6 and mass  12.00000

 Molecular mass:   227.04049 amu.
 Principal axes and moments of inertia in atomic units:
                           1         2         3
     Eigenvalues --  1331.858966385.438827717.29777
           X           -0.70098   0.71318  -0.00000
           Y            0.71318   0.70098  -0.00001
           Z            0.00001   0.00001   1.00000
 This molecule is an asymmetric top.
 Rotational symmetry number  1.
 Warning -- assumption of classical behavior for rotation
           may cause significant error
 Rotational temperatures (Kelvin)      0.06503     0.01356     0.01122
 Rotational constants (GHZ):           1.35505     0.28263     0.23386
    1 imaginary frequencies ignored.
 Zero-point vibrational energy     487735.5 (Joules/Mol)
                                  116.57157 (Kcal/Mol)
 Warning -- explicit consideration of  18 degrees of freedom as
           vibrations may cause significant error
 Vibrational temperatures:     55.39   153.88   172.54   252.02   318.78
          (Kelvin)            383.22   386.52   471.82   515.91   563.04
                              625.38   661.10   724.30   725.01   776.27
                              799.59   817.73   830.68   915.35   994.68
                             1001.03  1025.41  1066.26  1099.41  1104.23
                             1162.78  1208.59  1242.20  1263.06  1307.96
                             1365.94  1372.79  1375.39  1442.61  1485.03
                             1504.42  1510.70  1547.96  1606.38  1655.28
                             1671.71  1695.71  1768.26  1810.54  1845.88
                             1904.85  1921.37  1966.95  2008.22  2016.63
                             2066.31  2135.70  2163.79  2209.32  2247.10
                             2289.71  2337.11  2370.51  2403.11  3925.76
                             4595.20  4621.28  4621.47  4634.78  4637.94
                             4648.32  4654.38  4659.63

 Zero-point correction=                           0.185769 (Hartree/Particle)
 Thermal correction to Energy=                    0.197259
 Thermal correction to Enthalpy=                  0.198203
 Thermal correction to Gibbs Free Energy=         0.147591
 Sum of electronic and zero-point Energies=          -1028.510545
 Sum of electronic and thermal Energies=             -1028.499054
 Sum of electronic and thermal Enthalpies=           -1028.498110
 Sum of electronic and thermal Free Energies=        -1028.548722

                     E (Thermal)             CV                S
                      KCal/Mol        Cal/Mol-Kelvin    Cal/Mol-Kelvin
 Total                  123.782             47.329            106.522
 Electronic               0.000              0.000              0.000
 Translational            0.889              2.981             42.162
 Rotational               0.889              2.981             32.551
 Vibrational            122.005             41.367             31.809
 Vibration     1          0.594              1.981              5.335
 Vibration     2          0.606              1.944              3.323
 Vibration     3          0.609              1.933              3.102
 Vibration     4          0.627              1.873              2.379
 Vibration     5          0.648              1.808              1.946
 Vibration     6          0.672              1.735              1.620
 Vibration     7          0.673              1.731              1.605
 Vibration     8          0.711              1.620              1.270
 Vibration     9          0.733              1.558              1.128
 Vibration    10          0.759              1.489              0.995
 Vibration    11          0.795              1.395              0.844
 Vibration    12          0.817              1.340              0.768
 Vibration    13          0.859              1.242              0.650
 Vibration    14          0.859              1.241              0.648
 Vibration    15          0.895              1.163              0.566
 Vibration    16          0.911              1.127              0.532
 Vibration    17          0.924              1.100              0.507
 Vibration    18          0.934              1.080              0.490

 Optimization completed.
    -- Stationary point found.
 Normal termination of Gaussian 16 at Mon Jul 13 16:38:16 2020.
