 Gaussian 16, Revision C.01,
 Gaussian 16:  ES64L-G16RevC.01  3-Jul-2019

 ----------------------------------------------------------------------
 #p opt=addgic freq td wb97xd/cc-pvdz nosymm int=ultrafine scrf=(solven
 t=CarbonTetraChloride)
 ----------------------------------------------------------------------

 ------------------------------------------------
 NM 2D-scan of HBT TD-WB97XD pVDZ in CTC Relaxed.
 ------------------------------------------------
 Symbolic Z-matrix:
 Charge =  0 Multiplicity = 1

 SCF Done:  E(RwB97XD) =  -1028.59650952     A.U. after   16 cycles
 Total Energy, E(TD-HF/TD-DFT) =  -1028.49175598
 SCF Done:  E(RwB97XD) =  -1028.73880804     A.U. after   14 cycles
 Total Energy, E(TD-HF/TD-DFT) =  -1028.63742647
 SCF Done:  E(RwB97XD) =  -1028.77005589     A.U. after   15 cycles
 Total Energy, E(TD-HF/TD-DFT) =  -1028.67507169
 SCF Done:  E(RwB97XD) =  -1028.78922009     A.U. after   14 cycles
 Total Energy, E(TD-HF/TD-DFT) =  -1028.69080763
 SCF Done:  E(RwB97XD) =  -1028.79133235     A.U. after   13 cycles
 Total Energy, E(TD-HF/TD-DFT) =  -1028.69249169
 SCF Done:  E(RwB97XD) =  -1028.79226164     A.U. after   12 cycles
 Total Energy, E(TD-HF/TD-DFT) =  -1028.69277549
 SCF Done:  E(RwB97XD) =  -1028.79240823     A.U. after   11 cycles
 Total Energy, E(TD-HF/TD-DFT) =  -1028.69279120
 Optimization completed.
    -- Stationary point found.
 Normal termination of Gaussian 16 at Tue Jul 14 15:19:47 2020.

 ----------------------------------------------------------------------
 #P Geom=AllCheck Guess=TCheck SCRF=Check GenChk RwB97XD TD(FC,Read)/CC
 -pVDZ Freq
 ----------------------------------------------------------------------

 Structure from the checkpoint file:  "config_11_18.chk"
 ------------------------------------------------
 NM 2D-scan of HBT TD-WB97XD pVDZ in CTC Relaxed.
 ------------------------------------------------
 Charge =  0 Multiplicity = 1

                          Input orientation:
 ---------------------------------------------------------------------
 Center     Atomic      Atomic             Coordinates (Angstroms)
 Number     Number       Type             X           Y           Z
 ---------------------------------------------------------------------
      1          6           0        1.552342   -3.293977    0.000019
      2          6           0        1.012515   -2.015513    0.000005
      3          6           0        1.821881   -0.876477   -0.000032
      4          6           0        3.218389   -1.001249   -0.000055
      5          6           0        3.755865   -2.287606   -0.000040
      6          6           0        2.939459   -3.424467   -0.000004
      7          1           0        0.904063   -4.170325    0.000048
      8          1           0        3.861787   -0.120368   -0.000083
      9          1           0        4.840642   -2.404920   -0.000058
     10          1           0        3.389345   -4.417591    0.000006
     11          7           0        1.056527    0.262810   -0.000046
     12         16           0       -0.685631   -1.566377    0.000027
     13          6           0       -1.337184    1.135034    0.000008
     14          6           0       -2.673083    0.778127   -0.000017
     15          6           0       -0.950009    2.554306    0.000057
     16          6           0       -3.708731    1.760321    0.000003
     17          1           0       -2.965457   -0.274836   -0.000055
     18          6           0       -2.034428    3.501568    0.000071
     19          6           0       -3.386914    3.108405    0.000044
     20          1           0       -4.748302    1.429335   -0.000015
     21          1           0       -1.763411    4.559408    0.000117
     22          1           0       -4.176875    3.861427    0.000059
     23          6           0       -0.305353    0.125015   -0.000008
     24          8           0        0.267252    2.840494    0.000105
     25          1           0        1.549255    1.128703   -0.000061
 ---------------------------------------------------------------------

 SCF Done:  E(RwB97XD) =  -1028.79240823     A.U. after    1 cycles

 Excitation energies and oscillator strengths:

 Excited state symmetry could not be determined.
 Excited State   1:      Singlet-?Sym    2.7107 eV  457.39 nm  f=0.4393  <S**2>=0.000
      59 -> 60         0.69788
 This state for optimization and/or second-order correction.
 Total Energy, E(TD-HF/TD-DFT) =  -1028.69279119
 Copying the excited state density for this state as the 1-particle RhoCI density.

 Excited state symmetry could not be determined.
 Excited State   2:      Singlet-?Sym    3.3094 eV  374.64 nm  f=0.0000  <S**2>=0.000
      58 -> 60         0.68413
      58 -> 62         0.11389
      58 -> 64         0.10272

 Excited state symmetry could not be determined.
 Excited State   3:      Singlet-?Sym    4.2570 eV  291.25 nm  f=0.3954  <S**2>=0.000
      57 -> 60         0.68478

 Alpha  occ. eigenvalues --  -89.10340 -19.20006 -14.53438 -10.42591 -10.37624
 Alpha  occ. eigenvalues --  -10.36125 -10.35199 -10.33498 -10.33471 -10.32888
 Alpha  occ. eigenvalues --  -10.32576 -10.31323 -10.30725 -10.30587 -10.29021
 Alpha  occ. eigenvalues --  -10.28150  -8.12419  -6.07292  -6.06903  -6.06441
 Alpha  occ. eigenvalues --   -1.13247  -1.08835  -0.98696  -0.95909  -0.93288
 Alpha  occ. eigenvalues --   -0.89037  -0.86963  -0.83919  -0.80750  -0.75842
 Alpha  occ. eigenvalues --   -0.74529  -0.72209  -0.69322  -0.67530  -0.65002
 Alpha  occ. eigenvalues --   -0.61096  -0.59751  -0.56525  -0.56264  -0.56126
 Alpha  occ. eigenvalues --   -0.55123  -0.53812  -0.53047  -0.50283  -0.48678
 Alpha  occ. eigenvalues --   -0.48674  -0.48260  -0.47104  -0.45620  -0.44897
 Alpha  occ. eigenvalues --   -0.43929  -0.42758  -0.42309  -0.39783  -0.36931
 Alpha  occ. eigenvalues --   -0.33846  -0.31517  -0.30568  -0.25315
 Alpha virt. eigenvalues --   -0.02247   0.03542   0.05518   0.06820   0.09740
 Alpha virt. eigenvalues --    0.10948   0.13786   0.14565   0.15968   0.16691
 Alpha virt. eigenvalues --    0.17765   0.19742   0.20714   0.21193   0.22560

 Mulliken charges:
               1
     1  C    0.019756
     2  C   -0.235495
     3  C    0.211862
     4  C   -0.010960
     5  C    0.011031
     6  C    0.004878
     7  H    0.025247
     8  H    0.031827
     9  H    0.029216
    10  H    0.027900
    11  N   -0.105524
    12  S    0.199622
    13  C   -0.059780
    14  C   -0.043737
    15  C    0.097786
    16  C   -0.036602
    17  H    0.012348
    18  C   -0.056407
    19  C    0.034894
    20  H    0.000367
    21  H   -0.001073
    22  H    0.013739
    23  C    0.085289
    24  O   -0.380653
    25  H    0.124467
 Sum of Mulliken charges =  -0.00000

 Dipole moment (field-independent basis, Debye):
    X=              2.6768    Y=             -6.3396    Z=             -0.0003  Tot=              6.8815
 Quadrupole moment (field-independent basis, Debye-Ang):
   XX=            -80.9566   YY=            -97.8150   ZZ=           -104.1211
   XY=             -5.7784   XZ=             -0.0004   YZ=             -0.0007

  Exact polarizability:     345.686    -117.338     290.065      -0.001       0.001      63.235
 Approx polarizability:     275.295     -39.157     264.149      -0.001       0.001      81.940

 ******    1 imaginary frequencies (negative Signs) ******

                      1                      2                      3
                      A                      A                      A
 Frequencies --    -75.8253                51.5642               102.4325
 Red. masses --      4.6712                 6.3575                 5.7525
 Frc consts  --      0.0158                 0.0100                 0.0356
 IR Inten    --      3.1449                 0.7701                 0.3683

                      4                      5                      6
                      A                      A                      A
 Frequencies --    114.1569               178.1479               224.2599
 Red. masses --      5.7965                 5.3524                 5.6783
 Frc consts  --      0.0445                 0.1001                 0.1683
 IR Inten    --      5.8018                 0.0046                 2.7073

                      7                      8                      9
                      A                      A                      A
 Frequencies --    262.8337               268.5193               281.9550
 Red. masses --      8.9720                 3.7830                 7.5609
 Frc consts  --      0.3652                 0.1607                 0.3541
 IR Inten    --      1.4301                 5.6960                 1.8978

                     10                     11                     12
                      A                      A                      A
 Frequencies --    339.0067               382.2403               406.6813
 Red. masses --      4.1595                 7.0488                 2.7096
 Frc consts  --      0.2816                 0.6068                 0.2640
 IR Inten    --      1.8980                 6.5789                25.2181

                     13                     14                     15
                      A                      A                      A
 Frequencies --    441.2730               475.6911               504.1011
 Red. masses --      3.7701                 1.3624                 8.3748
 Frc consts  --      0.4325                 0.1816                 1.2539
 IR Inten    --      9.4814                40.6218                10.6099

                     16                     17                     18
                      A                      A                      A
 Frequencies --    516.1181               537.7714               543.7239
 Red. masses --      3.2409                 6.2424                 8.8712
 Frc consts  --      0.5086                 1.0636                 1.5452
 IR Inten    --      0.9568                28.3453                22.5153

                     19                     20                     21
                      A                      A                      A
 Frequencies --    560.4914               566.1615               640.1525
 Red. masses --      3.8022                 7.3385                 6.4745
 Frc consts  --      0.7038                 1.3859                 1.5632
 IR Inten    --      0.0047                 5.5097                12.4932

                     22                     23                     24
                      A                      A                      A
 Frequencies --    691.9492               715.8729               739.8631
 Red. masses --      1.4850                 5.7624                 7.4817
 Frc consts  --      0.4189                 1.7399                 2.4130
 IR Inten    --     33.6721                 1.5828                 5.7692

                     25                     26                     27
                      A                      A                      A
 Frequencies --    745.2373               756.1106               766.5263
 Red. masses --      2.3564                 1.6628                 1.7517
 Frc consts  --      0.7711                 0.5601                 0.6064
 IR Inten    --     25.0780                11.5131                77.3440

                     28                     29                     30
                      A                      A                      A
 Frequencies --    824.4738               835.1026               866.6209
 Red. masses --      6.2792                 2.0947                 1.3827
 Frc consts  --      2.5148                 0.8607                 0.6119
 IR Inten    --     15.6871                 1.5636                 1.0692

                     31                     32                     33
                      A                      A                      A
 Frequencies --    887.5641               897.9705               952.2728
 Red. masses --      5.5554                 1.4587                 1.3571
 Frc consts  --      2.5785                 0.6930                 0.7251
 IR Inten    --      2.8437                 9.1715                 0.2748

                     34                     35                     36
                      A                      A                      A
 Frequencies --    957.5700               969.6322              1003.1811
 Red. masses --      1.3542                 5.2036                 1.2985
 Frc consts  --      0.7316                 2.8825                 0.7699
 IR Inten    --      1.7756                 2.4110                 0.0028

                     37                     38                     39
                      A                      A                      A
 Frequencies --   1049.2270              1055.5519              1093.2875
 Red. masses --      2.2281                 2.1138                 3.2698
 Frc consts  --      1.4452                 1.3876                 2.3027
 IR Inten    --      0.8114                 9.1133                 6.8289

                     40                     41                     42
                      A                      A                      A
 Frequencies --   1102.9950              1154.9744              1160.2271
 Red. masses --      1.7961                 1.3330                 1.2566
 Frc consts  --      1.2874                 1.0477                 0.9966
 IR Inten    --     18.2432                 9.8176                47.5496

                     43                     44                     45
                      A                      A                      A
 Frequencies --   1178.1573              1191.1646              1235.3417
 Red. masses --      1.1492                 1.4984                 2.8853
 Frc consts  --      0.9398                 1.2526                 2.5942
 IR Inten    --     25.7282                23.7538                20.2420

                     46                     47                     48
                      A                      A                      A
 Frequencies --   1252.5912              1300.4821              1332.7392
 Red. masses --      2.0932                 1.6064                 3.9869
 Frc consts  --      1.9350                 1.6007                 4.1723
 IR Inten    --     39.7879                 4.2310                 2.9805

                     49                     50                     51
                      A                      A                      A
 Frequencies --   1356.8210              1399.2474              1411.0429
 Red. masses --      2.6978                 5.2097                 2.4131
 Frc consts  --      2.9262                 6.0097                 2.8308
 IR Inten    --     74.2679                55.8851                33.8528

                     52                     53                     54
                      A                      A                      A
 Frequencies --   1440.5478              1468.5219              1515.7827
 Red. masses --      2.6878                 3.3882                 3.5034
 Frc consts  --      3.2863                 4.3050                 4.7426
 IR Inten    --    110.6898                 7.1965                91.8357

                     55                     56                     57
                      A                      A                      A
 Frequencies --   1519.0346              1540.2568              1609.1491
 Red. masses --      3.0251                 4.5183                 5.1121
 Frc consts  --      4.1127                 6.3155                 7.7991
 IR Inten    --      4.9844               188.2845                98.5392

                     58                     59                     60
                      A                      A                      A
 Frequencies --   1633.2545              1666.8148              1673.0638
 Red. masses --      8.4070                 6.8975                 7.0984
 Frc consts  --     13.2129                11.2907                11.7067
 IR Inten    --    159.1334                80.8288                45.3588

                     61                     62                     63
                      A                      A                      A
 Frequencies --   3195.0637              3206.6120              3210.8460
 Red. masses --      1.0883                 1.0867                 1.0865
 Frc consts  --      6.5459                 6.5835                 6.5995
 IR Inten    --     29.5722                 4.8094                 4.2990

                     64                     65                     66
                      A                      A                      A
 Frequencies --   3218.6872              3221.7243              3228.9501
 Red. masses --      1.0916                 1.0902                 1.0958
 Frc consts  --      6.6628                 6.6672                 6.7314
 IR Inten    --     14.2973                 1.6486                 7.5119

                     67                     68                     69
                      A                      A                      A
 Frequencies --   3233.1432              3239.1077              3838.1123
 Red. masses --      1.0989                 1.0994                 1.0792
 Frc consts  --      6.7679                 6.7962                 9.3667
 IR Inten    --     27.6226                12.5259               209.9869

 - Thermochemistry -
 -------------------
 Temperature   298.150 Kelvin.  Pressure   1.00000 Atm.
 Atom     1 has atomic number  6 and mass  12.00000

 Molecular mass:   227.04049 amu.
 Principal axes and moments of inertia in atomic units:
                           1         2         3
     Eigenvalues --  1256.587566540.676547797.26410
           X           -0.70502   0.70919   0.00000
           Y            0.70919   0.70502  -0.00001
           Z            0.00001   0.00000   1.00000
 This molecule is an asymmetric top.
 Rotational symmetry number  1.
 Warning -- assumption of classical behavior for rotation
           may cause significant error
 Rotational temperatures (Kelvin)      0.06893     0.01324     0.01111
 Rotational constants (GHZ):           1.43622     0.27593     0.23146
    1 imaginary frequencies ignored.
 Zero-point vibrational energy     490108.6 (Joules/Mol)
                                  117.13876 (Kcal/Mol)
 Warning -- explicit consideration of  19 degrees of freedom as
           vibrations may cause significant error
 Vibrational temperatures:     74.19   147.38   164.25   256.32   322.66
          (Kelvin)            378.16   386.34   405.67   487.75   549.96
                              585.12   634.89   684.41   725.29   742.58
                              773.73   782.30   806.42   814.58   921.04
                              995.56  1029.98  1064.50  1072.23  1087.87
                             1102.86  1186.23  1201.53  1246.87  1277.01
                             1291.98  1370.11  1377.73  1395.08  1443.35
                             1509.60  1518.70  1573.00  1586.96  1661.75
                             1669.31  1695.11  1713.82  1777.38  1802.20
                             1871.10  1917.51  1952.16  2013.20  2030.18
                             2072.63  2112.88  2180.87  2185.55  2216.09
                             2315.21  2349.89  2398.17  2407.17  4596.98
                             4613.60  4619.69  4630.97  4635.34  4645.74
                             4651.77  4660.35  5522.19

 Zero-point correction=                           0.186672 (Hartree/Particle)
 Thermal correction to Energy=                    0.198480
 Thermal correction to Enthalpy=                  0.199424
 Thermal correction to Gibbs Free Energy=         0.148487
 Sum of electronic and zero-point Energies=          -1028.506119
 Sum of electronic and thermal Energies=             -1028.494311
 Sum of electronic and thermal Enthalpies=           -1028.493367
 Sum of electronic and thermal Free Energies=        -1028.544304

                     E (Thermal)             CV                S
                      KCal/Mol        Cal/Mol-Kelvin    Cal/Mol-Kelvin
 Total                  124.548             48.497            107.207
 Electronic               0.000              0.000              0.000
 Translational            0.889              2.981             42.162
 Rotational               0.889              2.981             32.527
 Vibrational            122.771             42.535             32.517
 Vibration     1          0.596              1.977              4.756
 Vibration     2          0.605              1.947              3.407
 Vibration     3          0.607              1.938              3.197
 Vibration     4          0.629              1.869              2.348
 Vibration     5          0.649              1.804              1.924
 Vibration     6          0.670              1.741              1.643
 Vibration     7          0.673              1.731              1.606
 Vibration     8          0.681              1.707              1.522
 Vibration     9          0.719              1.598              1.217
 Vibration    10          0.752              1.508              1.030
 Vibration    11          0.771              1.456              0.938
 Vibration    12          0.801              1.380              0.823
 Vibration    13          0.832              1.304              0.722
 Vibration    14          0.859              1.241              0.648
 Vibration    15          0.871              1.214              0.619
 Vibration    16          0.893              1.167              0.570
 Vibration    17          0.899              1.153              0.557
 Vibration    18          0.916              1.117              0.523
 Vibration    19          0.922              1.104              0.512

 Optimization completed.
    -- Stationary point found.
 Normal termination of Gaussian 16 at Tue Jul 14 15:37:22 2020.
