 Gaussian 16, Revision C.01,
 Gaussian 16:  ES64L-G16RevC.01  3-Jul-2019

 ----------------------------------------------------------------------
 #p opt=addgic freq td wb97xd/cc-pvdz nosymm int=ultrafine scrf=(solven
 t=CarbonTetraChloride)
 ----------------------------------------------------------------------

 ------------------------------------------------
 NM 2D-scan of HBT TD-WB97XD pVDZ in CTC Relaxed.
 ------------------------------------------------
 Symbolic Z-matrix:
 Charge =  0 Multiplicity = 1

 SCF Done:  E(RwB97XD) =  -1028.78428303     A.U. after   16 cycles
 Total Energy, E(TD-HF/TD-DFT) =  -1028.67584514
 SCF Done:  E(RwB97XD) =  -1028.79997933     A.U. after   14 cycles
 Total Energy, E(TD-HF/TD-DFT) =  -1028.69736381
 SCF Done:  E(RwB97XD) =  -1028.80398406     A.U. after   13 cycles
 Total Energy, E(TD-HF/TD-DFT) =  -1028.69975751
 SCF Done:  E(RwB97XD) =  -1028.80441004     A.U. after   12 cycles
 Total Energy, E(TD-HF/TD-DFT) =  -1028.70001796
 SCF Done:  E(RwB97XD) =  -1028.80443018     A.U. after    9 cycles
 Total Energy, E(TD-HF/TD-DFT) =  -1028.70002253
 Optimization completed.
    -- Stationary point found.
 Normal termination of Gaussian 16 at Tue Jul 14 10:57:44 2020.

 ----------------------------------------------------------------------
 #P Geom=AllCheck Guess=TCheck SCRF=Check GenChk RwB97XD TD(FC,Read)/CC
 -pVDZ Freq
 ----------------------------------------------------------------------

 Structure from the checkpoint file:  "config_9_16.chk"
 ------------------------------------------------
 NM 2D-scan of HBT TD-WB97XD pVDZ in CTC Relaxed.
 ------------------------------------------------
 Charge =  0 Multiplicity = 1

                          Input orientation:
 ---------------------------------------------------------------------
 Center     Atomic      Atomic             Coordinates (Angstroms)
 Number     Number       Type             X           Y           Z
 ---------------------------------------------------------------------
      1          6           0        1.567546   -3.288148   -0.000019
      2          6           0        0.999842   -2.018357   -0.000013
      3          6           0        1.791560   -0.847623   -0.000015
      4          6           0        3.190351   -0.959074   -0.000025
      5          6           0        3.751084   -2.232043   -0.000032
      6          6           0        2.956814   -3.387955   -0.000029
      7          1           0        0.938253   -4.178779   -0.000017
      8          1           0        3.814556   -0.065076   -0.000027
      9          1           0        4.837783   -2.330228   -0.000039
     10          1           0        3.427709   -4.371517   -0.000034
     11          7           0        1.029081    0.291691   -0.000010
     12         16           0       -0.706228   -1.616375   -0.000002
     13          6           0       -1.324286    1.106651    0.000021
     14          6           0       -2.677363    0.777933    0.000021
     15          6           0       -0.924962    2.530180    0.000040
     16          6           0       -3.677597    1.777338    0.000028
     17          1           0       -2.987766   -0.269668    0.000012
     18          6           0       -1.975271    3.496431    0.000037
     19          6           0       -3.325996    3.126329    0.000032
     20          1           0       -4.726562    1.477987    0.000025
     21          1           0       -1.673840    4.545399    0.000046
     22          1           0       -4.101886    3.893238    0.000033
     23          6           0       -0.319314    0.089454    0.000003
     24          8           0        0.299775    2.850146    0.000049
     25          1           0        1.299956    1.293899    0.000013
 ---------------------------------------------------------------------

 SCF Done:  E(RwB97XD) =  -1028.80443018     A.U. after    1 cycles

 Excitation energies and oscillator strengths:

 Excited state symmetry could not be determined.
 Excited State   1:      Singlet-?Sym    2.8411 eV  436.40 nm  f=0.4422  <S**2>=0.000
      59 -> 60         0.69718
 This state for optimization and/or second-order correction.
 Total Energy, E(TD-HF/TD-DFT) =  -1028.70002255
 Copying the excited state density for this state as the 1-particle RhoCI density.

 Excited state symmetry could not be determined.
 Excited State   2:      Singlet-?Sym    3.5683 eV  347.46 nm  f=0.0000  <S**2>=0.000
      57 -> 60         0.68349
      57 -> 62         0.11703
      57 -> 64         0.11266

 Excited state symmetry could not be determined.
 Excited State   3:      Singlet-?Sym    4.2825 eV  289.52 nm  f=0.3731  <S**2>=0.000
      58 -> 60         0.68316

 Alpha  occ. eigenvalues --  -89.10332 -19.20834 -14.52971 -10.42050 -10.37767
 Alpha  occ. eigenvalues --  -10.36234 -10.35674 -10.33393 -10.33132 -10.32644
 Alpha  occ. eigenvalues --  -10.32440 -10.31476 -10.30892 -10.30796 -10.29198
 Alpha  occ. eigenvalues --  -10.28360  -8.12371  -6.07240  -6.06869  -6.06391
 Alpha  occ. eigenvalues --   -1.12839  -1.08874  -0.98466  -0.95599  -0.93297
 Alpha  occ. eigenvalues --   -0.89099  -0.86823  -0.83763  -0.81202  -0.75903
 Alpha  occ. eigenvalues --   -0.73339  -0.72224  -0.68831  -0.67642  -0.65181
 Alpha  occ. eigenvalues --   -0.61047  -0.59707  -0.56654  -0.55978  -0.55745
 Alpha  occ. eigenvalues --   -0.55049  -0.53888  -0.53071  -0.50417  -0.48791
 Alpha  occ. eigenvalues --   -0.48714  -0.48535  -0.47002  -0.45529  -0.44897
 Alpha  occ. eigenvalues --   -0.44127  -0.42939  -0.42251  -0.40020  -0.36846
 Alpha  occ. eigenvalues --   -0.33692  -0.31444  -0.31426  -0.25807
 Alpha virt. eigenvalues --   -0.02095   0.03692   0.05587   0.06612   0.09367
 Alpha virt. eigenvalues --    0.10777   0.13777   0.14726   0.16219   0.17266
 Alpha virt. eigenvalues --    0.18187   0.19961   0.20663   0.21235   0.22572

 Mulliken charges:
               1
     1  C    0.020150
     2  C   -0.235228
     3  C    0.251337
     4  C   -0.010724
     5  C    0.010755
     6  C    0.002760
     7  H    0.025595
     8  H    0.031134
     9  H    0.027825
    10  H    0.027073
    11  N   -0.140563
    12  S    0.200316
    13  C   -0.077517
    14  C   -0.037041
    15  C    0.107521
    16  C   -0.033340
    17  H    0.011971
    18  C   -0.032835
    19  C    0.033167
    20  H    0.001546
    21  H    0.001393
    22  H    0.014622
    23  C    0.060546
    24  O   -0.404598
    25  H    0.144133
 Sum of Mulliken charges =   0.00000

 Dipole moment (field-independent basis, Debye):
    X=              1.9849    Y=             -5.9086    Z=             -0.0001  Tot=              6.2331
 Quadrupole moment (field-independent basis, Debye-Ang):
   XX=            -81.7547   YY=            -96.8218   ZZ=           -104.1850
   XY=             -6.3607   XZ=             -0.0001   YZ=             -0.0001

  Exact polarizability:     346.980    -121.245     297.226      -0.002       0.002      63.203
 Approx polarizability:     273.072     -36.510     264.748      -0.001       0.001      81.974

                      1                      2                      3
                      A                      A                      A
 Frequencies --     14.7336                42.2349               111.0298
 Red. masses --      5.3457                 5.8794                 5.7570
 Frc consts  --      0.0007                 0.0062                 0.0418
 IR Inten    --      1.5791                 1.0210                 9.7681

                      4                      5                      6
                      A                      A                      A
 Frequencies --    115.1360               182.3272               223.8062
 Red. masses --      5.8237                 5.6804                 5.5096
 Frc consts  --      0.0455                 0.1113                 0.1626
 IR Inten    --      1.1345                 0.0559                 0.2272

                      7                      8                      9
                      A                      A                      A
 Frequencies --    262.6248               272.7733               292.6565
 Red. masses --      8.2385                 4.5936                 7.3638
 Frc consts  --      0.3348                 0.2014                 0.3716
 IR Inten    --      3.1145                 0.4186                 2.8774

                     10                     11                     12
                      A                      A                      A
 Frequencies --    351.8111               391.6202               432.8542
 Red. masses --      4.7555                 8.1430                 3.5359
 Frc consts  --      0.3468                 0.7358                 0.3903
 IR Inten    --      1.0774                 6.8676                 2.4406

                     13                     14                     15
                      A                      A                      A
 Frequencies --    453.2726               505.3957               511.5127
 Red. masses --      4.3011                 8.5951                 3.2154
 Frc consts  --      0.5207                 1.2935                 0.4957
 IR Inten    --      3.8428                10.8526                 0.3451

                     16                     17                     18
                      A                      A                      A
 Frequencies --    542.5528               547.0081               559.0609
 Red. masses --      8.2371                 6.5890                 3.8495
 Frc consts  --      1.4286                 1.1616                 0.7089
 IR Inten    --      4.7300                43.0020                 0.5843

                     19                     20                     21
                      A                      A                      A
 Frequencies --    568.3299               632.3533               694.2821
 Red. masses --      7.2161                 6.1107                 1.5186
 Frc consts  --      1.3733                 1.4397                 0.4313
 IR Inten    --     10.9205                40.5452                41.9156

                     22                     23                     24
                      A                      A                      A
 Frequencies --    718.0095               729.2610               744.3349
 Red. masses --      6.0769                 7.9465                 2.6333
 Frc consts  --      1.8458                 2.4900                 0.8596
 IR Inten    --      2.5701                 3.9917                13.5479

                     25                     26                     27
                      A                      A                      A
 Frequencies --    758.4215               766.9569               823.8450
 Red. masses --      1.6701                 1.6514                 6.2593
 Frc consts  --      0.5660                 0.5723                 2.5030
 IR Inten    --      3.0760                84.6232                18.1980

                     28                     29                     30
                      A                      A                      A
 Frequencies --    831.7956               846.5159               868.0193
 Red. masses --      1.7572                 1.1403                 4.4841
 Frc consts  --      0.7163                 0.4814                 1.9906
 IR Inten    --      2.1569                74.3152                 3.8579

                     31                     32                     33
                      A                      A                      A
 Frequencies --    870.2775               900.8772               952.4022
 Red. masses --      1.3754                 1.4380                 1.3614
 Frc consts  --      0.6137                 0.6876                 0.7276
 IR Inten    --      0.3878                 9.4375                 0.6731

                     34                     35                     36
                      A                      A                      A
 Frequencies --    958.6366               960.0444              1004.1421
 Red. masses --      1.3513                 5.3134                 1.2976
 Frc consts  --      0.7317                 2.8854                 0.7709
 IR Inten    --      1.4422                 0.4827                 0.0138

                     37                     38                     39
                      A                      A                      A
 Frequencies --   1050.1011              1053.1043              1090.3412
 Red. masses --      2.0948                 2.0911                 4.0002
 Frc consts  --      1.3610                 1.3664                 2.8019
 IR Inten    --      2.0154                 7.6185                 1.4884

                     40                     41                     42
                      A                      A                      A
 Frequencies --   1114.5646              1154.1558              1162.3934
 Red. masses --      1.5679                 1.3215                 1.2427
 Frc consts  --      1.1475                 1.0372                 0.9893
 IR Inten    --     26.6001                19.3709                57.0936

                     43                     44                     45
                      A                      A                      A
 Frequencies --   1177.1682              1209.3211              1250.1915
 Red. masses --      1.1448                 1.6800                 2.0605
 Frc consts  --      0.9346                 1.4476                 1.8974
 IR Inten    --     29.7644                65.0110                38.5459

                     46                     47                     48
                      A                      A                      A
 Frequencies --   1268.7853              1300.5340              1341.7395
 Red. masses --      2.1189                 1.8599                 5.3114
 Frc consts  --      2.0097                 1.8535                 5.6337
 IR Inten    --     47.9108                 5.3575                 4.3712

                     49                     50                     51
                      A                      A                      A
 Frequencies --   1363.2054              1393.4684              1401.1483
 Red. masses --      5.1177                 2.9530                 2.4288
 Frc consts  --      5.6033                 3.3784                 2.8094
 IR Inten    --    166.7484                 1.7729                 3.4069

                     52                     53                     54
                      A                      A                      A
 Frequencies --   1433.5467              1480.0709              1502.1804
 Red. masses --      2.9503                 3.0226                 3.1055
 Frc consts  --      3.5723                 3.9012                 4.1288
 IR Inten    --    287.9429                 0.7322                40.6764

                     55                     56                     57
                      A                      A                      A
 Frequencies --   1526.2836              1554.8523              1578.3946
 Red. masses --      3.8891                 4.9226                 4.5741
 Frc consts  --      5.3378                 7.0116                 6.7141
 IR Inten    --     33.3212               218.9326                91.2133

                     58                     59                     60
                      A                      A                      A
 Frequencies --   1616.2297              1647.1267              1666.5539
 Red. masses --      6.6200                 6.4784                 6.7973
 Frc consts  --     10.1886                10.3556                11.1231
 IR Inten    --    180.9264                48.4022               122.3667

                     61                     62                     63
                      A                      A                      A
 Frequencies --   3197.0372              3211.2910              3211.6071
 Red. masses --      1.0882                 1.0861                 1.0866
 Frc consts  --      6.5534                 6.5992                 6.6035
 IR Inten    --     20.6227                 3.2467                 5.3778

                     64                     65                     66
                      A                      A                      A
 Frequencies --   3221.1606              3223.2189              3230.4498
 Red. masses --      1.0902                 1.0923                 1.0958
 Frc consts  --      6.6649                 6.6863                 6.7374
 IR Inten    --      2.8134                15.6636                 5.6166

                     67                     68                     69
                      A                      A                      A
 Frequencies --   3235.5700              3237.7559              3281.5261
 Red. masses --      1.0989                 1.0997                 1.0844
 Frc consts  --      6.7780                 6.7923                 6.8802
 IR Inten    --     32.7464                13.8153               638.1870

 - Thermochemistry -
 -------------------
 Temperature   298.150 Kelvin.  Pressure   1.00000 Atm.
 Atom     1 has atomic number  6 and mass  12.00000

 Molecular mass:   227.04049 amu.
 Principal axes and moments of inertia in atomic units:
                           1         2         3
     Eigenvalues --  1284.161226451.191457735.35267
           X           -0.70192   0.71226   0.00000
           Y            0.71226   0.70192  -0.00001
           Z            0.00001   0.00000   1.00000
 This molecule is an asymmetric top.
 Rotational symmetry number  1.
 Warning -- assumption of classical behavior for rotation
           may cause significant error
 Rotational temperatures (Kelvin)      0.06745     0.01343     0.01120
 Rotational constants (GHZ):           1.40539     0.27975     0.23331
 Zero-point vibrational energy     489428.1 (Joules/Mol)
                                  116.97613 (Kcal/Mol)
 Warning -- explicit consideration of  19 degrees of freedom as
           vibrations may cause significant error
 Vibrational temperatures:     21.20    60.77   159.75   165.65   262.33
          (Kelvin)            322.01   377.86   392.46   421.07   506.18
                              563.45   622.78   652.16   727.15   735.95
                              780.61   787.02   804.36   817.70   909.82
                              998.92  1033.06  1049.24  1070.93  1091.20
                             1103.48  1185.33  1196.77  1217.95  1248.89
                             1252.14  1296.16  1370.29  1379.26  1381.29
                             1444.74  1510.86  1515.18  1568.76  1603.61
                             1660.57  1672.42  1693.68  1739.94  1798.75
                             1825.50  1871.18  1930.46  1961.35  2004.89
                             2015.94  2062.55  2129.49  2161.30  2195.98
                             2237.09  2270.96  2325.39  2369.85  2397.80
                             4599.82  4620.33  4620.79  4634.53  4637.49
                             4647.90  4655.26  4658.41  4721.38

 Zero-point correction=                           0.186413 (Hartree/Particle)
 Thermal correction to Energy=                    0.198877
 Thermal correction to Enthalpy=                  0.199821
 Thermal correction to Gibbs Free Energy=         0.145760
 Sum of electronic and zero-point Energies=          -1028.513609
 Sum of electronic and thermal Energies=             -1028.501145
 Sum of electronic and thermal Enthalpies=           -1028.500201
 Sum of electronic and thermal Free Energies=        -1028.554263

                     E (Thermal)             CV                S
                      KCal/Mol        Cal/Mol-Kelvin    Cal/Mol-Kelvin
 Total                  124.797             49.611            113.782
 Electronic               0.000              0.000              0.000
 Translational            0.889              2.981             42.162
 Rotational               0.889              2.981             32.527
 Vibrational            123.020             43.649             39.093
 Vibration     1          0.593              1.986              7.241
 Vibration     2          0.595              1.980              5.151
 Vibration     3          0.607              1.940              3.251
 Vibration     4          0.608              1.937              3.180
 Vibration     5          0.630              1.864              2.304
 Vibration     6          0.649              1.805              1.928
 Vibration     7          0.670              1.741              1.644
 Vibration     8          0.676              1.724              1.579
 Vibration     9          0.688              1.687              1.459
 Vibration    10          0.728              1.572              1.158
 Vibration    11          0.759              1.488              0.994
 Vibration    12          0.794              1.399              0.849
 Vibration    13          0.812              1.354              0.786
 Vibration    14          0.861              1.238              0.645
 Vibration    15          0.867              1.224              0.630
 Vibration    16          0.898              1.156              0.560
 Vibration    17          0.902              1.146              0.550
 Vibration    18          0.915              1.120              0.526
 Vibration    19          0.924              1.100              0.507

 Optimization completed.
    -- Stationary point found.
 Normal termination of Gaussian 16 at Tue Jul 14 11:15:08 2020.
