 Gaussian 16, Revision C.01,
 Gaussian 16:  ES64L-G16RevC.01  3-Jul-2019

 ----------------------------------------------------------------------
 #p opt=addgic freq td wb97xd/cc-pvdz nosymm int=ultrafine scrf=(solven
 t=CarbonTetraChloride)
 ----------------------------------------------------------------------

 ------------------------------------------------
 NM 2D-scan of HBT TD-WB97XD pVDZ in CTC Relaxed.
 ------------------------------------------------
 Symbolic Z-matrix:
 Charge =  0 Multiplicity = 1

 SCF Done:  E(RwB97XD) =  -1028.74394795     A.U. after   16 cycles
 Total Energy, E(TD-HF/TD-DFT) =  -1028.63715008
 SCF Done:  E(RwB97XD) =  -1028.79138942     A.U. after   14 cycles
 Total Energy, E(TD-HF/TD-DFT) =  -1028.68921737
 SCF Done:  E(RwB97XD) =  -1028.80125390     A.U. after   13 cycles
 Total Energy, E(TD-HF/TD-DFT) =  -1028.69874094
 SCF Done:  E(RwB97XD) =  -1028.80198714     A.U. after   12 cycles
 Total Energy, E(TD-HF/TD-DFT) =  -1028.69928125
 SCF Done:  E(RwB97XD) =  -1028.80185285     A.U. after   11 cycles
 Total Energy, E(TD-HF/TD-DFT) =  -1028.69930211
 SCF Done:  E(RwB97XD) =  -1028.80181970     A.U. after    9 cycles
 Total Energy, E(TD-HF/TD-DFT) =  -1028.69930436
 Optimization completed.
    -- Stationary point found.
 Normal termination of Gaussian 16 at Mon Jul 13 16:48:41 2020.

 ----------------------------------------------------------------------
 #P Geom=AllCheck Guess=TCheck SCRF=Check GenChk RwB97XD TD(FC,Read)/CC
 -pVDZ Freq
 ----------------------------------------------------------------------

 Structure from the checkpoint file:  "config_10_15.chk"
 ------------------------------------------------
 NM 2D-scan of HBT TD-WB97XD pVDZ in CTC Relaxed.
 ------------------------------------------------
 Charge =  0 Multiplicity = 1

                          Input orientation:
 ---------------------------------------------------------------------
 Center     Atomic      Atomic             Coordinates (Angstroms)
 Number     Number       Type             X           Y           Z
 ---------------------------------------------------------------------
      1          6           0        1.586920   -3.291004    0.000006
      2          6           0        1.008064   -2.027638    0.000001
      3          6           0        1.792105   -0.861700   -0.000025
      4          6           0        3.191242   -0.951412   -0.000045
      5          6           0        3.763830   -2.219913   -0.000040
      6          6           0        2.977818   -3.379676   -0.000015
      7          1           0        0.966613   -4.187666    0.000026
      8          1           0        3.805664   -0.050668   -0.000063
      9          1           0        4.851252   -2.309191   -0.000055
     10          1           0        3.455577   -4.359831   -0.000012
     11          7           0        1.012252    0.262235   -0.000030
     12         16           0       -0.703640   -1.624081    0.000023
     13          6           0       -1.344033    1.109154    0.000014
     14          6           0       -2.695527    0.796057   -0.000011
     15          6           0       -0.923770    2.525810    0.000060
     16          6           0       -3.692986    1.808589    0.000011
     17          1           0       -3.017091   -0.248497   -0.000050
     18          6           0       -1.971724    3.503480    0.000065
     19          6           0       -3.330387    3.150436    0.000046
     20          1           0       -4.743646    1.514885   -0.000006
     21          1           0       -1.661571    4.550166    0.000096
     22          1           0       -4.097951    3.925858    0.000057
     23          6           0       -0.339863    0.081393   -0.000001
     24          8           0        0.300310    2.814377    0.000072
     25          1           0        1.375939    1.207428   -0.000028
 ---------------------------------------------------------------------

 SCF Done:  E(RwB97XD) =  -1028.80181970     A.U. after    1 cycles

 Excitation energies and oscillator strengths:

 Excited state symmetry could not be determined.
 Excited State   1:      Singlet-?Sym    2.7896 eV  444.45 nm  f=0.4409  <S**2>=0.000
      59 -> 60         0.69736
 This state for optimization and/or second-order correction.
 Total Energy, E(TD-HF/TD-DFT) =  -1028.69930439
 Copying the excited state density for this state as the 1-particle RhoCI density.

 Excited state symmetry could not be determined.
 Excited State   2:      Singlet-?Sym    3.4581 eV  358.53 nm  f=0.0000  <S**2>=0.000
      58 -> 60         0.68359
      58 -> 62         0.11645
      58 -> 64         0.10928

 Excited state symmetry could not be determined.
 Excited State   3:      Singlet-?Sym    4.2883 eV  289.13 nm  f=0.4024  <S**2>=0.000
      57 -> 60         0.68332

 Alpha  occ. eigenvalues --  -89.10417 -19.20468 -14.53032 -10.42286 -10.37635
 Alpha  occ. eigenvalues --  -10.36218 -10.35488 -10.33464 -10.33257 -10.32754
 Alpha  occ. eigenvalues --  -10.32500 -10.31407 -10.30853 -10.30670 -10.29098
 Alpha  occ. eigenvalues --  -10.28231  -8.12454  -6.07327  -6.06948  -6.06474
 Alpha  occ. eigenvalues --   -1.13112  -1.08932  -0.98575  -0.95621  -0.93293
 Alpha  occ. eigenvalues --   -0.89091  -0.86856  -0.83888  -0.80959  -0.75901
 Alpha  occ. eigenvalues --   -0.73872  -0.72189  -0.69079  -0.67590  -0.65138
 Alpha  occ. eigenvalues --   -0.61063  -0.59745  -0.56563  -0.56138  -0.55936
 Alpha  occ. eigenvalues --   -0.55079  -0.53819  -0.53064  -0.50429  -0.48695
 Alpha  occ. eigenvalues --   -0.48683  -0.48468  -0.47046  -0.45566  -0.44877
 Alpha  occ. eigenvalues --   -0.44095  -0.42868  -0.42257  -0.39932  -0.36886
 Alpha  occ. eigenvalues --   -0.33765  -0.31481  -0.31047  -0.25572
 Alpha virt. eigenvalues --   -0.02143   0.03619   0.05616   0.06632   0.09552
 Alpha virt. eigenvalues --    0.10853   0.13621   0.14631   0.16137   0.17051
 Alpha virt. eigenvalues --    0.18095   0.19881   0.20751   0.21238   0.22657

 Mulliken charges:
               1
     1  C    0.019119
     2  C   -0.239197
     3  C    0.238206
     4  C   -0.009999
     5  C    0.011626
     6  C    0.003199
     7  H    0.025670
     8  H    0.031728
     9  H    0.028526
    10  H    0.027445
    11  N   -0.115247
    12  S    0.200441
    13  C   -0.074226
    14  C   -0.037583
    15  C    0.105251
    16  C   -0.035695
    17  H    0.009697
    18  C   -0.042667
    19  C    0.033981
    20  H    0.001038
    21  H   -0.000038
    22  H    0.014059
    23  C    0.069591
    24  O   -0.394719
    25  H    0.129796
 Sum of Mulliken charges =  -0.00000

 Dipole moment (field-independent basis, Debye):
    X=              2.2866    Y=             -6.0619    Z=             -0.0002  Tot=              6.4789
 Quadrupole moment (field-independent basis, Debye-Ang):
   XX=            -81.5675   YY=            -96.9966   ZZ=           -104.1591
   XY=             -6.1591   XZ=             -0.0003   YZ=             -0.0003

  Exact polarizability:     347.062    -119.939     294.333      -0.002       0.002      63.228
 Approx polarizability:     274.124     -37.890     264.455      -0.001       0.001      81.963

 ******    1 imaginary frequencies (negative Signs) ******

                      1                      2                      3
                      A                      A                      A
 Frequencies --    -50.3650                46.9670               108.2718
 Red. masses --      5.2672                 6.3191                 5.7604
 Frc consts  --      0.0079                 0.0082                 0.0398
 IR Inten    --      1.8582                 1.2334                 8.2276

                      4                      5                      6
                      A                      A                      A
 Frequencies --    109.5701               179.2707               226.1959
 Red. masses --      5.6240                 5.4780                 5.5523
 Frc consts  --      0.0398                 0.1037                 0.1674
 IR Inten    --      0.8595                 0.0322                 0.3700

                      7                      8                      9
                      A                      A                      A
 Frequencies --    262.8699               273.5734               287.8427
 Red. masses --      8.2515                 4.5041                 7.6869
 Frc consts  --      0.3359                 0.1986                 0.3752
 IR Inten    --      2.1623                 1.0667                 2.1111

                     10                     11                     12
                      A                      A                      A
 Frequencies --    345.9702               385.4915               428.5039
 Red. masses --      4.5596                 7.6329                 3.6831
 Frc consts  --      0.3216                 0.6683                 0.3984
 IR Inten    --      1.1036                 7.6294                 2.8933

                     13                     14                     15
                      A                      A                      A
 Frequencies --    447.8382               504.0076               513.4343
 Red. masses --      4.1624                 8.4614                 3.2188
 Frc consts  --      0.4919                 1.2664                 0.4999
 IR Inten    --      4.8393                11.1254                 0.2813

                     16                     17                     18
                      A                      A                      A
 Frequencies --    542.4058               544.7581               558.7228
 Red. masses --      8.0231                 6.8144                 3.7981
 Frc consts  --      1.3907                 1.1915                 0.6986
 IR Inten    --      5.3661                44.7413                 1.1764

                     19                     20                     21
                      A                      A                      A
 Frequencies --    567.3640               637.3233               681.0199
 Red. masses --      7.2720                 6.2523                 1.2101
 Frc consts  --      1.3792                 1.4963                 0.3307
 IR Inten    --      8.6323                26.0419                90.6596

                     22                     23                     24
                      A                      A                      A
 Frequencies --    698.2743               714.9935               734.4254
 Red. masses --      1.3149                 5.9718                 7.7918
 Frc consts  --      0.3777                 1.7987                 2.4762
 IR Inten    --      0.3793                 2.1995                 5.2036

                     25                     26                     27
                      A                      A                      A
 Frequencies --    745.6777               759.0020               766.8972
 Red. masses --      2.4724                 1.7072                 1.6925
 Frc consts  --      0.8100                 0.5795                 0.5865
 IR Inten    --     25.5673                11.4497                89.1365

                     28                     29                     30
                      A                      A                      A
 Frequencies --    822.0264               835.4637               867.6179
 Red. masses --      6.2554                 1.9599                 1.3804
 Frc consts  --      2.4905                 0.8060                 0.6122
 IR Inten    --     17.7142                 1.2656                 1.1517

                     31                     32                     33
                      A                      A                      A
 Frequencies --    880.6354               900.1563               952.4399
 Red. masses --      4.9190                 1.4436                 1.3601
 Frc consts  --      2.2476                 0.6892                 0.7269
 IR Inten    --      1.4140                 8.7347                 0.4666

                     34                     35                     36
                      A                      A                      A
 Frequencies --    957.8515               961.9548              1003.6965
 Red. masses --      1.3522                 5.1238                 1.2975
 Frc consts  --      0.7310                 2.7935                 0.7701
 IR Inten    --      1.7237                 0.2088                 0.0065

                     37                     38                     39
                      A                      A                      A
 Frequencies --   1048.5155              1055.7024              1090.4752
 Red. masses --      2.1472                 2.1509                 3.7952
 Frc consts  --      1.3908                 1.4124                 2.6590
 IR Inten    --      1.3024                 8.5777                 1.2979

                     40                     41                     42
                      A                      A                      A
 Frequencies --   1107.0327              1154.4440              1161.1441
 Red. masses --      1.6247                 1.2892                 1.2714
 Frc consts  --      1.1731                 1.0123                 1.0100
 IR Inten    --     29.1497                21.0468                51.5617

                     43                     44                     45
                      A                      A                      A
 Frequencies --   1177.4404              1196.6884              1245.5156
 Red. masses --      1.1506                 1.5830                 2.1871
 Frc consts  --      0.9399                 1.3357                 1.9990
 IR Inten    --     33.9968                44.6354                22.7556

                     46                     47                     48
                      A                      A                      A
 Frequencies --   1267.3011              1297.6618              1338.5312
 Red. masses --      2.2765                 1.7002                 4.8562
 Frc consts  --      2.1542                 1.6868                 5.1263
 IR Inten    --     53.0278                 1.4362                 3.8236

                     49                     50                     51
                      A                      A                      A
 Frequencies --   1363.6589              1396.3356              1402.6123
 Red. masses --      3.3301                 3.8010                 2.4618
 Frc consts  --      3.6486                 4.3665                 2.8535
 IR Inten    --    116.6784                30.1477                18.1739

                     52                     53                     54
                      A                      A                      A
 Frequencies --   1437.6731              1476.5228              1511.0318
 Red. masses --      2.8557                 3.1463                 2.9536
 Frc consts  --      3.4777                 4.0413                 3.9733
 IR Inten    --    193.4776                 1.7285                39.1635

                     55                     56                     57
                      A                      A                      A
 Frequencies --   1523.1215              1552.2264              1592.8651
 Red. masses --      3.8455                 4.8175                 5.0924
 Frc consts  --      5.2562                 6.8388                 7.6126
 IR Inten    --     44.4845               204.8072               110.7698

                     58                     59                     60
                      A                      A                      A
 Frequencies --   1623.8408              1659.1909              1668.3630
 Red. masses --      7.2484                 6.7897                 6.8934
 Frc consts  --     11.2611                11.0126                11.3048
 IR Inten    --    152.5713                14.7401               141.3831

                     61                     62                     63
                      A                      A                      A
 Frequencies --   3194.9513              3209.8567              3212.6256
 Red. masses --      1.0885                 1.0865                 1.0862
 Frc consts  --      6.5463                 6.5957                 6.6050
 IR Inten    --     26.2065                 3.2076                 3.9596

                     64                     65                     66
                      A                      A                      A
 Frequencies --   3221.1701              3223.0903              3232.3297
 Red. masses --      1.0920                 1.0903                 1.0957
 Frc consts  --      6.6755                 6.6731                 6.7447
 IR Inten    --     14.9801                 3.3595                 6.8650

                     67                     68                     69
                      A                      A                      A
 Frequencies --   3234.4309              3239.2775              3589.9925
 Red. masses --      1.0990                 1.0996                 1.0825
 Frc consts  --      6.7738                 6.7983                 8.2201
 IR Inten    --     28.3323                11.8997               419.9443

 - Thermochemistry -
 -------------------
 Temperature   298.150 Kelvin.  Pressure   1.00000 Atm.
 Atom     1 has atomic number  6 and mass  12.00000

 Molecular mass:   227.04049 amu.
 Principal axes and moments of inertia in atomic units:
                           1         2         3
     Eigenvalues --  1276.007976488.167337764.17530
           X           -0.70358   0.71062   0.00000
           Y            0.71062   0.70358  -0.00001
           Z            0.00001   0.00000   1.00000
 This molecule is an asymmetric top.
 Rotational symmetry number  1.
 Warning -- assumption of classical behavior for rotation
           may cause significant error
 Rotational temperatures (Kelvin)      0.06788     0.01335     0.01116
 Rotational constants (GHZ):           1.41437     0.27816     0.23244
    1 imaginary frequencies ignored.
 Zero-point vibrational energy     490218.5 (Joules/Mol)
                                  117.16503 (Kcal/Mol)
 Warning -- explicit consideration of  18 degrees of freedom as
           vibrations may cause significant error
 Vibrational temperatures:     67.57   155.78   157.65   257.93   325.45
          (Kelvin)            378.21   393.61   414.14   497.77   554.64
                              616.52   644.34   725.15   738.72   780.40
                              783.79   803.88   816.31   916.97   979.84
                             1004.66  1028.72  1056.67  1072.86  1092.03
                             1103.39  1182.71  1202.05  1248.31  1267.04
                             1295.12  1370.35  1378.13  1384.04  1444.10
                             1508.58  1518.92  1568.95  1592.77  1660.99
                             1670.63  1694.07  1721.77  1792.02  1823.36
                             1867.05  1925.85  1962.00  2009.02  2018.05
                             2068.49  2124.39  2174.04  2191.43  2233.31
                             2291.78  2336.34  2387.21  2400.40  4596.82
                             4618.27  4622.25  4634.55  4637.31  4650.60
                             4653.62  4660.60  5165.20

 Zero-point correction=                           0.186714 (Hartree/Particle)
 Thermal correction to Energy=                    0.198350
 Thermal correction to Enthalpy=                  0.199294
 Thermal correction to Gibbs Free Energy=         0.148580
 Sum of electronic and zero-point Energies=          -1028.512590
 Sum of electronic and thermal Energies=             -1028.500955
 Sum of electronic and thermal Enthalpies=           -1028.500010
 Sum of electronic and thermal Free Energies=        -1028.550724

                     E (Thermal)             CV                S
                      KCal/Mol        Cal/Mol-Kelvin    Cal/Mol-Kelvin
 Total                  124.466             47.948            106.736
 Electronic               0.000              0.000              0.000
 Translational            0.889              2.981             42.162
 Rotational               0.889              2.981             32.530
 Vibrational            122.689             41.986             32.044
 Vibration     1          0.595              1.979              4.941
 Vibration     2          0.606              1.943              3.300
 Vibration     3          0.606              1.942              3.277
 Vibration     4          0.629              1.868              2.336
 Vibration     5          0.650              1.801              1.909
 Vibration     6          0.670              1.741              1.643
 Vibration     7          0.676              1.722              1.574
 Vibration     8          0.685              1.696              1.487
 Vibration     9          0.724              1.583              1.184
 Vibration    10          0.754              1.501              1.018
 Vibration    11          0.790              1.408              0.864
 Vibration    12          0.807              1.366              0.802
 Vibration    13          0.859              1.241              0.648
 Vibration    14          0.869              1.220              0.625
 Vibration    15          0.898              1.156              0.560
 Vibration    16          0.900              1.151              0.555
 Vibration    17          0.914              1.121              0.526
 Vibration    18          0.923              1.102              0.509

 Optimization completed.
    -- Stationary point found.
 Normal termination of Gaussian 16 at Mon Jul 13 17:06:29 2020.
