 Gaussian 16, Revision C.01,
 Gaussian 16:  ES64L-G16RevC.01  3-Jul-2019

 ----------------------------------------------------------------------
 #p opt=addgic freq td wb97xd/cc-pvdz nosymm int=ultrafine scrf=(solven
 t=CarbonTetraChloride)
 ----------------------------------------------------------------------

 ------------------------------------------------
 NM 2D-scan of HBT TD-WB97XD pVDZ in CTC Relaxed.
 ------------------------------------------------
 Symbolic Z-matrix:
 Charge =  0 Multiplicity = 1

 SCF Done:  E(RwB97XD) =  -1028.80402020     A.U. after   15 cycles
 Total Energy, E(TD-HF/TD-DFT) =  -1028.67278303
 SCF Done:  E(RwB97XD) =  -1028.82093021     A.U. after   13 cycles
 Total Energy, E(TD-HF/TD-DFT) =  -1028.69178295
 SCF Done:  E(RwB97XD) =  -1028.82061539     A.U. after   12 cycles
 Total Energy, E(TD-HF/TD-DFT) =  -1028.69294263
 SCF Done:  E(RwB97XD) =  -1028.82101034     A.U. after   11 cycles
 Total Energy, E(TD-HF/TD-DFT) =  -1028.69305895
 SCF Done:  E(RwB97XD) =  -1028.82109839     A.U. after   10 cycles
 Total Energy, E(TD-HF/TD-DFT) =  -1028.69317475
 SCF Done:  E(RwB97XD) =  -1028.82112608     A.U. after    8 cycles
 Total Energy, E(TD-HF/TD-DFT) =  -1028.69317614
 Optimization completed.
    -- Stationary point found.
 Normal termination of Gaussian 16 at Mon Jul 13 17:14:05 2020.

 ----------------------------------------------------------------------
 #P Geom=AllCheck Guess=TCheck SCRF=Check GenChk RwB97XD TD(FC,Read)/CC
 -pVDZ Freq
 ----------------------------------------------------------------------

 Structure from the checkpoint file:  "config_3_12.chk"
 ------------------------------------------------
 NM 2D-scan of HBT TD-WB97XD pVDZ in CTC Relaxed.
 ------------------------------------------------
 Charge =  0 Multiplicity = 1

                          Input orientation:
 ---------------------------------------------------------------------
 Center     Atomic      Atomic             Coordinates (Angstroms)
 Number     Number       Type             X           Y           Z
 ---------------------------------------------------------------------
      1          6           0        1.606665   -3.282337   -0.000034
      2          6           0        0.979859   -2.039184   -0.000023
      3          6           0        1.728840   -0.814826   -0.000005
      4          6           0        3.146773   -0.889064    0.000000
      5          6           0        3.754200   -2.129373   -0.000011
      6          6           0        2.999280   -3.322103   -0.000028
      7          1           0        1.021406   -4.202694   -0.000047
      8          1           0        3.728115    0.033538    0.000013
      9          1           0        4.844014   -2.191418   -0.000007
     10          1           0        3.510934   -4.285558   -0.000037
     11          7           0        0.996554    0.310109    0.000003
     12         16           0       -0.731842   -1.692790   -0.000025
     13          6           0       -1.326441    1.053668    0.000006
     14          6           0       -2.723101    0.789583    0.000014
     15          6           0       -0.913499    2.467399    0.000020
     16          6           0       -3.643852    1.825396    0.000037
     17          1           0       -3.069907   -0.245013    0.000006
     18          6           0       -1.874052    3.488742    0.000046
     19          6           0       -3.229478    3.177671    0.000055
     20          1           0       -4.709764    1.592140    0.000045
     21          1           0       -1.517887    4.519301    0.000055
     22          1           0       -3.972880    3.975352    0.000074
     23          6           0       -0.340955    0.048480   -0.000007
     24          8           0        0.360449    2.787737    0.000002
     25          1           0        0.900898    1.921770   -0.000041
 ---------------------------------------------------------------------

 SCF Done:  E(RwB97XD) =  -1028.82112608     A.U. after    1 cycles

 Excitation energies and oscillator strengths:

 Excited state symmetry could not be determined.
 Excited State   1:      Singlet-?Sym    3.4817 eV  356.10 nm  f=0.6877  <S**2>=0.000
      59 -> 60         0.68913
 This state for optimization and/or second-order correction.
 Total Energy, E(TD-HF/TD-DFT) =  -1028.69317613
 Copying the excited state density for this state as the 1-particle RhoCI density.

 Excited state symmetry could not be determined.
 Excited State   2:      Singlet-?Sym    4.3896 eV  282.45 nm  f=0.1939  <S**2>=0.000
      57 -> 60         0.28654
      58 -> 60         0.59691
      59 -> 62         0.13844

 Excited state symmetry could not be determined.
 Excited State   3:      Singlet-?Sym    4.5943 eV  269.87 nm  f=0.0754  <S**2>=0.000
      57 -> 60         0.55447
      57 -> 62        -0.12686
      58 -> 60        -0.27853
      58 -> 61        -0.12035
      59 -> 61         0.22374

 Alpha  occ. eigenvalues --  -89.08946 -19.28348 -14.47216 -10.39763 -10.38138
 Alpha  occ. eigenvalues --  -10.35089 -10.34721 -10.32514 -10.32322 -10.32132
 Alpha  occ. eigenvalues --  -10.32020 -10.31454 -10.31390 -10.31287 -10.30501
 Alpha  occ. eigenvalues --  -10.30402  -8.10918  -6.05763  -6.05425  -6.04978
 Alpha  occ. eigenvalues --   -1.17068  -1.08269  -0.96745  -0.95722  -0.91885
 Alpha  occ. eigenvalues --   -0.88807  -0.84990  -0.84497  -0.82314  -0.75964
 Alpha  occ. eigenvalues --   -0.71170  -0.70186  -0.69163  -0.68226  -0.63526
 Alpha  occ. eigenvalues --   -0.60395  -0.58919  -0.58638  -0.55941  -0.54439
 Alpha  occ. eigenvalues --   -0.53797  -0.53208  -0.52942  -0.50756  -0.50431
 Alpha  occ. eigenvalues --   -0.49350  -0.47666  -0.45916  -0.45601  -0.44773
 Alpha  occ. eigenvalues --   -0.43971  -0.42923  -0.42261  -0.40030  -0.37364
 Alpha  occ. eigenvalues --   -0.36454  -0.32081  -0.31504  -0.28046
 Alpha virt. eigenvalues --   -0.01810   0.05146   0.06947   0.07148   0.07536
 Alpha virt. eigenvalues --    0.11122   0.14047   0.15173   0.16434   0.18049
 Alpha virt. eigenvalues --    0.18556   0.21067   0.21623   0.22350   0.22712

 Mulliken charges:
               1
     1  C    0.015959
     2  C   -0.220840
     3  C    0.225386
     4  C   -0.017993
     5  C    0.006993
     6  C   -0.006296
     7  H    0.017543
     8  H    0.017003
     9  H    0.018670
    10  H    0.020276
    11  N   -0.361584
    12  S    0.156875
    13  C   -0.082177
    14  C   -0.022314
    15  C    0.086980
    16  C   -0.011859
    17  H    0.017336
    18  C    0.007507
    19  C    0.022568
    20  H    0.011297
    21  H    0.019079
    22  H    0.022988
    23  C    0.083836
    24  O   -0.206548
    25  H    0.179317
 Sum of Mulliken charges =  -0.00000

 Dipole moment (field-independent basis, Debye):
    X=             -0.5224    Y=             -2.0682    Z=             -0.0000  Tot=              2.1332
 Quadrupole moment (field-independent basis, Debye-Ang):
   XX=            -83.2180   YY=            -89.3849   ZZ=           -104.3644
   XY=             -7.0122   XZ=             -0.0002   YZ=              0.0002

  Exact polarizability:     399.085    -189.779     381.766      -0.002       0.004      63.379
 Approx polarizability:     278.290     -36.357     260.842      -0.001       0.002      82.380

                      1                      2                      3
                      A                      A                      A
 Frequencies --     43.5152                62.6610               108.4514
 Red. masses --      6.0232                 5.6938                 4.9746
 Frc consts  --      0.0067                 0.0132                 0.0345
 IR Inten    --      1.4494                 0.0023                 0.1930

                      4                      5                      6
                      A                      A                      A
 Frequencies --    112.1906               179.5330               223.4468
 Red. masses --      5.6208                 6.5432                 5.3700
 Frc consts  --      0.0417                 0.1243                 0.1580
 IR Inten    --      2.0942                 1.2286                 0.0000

                      7                      8                      9
                      A                      A                      A
 Frequencies --    268.7078               271.2792               303.9312
 Red. masses --      7.6988                 4.8293                 6.6726
 Frc consts  --      0.3275                 0.2094                 0.3632
 IR Inten    --     26.5073                 0.0626                 5.2574

                     10                     11                     12
                      A                      A                      A
 Frequencies --    389.4586               403.8414               439.2974
 Red. masses --      4.5945                 9.2677                 3.2609
 Frc consts  --      0.4106                 0.8905                 0.3708
 IR Inten    --      0.0933                13.6102                 4.1423

                     13                     14                     15
                      A                      A                      A
 Frequencies --    489.9049               499.7248               505.3815
 Red. masses --      4.5506                 7.8522                 3.1603
 Frc consts  --      0.6435                 1.1553                 0.4756
 IR Inten    --      0.1659                 5.7049                 0.0093

                     16                     17                     18
                      A                      A                      A
 Frequencies --    516.3580               525.6911               553.0856
 Red. masses --      4.9314                 8.4198                 3.9810
 Frc consts  --      0.7747                 1.3709                 0.7175
 IR Inten    --     28.9185                28.0593                 0.1315

                     19                     20                     21
                      A                      A                      A
 Frequencies --    577.3094               643.1538               698.4447
 Red. masses --      7.6654                 6.6009                 9.0692
 Frc consts  --      1.5052                 1.6087                 2.6067
 IR Inten    --     33.7463                32.0878                31.3606

                     22                     23                     24
                      A                      A                      A
 Frequencies --    717.1420               717.3092               737.5468
 Red. masses --      7.3819                 1.7076                 1.8460
 Frc consts  --      2.2368                 0.5177                 0.5916
 IR Inten    --     20.9231                48.5799                36.0726

                     25                     26                     27
                      A                      A                      A
 Frequencies --    747.5719               771.0764               816.7047
 Red. masses --      1.8971                 2.1170                 6.3229
 Frc consts  --      0.6247                 0.7416                 2.4848
 IR Inten    --     21.1103                51.1134                17.1839

                     28                     29                     30
                      A                      A                      A
 Frequencies --    816.9662               860.4553               889.8667
 Red. masses --      1.6809                 1.4235                 6.4221
 Frc consts  --      0.6610                 0.6210                 2.9962
 IR Inten    --      1.6003                 0.8200                60.3060

                     31                     32                     33
                      A                      A                      A
 Frequencies --    917.2731               953.4206               964.6021
 Red. masses --      1.3466                 1.3437                 7.2714
 Frc consts  --      0.6675                 0.7197                 3.9862
 IR Inten    --      7.0559                 1.8809                 6.1807

                     34                     35                     36
                      A                      A                      A
 Frequencies --    966.4333               996.7603               999.7296
 Red. masses --      1.3557                 1.0859                 1.2711
 Frc consts  --      0.7460                 0.6356                 0.7485
 IR Inten    --      0.1749                58.9373                 6.8586

                     37                     38                     39
                      A                      A                      A
 Frequencies --   1039.1088              1042.0629              1080.5630
 Red. masses --      2.1587                 2.0993                 4.5694
 Frc consts  --      1.3733                 1.3431                 3.1434
 IR Inten    --      2.3923                 0.9064                54.4310

                     40                     41                     42
                      A                      A                      A
 Frequencies --   1135.5726              1149.5343              1175.5328
 Red. masses --      1.4648                 1.3351                 1.1359
 Frc consts  --      1.1129                 1.0394                 0.9248
 IR Inten    --     63.9434                15.2327                 3.6069

                     43                     44                     45
                      A                      A                      A
 Frequencies --   1179.4045              1228.5243              1242.5744
 Red. masses --      1.2036                 4.3428                 1.8644
 Frc consts  --      0.9864                 3.8618                 1.6960
 IR Inten    --     38.7549                37.0685               167.1469

                     46                     47                     48
                      A                      A                      A
 Frequencies --   1279.8988              1317.9662              1363.7365
 Red. masses --      1.6824                 3.7272                 2.6430
 Frc consts  --      1.6238                 3.8145                 2.8960
 IR Inten    --      1.9128               328.6771                16.2723

                     49                     50                     51
                      A                      A                      A
 Frequencies --   1373.3513              1400.2256              1441.5042
 Red. masses --      5.7922                 2.0618                 2.6007
 Frc consts  --      6.4366                 2.3817                 3.1840
 IR Inten    --     64.6002                 1.4555               173.4198

                     52                     53                     54
                      A                      A                      A
 Frequencies --   1472.8787              1500.9799              1525.6338
 Red. masses --      3.6049                 3.8531                 3.0241
 Frc consts  --      4.6076                 5.1145                 4.1472
 IR Inten    --     70.3581                41.4514               191.4558

                     55                     56                     57
                      A                      A                      A
 Frequencies --   1541.5888              1570.9123              1598.5868
 Red. masses --      4.4466                 7.4749                 4.9084
 Frc consts  --      6.2261                10.8683                 7.3903
 IR Inten    --      0.4305               348.9694               326.3608

                     58                     59                     60
                      A                      A                      A
 Frequencies --   1618.4546              1625.6591              1649.4357
 Red. masses --      4.4413                 1.9957                 4.3263
 Frc consts  --      6.8542                 3.1074                 6.9349
 IR Inten    --    792.3987                65.6843               127.1469

                     61                     62                     63
                      A                      A                      A
 Frequencies --   2708.2561              3208.0309              3209.7555
 Red. masses --      1.0838                 1.0862                 1.0863
 Frc consts  --      4.6838                 6.5863                 6.5940
 IR Inten    --    104.5096                 9.9872                 5.5871

                     64                     65                     66
                      A                      A                      A
 Frequencies --   3219.0410              3221.2024              3228.9336
 Red. masses --      1.0899                 1.0891                 1.0942
 Frc consts  --      6.6539                 6.6583                 6.7218
 IR Inten    --      3.1192                 1.9483                16.1279

                     67                     68                     69
                      A                      A                      A
 Frequencies --   3231.0787              3236.8755              3240.6469
 Red. masses --      1.0953                 1.0989                 1.0985
 Frc consts  --      6.7375                 6.7837                 6.7968
 IR Inten    --     11.1874                40.5081                26.2384

 - Thermochemistry -
 -------------------
 Temperature   298.150 Kelvin.  Pressure   1.00000 Atm.
 Atom     1 has atomic number  6 and mass  12.00000

 Molecular mass:   227.04049 amu.
 Principal axes and moments of inertia in atomic units:
                           1         2         3
     Eigenvalues --  1318.229856335.958407654.18826
           X           -0.69995   0.71420   0.00000
           Y            0.71420   0.69995  -0.00001
           Z            0.00001   0.00001   1.00000
 This molecule is an asymmetric top.
 Rotational symmetry number  1.
 Warning -- assumption of classical behavior for rotation
           may cause significant error
 Rotational temperatures (Kelvin)      0.06570     0.01367     0.01132
 Rotational constants (GHZ):           1.36906     0.28484     0.23578
 Zero-point vibrational energy     488948.1 (Joules/Mol)
                                  116.86140 (Kcal/Mol)
 Warning -- explicit consideration of  19 degrees of freedom as
           vibrations may cause significant error
 Vibrational temperatures:     62.61    90.16   156.04   161.42   258.31
          (Kelvin)            321.49   386.61   390.31   437.29   560.34
                              581.04   632.05   704.86   718.99   727.13
                              742.92   756.35   795.77   830.62   925.35
                             1004.91  1031.81  1032.05  1061.17  1075.59
                             1109.41  1175.06  1175.43  1238.00  1280.32
                             1319.75  1371.76  1387.85  1390.48  1434.12
                             1438.39  1495.05  1499.30  1554.69  1633.84
                             1653.92  1691.33  1696.90  1767.57  1787.79
                             1841.49  1896.26  1962.11  1975.95  2014.61
                             2074.00  2119.14  2159.58  2195.05  2218.00
                             2260.19  2300.01  2328.60  2338.96  2373.17
                             3896.58  4615.64  4618.12  4631.48  4634.59
                             4645.72  4648.80  4657.14  4662.57

 Zero-point correction=                           0.186230 (Hartree/Particle)
 Thermal correction to Energy=                    0.198503
 Thermal correction to Enthalpy=                  0.199447
 Thermal correction to Gibbs Free Energy=         0.146897
 Sum of electronic and zero-point Energies=          -1028.506946
 Sum of electronic and thermal Energies=             -1028.494673
 Sum of electronic and thermal Enthalpies=           -1028.493729
 Sum of electronic and thermal Free Energies=        -1028.546279

                     E (Thermal)             CV                S
                      KCal/Mol        Cal/Mol-Kelvin    Cal/Mol-Kelvin
 Total                  124.563             49.233            110.601
 Electronic               0.000              0.000              0.000
 Translational            0.889              2.981             42.162
 Rotational               0.889              2.981             32.525
 Vibrational            122.785             43.272             35.914
 Vibration     1          0.595              1.980              5.092
 Vibration     2          0.597              1.972              4.372
 Vibration     3          0.606              1.942              3.296
 Vibration     4          0.607              1.939              3.231
 Vibration     5          0.629              1.867              2.333
 Vibration     6          0.649              1.805              1.931
 Vibration     7          0.673              1.731              1.605
 Vibration     8          0.675              1.726              1.588
 Vibration     9          0.695              1.666              1.395
 Vibration    10          0.757              1.493              1.002
 Vibration    11          0.769              1.462              0.949
 Vibration    12          0.799              1.384              0.829
 Vibration    13          0.846              1.272              0.684
 Vibration    14          0.855              1.251              0.659
 Vibration    15          0.861              1.238              0.645
 Vibration    16          0.871              1.214              0.618
 Vibration    17          0.881              1.193              0.597
 Vibration    18          0.908              1.133              0.538
 Vibration    19          0.934              1.080              0.490

 Optimization completed.
    -- Stationary point found.
 Normal termination of Gaussian 16 at Mon Jul 13 17:31:39 2020.
