 Gaussian 16, Revision C.01,
 Gaussian 16:  ES64L-G16RevC.01  3-Jul-2019

 ----------------------------------------------------------------------
 #p opt=addgic freq td wb97xd/cc-pvdz nosymm int=ultrafine scrf=(solven
 t=CarbonTetraChloride)
 ----------------------------------------------------------------------

 ------------------------------------------------
 NM 2D-scan of HBT TD-WB97XD pVDZ in CTC Relaxed.
 ------------------------------------------------
 Symbolic Z-matrix:
 Charge =  0 Multiplicity = 1

 SCF Done:  E(RwB97XD) =  -1028.81568774     A.U. after   15 cycles
 Total Energy, E(TD-HF/TD-DFT) =  -1028.68584018
 SCF Done:  E(RwB97XD) =  -1028.82029472     A.U. after   13 cycles
 Total Energy, E(TD-HF/TD-DFT) =  -1028.69188574
 SCF Done:  E(RwB97XD) =  -1028.81893510     A.U. after   12 cycles
 Total Energy, E(TD-HF/TD-DFT) =  -1028.69230161
 SCF Done:  E(RwB97XD) =  -1028.81960147     A.U. after   11 cycles
 Total Energy, E(TD-HF/TD-DFT) =  -1028.69265857
 SCF Done:  E(RwB97XD) =  -1028.81978238     A.U. after   10 cycles
 Total Energy, E(TD-HF/TD-DFT) =  -1028.69269670
 SCF Done:  E(RwB97XD) =  -1028.81980851     A.U. after    8 cycles
 Total Energy, E(TD-HF/TD-DFT) =  -1028.69269823
 Optimization completed.
    -- Stationary point found.
 Normal termination of Gaussian 16 at Mon Jul 13 14:46:07 2020.

 ----------------------------------------------------------------------
 #P Geom=AllCheck Guess=TCheck SCRF=Check GenChk RwB97XD TD(FC,Read)/CC
 -pVDZ Freq
 ----------------------------------------------------------------------

 Structure from the checkpoint file:  "config_4_8.chk"
 ------------------------------------------------
 NM 2D-scan of HBT TD-WB97XD pVDZ in CTC Relaxed.
 ------------------------------------------------
 Charge =  0 Multiplicity = 1

                          Input orientation:
 ---------------------------------------------------------------------
 Center     Atomic      Atomic             Coordinates (Angstroms)
 Number     Number       Type             X           Y           Z
 ---------------------------------------------------------------------
      1          6           0        1.662876   -3.280095   -0.000031
      2          6           0        0.986446   -2.062550   -0.000013
      3          6           0        1.698862   -0.821175   -0.000005
      4          6           0        3.116014   -0.834917   -0.000013
      5          6           0        3.771756   -2.049621   -0.000031
      6          6           0        3.058254   -3.266133   -0.000040
      7          1           0        1.117104   -4.224435   -0.000038
      8          1           0        3.656796    0.112028   -0.000006
      9          1           0        4.863056   -2.071676   -0.000038
     10          1           0        3.603368   -4.211098   -0.000055
     11          7           0        0.935009    0.279216    0.000009
     12         16           0       -0.741974   -1.755651    0.000000
     13          6           0       -1.362414    1.030506    0.000018
     14          6           0       -2.765935    0.829996    0.000011
     15          6           0       -0.894878    2.434544    0.000030
     16          6           0       -3.644394    1.907550    0.000021
     17          1           0       -3.157906   -0.188544   -0.000002
     18          6           0       -1.814662    3.495560    0.000041
     19          6           0       -3.180418    3.243163    0.000037
     20          1           0       -4.718660    1.715925    0.000017
     21          1           0       -1.411322    4.508616    0.000052
     22          1           0       -3.891992    4.069167    0.000046
     23          6           0       -0.396404   -0.000652    0.000013
     24          8           0        0.383419    2.715877    0.000035
     25          1           0        0.894694    1.813266    0.000041
 ---------------------------------------------------------------------

 SCF Done:  E(RwB97XD) =  -1028.81980851     A.U. after    1 cycles

 Excitation energies and oscillator strengths:

 Excited state symmetry could not be determined.
 Excited State   1:      Singlet-?Sym    3.4588 eV  358.46 nm  f=0.6512  <S**2>=0.000
      59 -> 60         0.68986
 This state for optimization and/or second-order correction.
 Total Energy, E(TD-HF/TD-DFT) =  -1028.69269821
 Copying the excited state density for this state as the 1-particle RhoCI density.

 Excited state symmetry could not be determined.
 Excited State   2:      Singlet-?Sym    4.3910 eV  282.36 nm  f=0.2573  <S**2>=0.000
      57 -> 60         0.21509
      58 -> 60         0.62929
      59 -> 62         0.12193
      59 -> 63         0.10928

 Excited state symmetry could not be determined.
 Excited State   3:      Singlet-?Sym    4.6208 eV  268.32 nm  f=0.0544  <S**2>=0.000
      57 -> 60         0.57661
      57 -> 62        -0.14071
      58 -> 60        -0.20830
      58 -> 61        -0.14001
      59 -> 61         0.23464

 Alpha  occ. eigenvalues --  -89.09195 -19.27772 -14.47244 -10.39984 -10.38008
 Alpha  occ. eigenvalues --  -10.35128 -10.34907 -10.32527 -10.32289 -10.32260
 Alpha  occ. eigenvalues --  -10.31891 -10.31518 -10.31485 -10.31380 -10.30371
 Alpha  occ. eigenvalues --  -10.30187  -8.11123  -6.05976  -6.05634  -6.05178
 Alpha  occ. eigenvalues --   -1.16714  -1.08509  -0.96730  -0.95644  -0.91821
 Alpha  occ. eigenvalues --   -0.88828  -0.84957  -0.84365  -0.82389  -0.75951
 Alpha  occ. eigenvalues --   -0.71066  -0.70220  -0.69106  -0.68275  -0.63440
 Alpha  occ. eigenvalues --   -0.60469  -0.58870  -0.58597  -0.55806  -0.54398
 Alpha  occ. eigenvalues --   -0.53895  -0.53044  -0.52961  -0.50951  -0.50299
 Alpha  occ. eigenvalues --   -0.49472  -0.47638  -0.45947  -0.45573  -0.44764
 Alpha  occ. eigenvalues --   -0.43894  -0.42807  -0.42431  -0.40096  -0.37025
 Alpha  occ. eigenvalues --   -0.36471  -0.32239  -0.31359  -0.27971
 Alpha virt. eigenvalues --   -0.01779   0.05037   0.06975   0.07266   0.07332
 Alpha virt. eigenvalues --    0.11037   0.13686   0.15126   0.16159   0.17986
 Alpha virt. eigenvalues --    0.18621   0.21000   0.21691   0.22373   0.22640

 Mulliken charges:
               1
     1  C    0.013136
     2  C   -0.225871
     3  C    0.241323
     4  C   -0.016675
     5  C    0.008504
     6  C   -0.006349
     7  H    0.018701
     8  H    0.018155
     9  H    0.019350
    10  H    0.020882
    11  N   -0.357250
    12  S    0.160264
    13  C   -0.094313
    14  C   -0.019019
    15  C    0.093816
    16  C   -0.016068
    17  H    0.012821
    18  C    0.005752
    19  C    0.023526
    20  H    0.010673
    21  H    0.017605
    22  H    0.022211
    23  C    0.083422
    24  O   -0.219856
    25  H    0.185261
 Sum of Mulliken charges =  -0.00000

 Dipole moment (field-independent basis, Debye):
    X=             -0.2737    Y=             -2.2438    Z=             -0.0000  Tot=              2.2605
 Quadrupole moment (field-independent basis, Debye-Ang):
   XX=            -83.2682   YY=            -89.4965   ZZ=           -104.3826
   XY=             -6.9850   XZ=             -0.0001   YZ=              0.0002

  Exact polarizability:     395.964    -183.497     372.727      -0.002       0.003      63.414
 Approx polarizability:     278.152     -36.052     261.070      -0.001       0.002      82.406

                      1                      2                      3
                      A                      A                      A
 Frequencies --     42.9967                55.5774               109.4339
 Red. masses --      5.8602                 6.5490                 4.7456
 Frc consts  --      0.0064                 0.0119                 0.0335
 IR Inten    --      1.5062                 0.0270                 0.1674

                      4                      5                      6
                      A                      A                      A
 Frequencies --    112.2639               178.9833               223.0419
 Red. masses --      5.5779                 6.3274                 5.3697
 Frc consts  --      0.0414                 0.1194                 0.1574
 IR Inten    --      1.4514                 1.0112                 0.0064

                      7                      8                      9
                      A                      A                      A
 Frequencies --    268.7107               270.4131               306.3537
 Red. masses --      7.6145                 4.8187                 6.4731
 Frc consts  --      0.3239                 0.2076                 0.3579
 IR Inten    --     25.3688                 0.1174                 6.2535

                     10                     11                     12
                      A                      A                      A
 Frequencies --    387.7065               400.7843               438.4485
 Red. masses --      4.6905                 9.2470                 3.2616
 Frc consts  --      0.4154                 0.8751                 0.3694
 IR Inten    --      0.1628                11.6175                 4.3750

                     13                     14                     15
                      A                      A                      A
 Frequencies --    489.1587               499.8321               501.6579
 Red. masses --      4.6149                 7.2351                 3.1568
 Frc consts  --      0.6506                 1.0650                 0.4681
 IR Inten    --      0.1314                 6.8525                 0.0066

                     16                     17                     18
                      A                      A                      A
 Frequencies --    511.9478               527.2634               553.5105
 Red. masses --      4.9457                 8.5099                 3.9680
 Frc consts  --      0.7637                 1.3939                 0.7163
 IR Inten    --     18.6000                29.7324                 0.1214

                     19                     20                     21
                      A                      A                      A
 Frequencies --    578.8046               640.6439               697.2518
 Red. masses --      7.6221                 6.6839                 7.9317
 Frc consts  --      1.5045                 1.6163                 2.2719
 IR Inten    --     22.0675                48.7640                12.7764

                     22                     23                     24
                      A                      A                      A
 Frequencies --    711.3902               719.4441               738.0074
 Red. masses --      1.7214                 8.2926                 1.9422
 Frc consts  --      0.5133                 2.5289                 0.6233
 IR Inten    --     44.4986                21.9390                27.7258

                     25                     26                     27
                      A                      A                      A
 Frequencies --    753.4684               770.9847               814.2597
 Red. masses --      1.9027                 2.0014                 6.3379
 Frc consts  --      0.6364                 0.7009                 2.4758
 IR Inten    --     27.9940                54.0849                12.3923

                     28                     29                     30
                      A                      A                      A
 Frequencies --    820.0123               861.0502               895.5624
 Red. masses --      1.6409                 1.4164                 6.4593
 Frc consts  --      0.6501                 0.6187                 3.0523
 IR Inten    --      0.3529                 0.8424                53.2908

                     31                     32                     33
                      A                      A                      A
 Frequencies --    916.0339               954.3297               964.0926
 Red. masses --      1.3523                 1.3422                 1.3637
 Frc consts  --      0.6686                 0.7202                 0.7468
 IR Inten    --      5.9445                 1.8186                 0.2022

                     34                     35                     36
                      A                      A                      A
 Frequencies --    965.8840              1000.1752              1038.4104
 Red. masses --      7.1663                 1.2979                 2.1826
 Frc consts  --      3.9391                 0.7650                 1.3866
 IR Inten    --      5.2293                 0.0405                 1.4224

                     37                     38                     39
                      A                      A                      A
 Frequencies --   1043.3604              1061.3260              1077.0073
 Red. masses --      2.1314                 1.0612                 4.4911
 Frc consts  --      1.3671                 0.7043                 3.0693
 IR Inten    --      0.8713                66.3027                55.4418

                     40                     41                     42
                      A                      A                      A
 Frequencies --   1132.7992              1147.9531              1174.9707
 Red. masses --      1.4770                 1.3238                 1.1366
 Frc consts  --      1.1167                 1.0278                 0.9245
 IR Inten    --     65.2833                14.1579                13.7722

                     43                     44                     45
                      A                      A                      A
 Frequencies --   1178.6441              1238.5393              1244.6362
 Red. masses --      1.1887                 4.3633                 1.8388
 Frc consts  --      0.9729                 3.9435                 1.6783
 IR Inten    --     39.6437                38.8435               164.0212

                     46                     47                     48
                      A                      A                      A
 Frequencies --   1282.9933              1306.9337              1366.3101
 Red. masses --      1.6857                 3.7867                 2.6564
 Frc consts  --      1.6348                 3.8108                 2.9218
 IR Inten    --      4.0209               305.7134                 5.6846

                     49                     50                     51
                      A                      A                      A
 Frequencies --   1375.5684              1402.7869              1443.1194
 Red. masses --      5.4675                 2.0579                 2.5815
 Frc consts  --      6.0954                 2.3859                 3.1675
 IR Inten    --     82.4293                 0.2264               156.8324

                     52                     53                     54
                      A                      A                      A
 Frequencies --   1475.7984              1501.7694              1530.0560
 Red. masses --      3.6388                 3.9689                 3.9866
 Frc consts  --      4.6695                 5.2738                 5.4987
 IR Inten    --     75.4700                42.8723               190.9173

                     55                     56                     57
                      A                      A                      A
 Frequencies --   1535.2349              1561.1080              1598.2690
 Red. masses --      4.2191                 5.9525                 4.1650
 Frc consts  --      5.8589                 8.5470                 6.2685
 IR Inten    --     70.4749               562.4098               113.1980

                     58                     59                     60
                      A                      A                      A
 Frequencies --   1617.2750              1638.8639              1655.9326
 Red. masses --      5.2690                 2.3934                 2.9684
 Frc consts  --      8.1198                 3.7875                 4.7957
 IR Inten    --    460.3830               592.3345                18.5819

                     61                     62                     63
                      A                      A                      A
 Frequencies --   2410.6695              3207.1206              3207.6599
 Red. masses --      1.0981                 1.0869                 1.0864
 Frc consts  --      3.7600                 6.5866                 6.5857
 IR Inten    --    255.3575                 7.5723                 8.3519

                     64                     65                     66
                      A                      A                      A
 Frequencies --   3218.9210              3219.0513              3227.2071
 Red. masses --      1.0886                 1.0899                 1.0939
 Frc consts  --      6.6456                 6.6542                 6.7126
 IR Inten    --      1.6914                 3.2231                16.2822

                     67                     68                     69
                      A                      A                      A
 Frequencies --   3231.0083              3236.9134              3239.0943
 Red. masses --      1.0953                 1.0990                 1.0987
 Frc consts  --      6.7369                 6.7844                 6.7916
 IR Inten    --     11.1630                41.2738                21.3468

 - Thermochemistry -
 -------------------
 Temperature   298.150 Kelvin.  Pressure   1.00000 Atm.
 Atom     1 has atomic number  6 and mass  12.00000

 Molecular mass:   227.04049 amu.
 Principal axes and moments of inertia in atomic units:
                           1         2         3
     Eigenvalues --  1326.810876330.299847657.11071
           X           -0.70058   0.71358   0.00000
           Y            0.71358   0.70058  -0.00001
           Z            0.00001   0.00000   1.00000
 This molecule is an asymmetric top.
 Rotational symmetry number  1.
 Warning -- assumption of classical behavior for rotation
           may cause significant error
 Rotational temperatures (Kelvin)      0.06528     0.01368     0.01131
 Rotational constants (GHZ):           1.36021     0.28510     0.23569
 Zero-point vibrational energy     487518.9 (Joules/Mol)
                                  116.51981 (Kcal/Mol)
 Warning -- explicit consideration of  19 degrees of freedom as
           vibrations may cause significant error
 Vibrational temperatures:     61.86    79.96   157.45   161.52   257.52
          (Kelvin)            320.91   386.61   389.06   440.77   557.82
                              576.64   630.83   703.79   719.15   721.77
                              736.58   758.61   796.38   832.77   921.74
                             1003.19  1023.53  1035.12  1061.83  1084.07
                             1109.28  1171.54  1179.81  1238.86  1288.51
                             1317.97  1373.07  1387.11  1389.69  1439.03
                             1494.04  1501.16  1527.01  1549.57  1629.85
                             1651.65  1690.52  1695.81  1781.98  1790.75
                             1845.94  1880.39  1965.82  1979.14  2018.30
                             2076.33  2123.34  2160.71  2201.41  2208.86
                             2246.09  2299.55  2326.90  2357.96  2382.52
                             3468.42  4614.33  4615.11  4631.31  4631.50
                             4643.23  4648.70  4657.20  4660.33

 Zero-point correction=                           0.185686 (Hartree/Particle)
 Thermal correction to Energy=                    0.197973
 Thermal correction to Enthalpy=                  0.198917
 Thermal correction to Gibbs Free Energy=         0.146243
 Sum of electronic and zero-point Energies=          -1028.507012
 Sum of electronic and thermal Energies=             -1028.494725
 Sum of electronic and thermal Enthalpies=           -1028.493781
 Sum of electronic and thermal Free Energies=        -1028.546455

                     E (Thermal)             CV                S
                      KCal/Mol        Cal/Mol-Kelvin    Cal/Mol-Kelvin
 Total                  124.230             49.187            110.863
 Electronic               0.000              0.000              0.000
 Translational            0.889              2.981             42.162
 Rotational               0.889              2.981             32.531
 Vibrational            122.453             43.225             36.170
 Vibration     1          0.595              1.980              5.116
 Vibration     2          0.596              1.975              4.608
 Vibration     3          0.606              1.942              3.279
 Vibration     4          0.607              1.939              3.229
 Vibration     5          0.629              1.868              2.339
 Vibration     6          0.649              1.806              1.934
 Vibration     7          0.673              1.731              1.604
 Vibration     8          0.674              1.728              1.594
 Vibration     9          0.697              1.662              1.382
 Vibration    10          0.756              1.496              1.009
 Vibration    11          0.767              1.468              0.960
 Vibration    12          0.799              1.386              0.831
 Vibration    13          0.845              1.274              0.686
 Vibration    14          0.855              1.250              0.659
 Vibration    15          0.857              1.246              0.654
 Vibration    16          0.867              1.224              0.629
 Vibration    17          0.882              1.190              0.593
 Vibration    18          0.909              1.132              0.537
 Vibration    19          0.935              1.077              0.488

 Optimization completed.
    -- Stationary point found.
 Normal termination of Gaussian 16 at Mon Jul 13 15:03:45 2020.
