 Gaussian 16, Revision C.01,
 Gaussian 16:  ES64L-G16RevC.01  3-Jul-2019

 ----------------------------------------------------------------------
 #p opt=addgic freq td wb97xd/cc-pvdz nosymm int=ultrafine scrf=(solven
 t=CarbonTetraChloride)
 ----------------------------------------------------------------------

 ------------------------------------------------
 NM 2D-scan of HBT TD-WB97XD pVDZ in CTC Relaxed.
 ------------------------------------------------
 Symbolic Z-matrix:
 Charge =  0 Multiplicity = 1

 SCF Done:  E(RwB97XD) =  -1028.78748490     A.U. after   16 cycles
 Total Energy, E(TD-HF/TD-DFT) =  -1028.67980569
 SCF Done:  E(RwB97XD) =  -1028.79062040     A.U. after   14 cycles
 Total Energy, E(TD-HF/TD-DFT) =  -1028.68896261
 SCF Done:  E(RwB97XD) =  -1028.80013320     A.U. after   13 cycles
 Total Energy, E(TD-HF/TD-DFT) =  -1028.69324055
 SCF Done:  E(RwB97XD) =  -1028.79961055     A.U. after   12 cycles
 Total Energy, E(TD-HF/TD-DFT) =  -1028.69365069
 SCF Done:  E(RwB97XD) =  -1028.79951144     A.U. after   10 cycles
 Total Energy, E(TD-HF/TD-DFT) =  -1028.69365995
 Optimization completed.
    -- Stationary point found.
 Normal termination of Gaussian 16 at Mon Jul 13 16:44:24 2020.

 ----------------------------------------------------------------------
 #P Geom=AllCheck Guess=TCheck SCRF=Check GenChk RwB97XD TD(FC,Read)/CC
 -pVDZ Freq
 ----------------------------------------------------------------------

 Structure from the checkpoint file:  "config_10_1.chk"
 ------------------------------------------------
 NM 2D-scan of HBT TD-WB97XD pVDZ in CTC Relaxed.
 ------------------------------------------------
 Charge =  0 Multiplicity = 1

                          Input orientation:
 ---------------------------------------------------------------------
 Center     Atomic      Atomic             Coordinates (Angstroms)
 Number     Number       Type             X           Y           Z
 ---------------------------------------------------------------------
      1          6           0        1.777983   -3.282979   -0.000026
      2          6           0        1.020087   -2.112926   -0.000014
      3          6           0        1.674641   -0.869718   -0.000011
      4          6           0        3.071591   -0.755477   -0.000015
      5          6           0        3.811399   -1.926213   -0.000027
      6          6           0        3.173544   -3.175506   -0.000034
      7          1           0        1.301407   -4.263725   -0.000030
      8          1           0        3.539740    0.229221   -0.000011
      9          1           0        4.901277   -1.875684   -0.000032
     10          1           0        3.773885   -4.086042   -0.000043
     11          7           0        0.808939    0.162180   -0.000008
     12         16           0       -0.746122   -1.858363   -0.000001
     13          6           0       -1.438022    1.027135    0.000002
     14          6           0       -2.824276    0.931707   -0.000016
     15          6           0       -0.844422    2.406787    0.000035
     16          6           0       -3.665636    2.080981    0.000014
     17          1           0       -3.295412   -0.054275   -0.000047
     18          6           0       -1.743944    3.517366    0.000065
     19          6           0       -3.130911    3.366918    0.000061
     20          1           0       -4.746859    1.934639    0.000006
     21          1           0       -1.272584    4.501640    0.000092
     22          1           0       -3.784150    4.240286    0.000087
     23          6           0       -0.522445   -0.095703   -0.000006
     24          8           0        0.400502    2.612899    0.000026
     25          1           0        1.072829    1.162818    0.000004
 ---------------------------------------------------------------------

 SCF Done:  E(RwB97XD) =  -1028.79951144     A.U. after    1 cycles

 Excitation energies and oscillator strengths:

 Excited state symmetry could not be determined.
 Excited State   1:      Singlet-?Sym    2.8804 eV  430.45 nm  f=0.4315  <S**2>=0.000
      59 -> 60         0.69570
 This state for optimization and/or second-order correction.
 Total Energy, E(TD-HF/TD-DFT) =  -1028.69365991
 Copying the excited state density for this state as the 1-particle RhoCI density.

 Excited state symmetry could not be determined.
 Excited State   2:      Singlet-?Sym    3.7211 eV  333.19 nm  f=0.0000  <S**2>=0.000
      57 -> 60         0.68369
      57 -> 62         0.11776
      57 -> 64         0.11552

 Excited state symmetry could not be determined.
 Excited State   3:      Singlet-?Sym    4.3422 eV  285.54 nm  f=0.4754  <S**2>=0.000
      58 -> 60         0.67981

 Alpha  occ. eigenvalues --  -89.10878 -19.21440 -14.51540 -10.42378 -10.37050
 Alpha  occ. eigenvalues --  -10.36400 -10.36177 -10.33591 -10.32896 -10.32619
 Alpha  occ. eigenvalues --  -10.32460 -10.31686 -10.31518 -10.30653 -10.29160
 Alpha  occ. eigenvalues --  -10.28285  -8.12747  -6.07640  -6.07259  -6.06761
 Alpha  occ. eigenvalues --   -1.13286  -1.09854  -0.98338  -0.94841  -0.93099
 Alpha  occ. eigenvalues --   -0.89220  -0.86368  -0.84133  -0.80995  -0.76114
 Alpha  occ. eigenvalues --   -0.73238  -0.71599  -0.69096  -0.67555  -0.64824
 Alpha  occ. eigenvalues --   -0.60899  -0.59743  -0.56726  -0.55941  -0.55583
 Alpha  occ. eigenvalues --   -0.54907  -0.53573  -0.53004  -0.50991  -0.49174
 Alpha  occ. eigenvalues --   -0.48799  -0.48172  -0.46884  -0.45484  -0.44820
 Alpha  occ. eigenvalues --   -0.44431  -0.42870  -0.41969  -0.40339  -0.36845
 Alpha  occ. eigenvalues --   -0.33687  -0.31994  -0.31457  -0.25888
 Alpha virt. eigenvalues --   -0.02132   0.03690   0.06090   0.06218   0.09216
 Alpha virt. eigenvalues --    0.10539   0.11472   0.14589   0.16030   0.17297
 Alpha virt. eigenvalues --    0.18994   0.20104   0.21080   0.21400   0.22872

 Mulliken charges:
               1
     1  C    0.010075
     2  C   -0.251121
     3  C    0.264313
     4  C   -0.011051
     5  C    0.015533
     6  C   -0.001306
     7  H    0.027372
     8  H    0.034314
     9  H    0.028055
    10  H    0.027136
    11  N   -0.111905
    12  S    0.196761
    13  C   -0.127455
    14  C   -0.018436
    15  C    0.121524
    16  C   -0.039448
    17  H    0.000506
    18  C   -0.024257
    19  C    0.034155
    20  H    0.002686
    21  H    0.001327
    22  H    0.013920
    23  C    0.066528
    24  O   -0.400676
    25  H    0.141449
 Sum of Mulliken charges =  -0.00000

 Dipole moment (field-independent basis, Debye):
    X=              1.8418    Y=             -5.3861    Z=             -0.0000  Tot=              5.6923
 Quadrupole moment (field-independent basis, Debye-Ang):
   XX=            -82.6493   YY=            -94.5336   ZZ=           -104.3080
   XY=             -6.6741   XZ=             -0.0001   YZ=              0.0002

  Exact polarizability:     349.993    -123.442     300.743      -0.002       0.003      63.403
 Approx polarizability:     275.744     -38.135     267.670      -0.001       0.002      82.220

 ******    1 imaginary frequencies (negative Signs) ******

                      1                      2                      3
                      A                      A                      A
 Frequencies --    -92.6140                40.5414               102.1447
 Red. masses --      7.8571                 6.4244                 4.5480
 Frc consts  --      0.0397                 0.0062                 0.0280
 IR Inten    --      1.3977                 1.8565                 0.0328

                      4                      5                      6
                      A                      A                      A
 Frequencies --    117.5226               172.0692               224.5819
 Red. masses --      5.7488                 5.1498                 5.3301
 Frc consts  --      0.0468                 0.0898                 0.1584
 IR Inten    --      7.2238                 0.1204                 0.2624

                      7                      8                      9
                      A                      A                      A
 Frequencies --    265.4762               268.8911               331.5359
 Red. masses --      7.6280                 4.6539                 7.0295
 Frc consts  --      0.3167                 0.1983                 0.4552
 IR Inten    --      0.4416                 0.8122                 5.5303

                     10                     11                     12
                      A                      A                      A
 Frequencies --    353.8424               384.0355               431.9917
 Red. masses --      4.9806                 9.5240                 3.3146
 Frc consts  --      0.3674                 0.8276                 0.3644
 IR Inten    --      1.0391                 4.3653                 4.8953

                     13                     14                     15
                      A                      A                      A
 Frequencies --    453.0130               501.3104               505.3853
 Red. masses --      4.6808                 8.5406                 3.1651
 Frc consts  --      0.5660                 1.2646                 0.4763
 IR Inten    --      2.1308                 7.1672                 0.6081

                     16                     17                     18
                      A                      A                      A
 Frequencies --    538.4054               554.7357               568.2873
 Red. masses --      8.8661                 3.8061                 6.9012
 Frc consts  --      1.5143                 0.6901                 1.3131
 IR Inten    --      7.7335                 1.0328                 3.9914

                     19                     20                     21
                      A                      A                      A
 Frequencies --    573.8929               641.5795               688.3612
 Red. masses --      7.6221                 6.2054                 1.5993
 Frc consts  --      1.4791                 1.5050                 0.4465
 IR Inten    --     39.7731                74.3042                35.6405

                     22                     23                     24
                      A                      A                      A
 Frequencies --    694.2525               721.0929               740.7559
 Red. masses --      6.6836                 8.0677                 2.3931
 Frc consts  --      1.8980                 2.4716                 0.7737
 IR Inten    --      0.2852                 6.5321                15.8052

                     25                     26                     27
                      A                      A                      A
 Frequencies --    763.0808               765.4841               804.0531
 Red. masses --      1.7082                 1.7871                 6.5514
 Frc consts  --      0.5860                 0.6170                 2.4955
 IR Inten    --      2.6980                77.8091                17.5137

                     28                     29                     30
                      A                      A                      A
 Frequencies --    844.1727               859.2722               893.2187
 Red. masses --      1.6674                 1.3793                 5.1853
 Frc consts  --      0.7001                 0.6000                 2.4374
 IR Inten    --      0.0067                 0.2503                 4.9413

                     31                     32                     33
                      A                      A                      A
 Frequencies --    904.8120               911.2282               953.5809
 Red. masses --      1.1317                 1.3808                 5.5557
 Frc consts  --      0.5459                 0.6755                 2.9765
 IR Inten    --     47.1078                32.2557                 1.8928

                     34                     35                     36
                      A                      A                      A
 Frequencies --    954.3060               954.6182              1002.1093
 Red. masses --      1.3556                 1.3556                 1.2951
 Frc consts  --      0.7274                 0.7279                 0.7662
 IR Inten    --      0.0018                 4.1099                 0.0312

                     37                     38                     39
                      A                      A                      A
 Frequencies --   1042.8951              1049.3511              1073.9921
 Red. masses --      2.2863                 2.2162                 4.0003
 Frc consts  --      1.4651                 1.4378                 2.7186
 IR Inten    --      0.3493                 9.9672                 1.4357

                     40                     41                     42
                      A                      A                      A
 Frequencies --   1110.1424              1148.6320              1159.4578
 Red. masses --      1.5807                 1.3086                 1.1881
 Frc consts  --      1.1478                 1.0173                 0.9410
 IR Inten    --     40.3073                 4.3924                75.2816

                     43                     44                     45
                      A                      A                      A
 Frequencies --   1177.9633              1221.7984              1249.3564
 Red. masses --      1.1361                 2.7465                 2.1287
 Frc consts  --      0.9288                 2.4156                 1.9577
 IR Inten    --     21.8227                77.0989                17.3005

                     46                     47                     48
                      A                      A                      A
 Frequencies --   1289.1928              1324.2406              1331.1316
 Red. masses --      1.5999                 2.2072                 2.5714
 Frc consts  --      1.5667                 2.2805                 2.6845
 IR Inten    --     23.4833               122.2538               150.7362

                     49                     50                     51
                      A                      A                      A
 Frequencies --   1370.9271              1390.9544              1399.1710
 Red. masses --      3.5147                 2.4071                 3.1635
 Frc consts  --      3.8920                 2.7439                 3.6488
 IR Inten    --     78.2034                43.8590                22.0952

                     52                     53                     54
                      A                      A                      A
 Frequencies --   1440.8484              1479.5395              1511.6834
 Red. masses --      3.3692                 2.5985                 2.9040
 Frc consts  --      4.1211                 3.3514                 3.9100
 IR Inten    --    331.4811                 5.6517                13.2844

                     55                     56                     57
                      A                      A                      A
 Frequencies --   1533.0760              1577.2246              1594.4949
 Red. masses --      4.1035                 5.5696                 4.4633
 Frc consts  --      5.6824                 8.1632                 6.6859
 IR Inten    --     61.5393               206.1020                40.5714

                     58                     59                     60
                      A                      A                      A
 Frequencies --   1626.8516              1655.1379              1676.2585
 Red. masses --      6.3859                 6.3344                 6.3231
 Frc consts  --      9.9580                10.2240                10.4679
 IR Inten    --    200.4855                 5.6538               249.2230

                     61                     62                     63
                      A                      A                      A
 Frequencies --   3191.0478              3197.2091              3211.0192
 Red. masses --      1.0891                 1.0902                 1.0865
 Frc consts  --      6.5341                 6.5660                 6.6003
 IR Inten    --    190.3643              1022.4926                 9.9034

                     64                     65                     66
                      A                      A                      A
 Frequencies --   3212.7010              3221.5405              3222.3336
 Red. masses --      1.0860                 1.0902                 1.0919
 Frc consts  --      6.6042                 6.6661                 6.6799
 IR Inten    --      3.3482                 4.7380                16.7789

                     67                     68                     69
                      A                      A                      A
 Frequencies --   3230.6101              3234.1276              3238.7604
 Red. masses --      1.0959                 1.0992                 1.0996
 Frc consts  --      6.7392                 6.7740                 6.7961
 IR Inten    --      9.5154                13.2632                10.4015

 - Thermochemistry -
 -------------------
 Temperature   298.150 Kelvin.  Pressure   1.00000 Atm.
 Atom     1 has atomic number  6 and mass  12.00000

 Molecular mass:   227.04049 amu.
 Principal axes and moments of inertia in atomic units:
                           1         2         3
     Eigenvalues --  1332.722006414.509757747.23175
           X           -0.70151   0.71266   0.00000
           Y            0.71266   0.70151  -0.00001
           Z            0.00001   0.00001   1.00000
 This molecule is an asymmetric top.
 Rotational symmetry number  1.
 Warning -- assumption of classical behavior for rotation
           may cause significant error
 Rotational temperatures (Kelvin)      0.06499     0.01350     0.01118
 Rotational constants (GHZ):           1.35418     0.28135     0.23295
    1 imaginary frequencies ignored.
 Zero-point vibrational energy     489735.1 (Joules/Mol)
                                  117.04949 (Kcal/Mol)
 Warning -- explicit consideration of  18 degrees of freedom as
           vibrations may cause significant error
 Vibrational temperatures:     58.33   146.96   169.09   247.57   323.12
          (Kelvin)            381.96   386.87   477.01   509.10   552.54
                              621.54   651.78   721.27   727.14   774.65
                              798.14   817.64   825.70   923.09   990.40
                              998.87  1037.49  1065.78  1097.90  1101.36
                             1156.85  1214.58  1236.30  1285.14  1301.82
                             1311.05  1371.99  1373.03  1373.48  1441.81
                             1500.49  1509.78  1545.24  1597.25  1652.63
                             1668.20  1694.83  1757.90  1797.55  1854.86
                             1905.29  1915.20  1972.46  2001.27  2013.10
                             2073.06  2128.73  2174.98  2205.75  2269.27
                             2294.12  2340.68  2381.37  2411.76  4591.21
                             4600.07  4619.94  4622.36  4635.08  4636.22
                             4648.13  4653.19  4659.85

 Zero-point correction=                           0.186530 (Hartree/Particle)
 Thermal correction to Energy=                    0.198068
 Thermal correction to Enthalpy=                  0.199012
 Thermal correction to Gibbs Free Energy=         0.148323
 Sum of electronic and zero-point Energies=          -1028.507130
 Sum of electronic and thermal Energies=             -1028.495592
 Sum of electronic and thermal Enthalpies=           -1028.494648
 Sum of electronic and thermal Free Energies=        -1028.545337

                     E (Thermal)             CV                S
                      KCal/Mol        Cal/Mol-Kelvin    Cal/Mol-Kelvin
 Total                  124.290             47.518            106.685
 Electronic               0.000              0.000              0.000
 Translational            0.889              2.981             42.162
 Rotational               0.889              2.981             32.560
 Vibrational            122.512             41.556             31.963
 Vibration     1          0.594              1.981              5.232
 Vibration     2          0.604              1.947              3.413
 Vibration     3          0.608              1.935              3.141
 Vibration     4          0.626              1.877              2.413
 Vibration     5          0.649              1.804              1.922
 Vibration     6          0.671              1.736              1.625
 Vibration     7          0.673              1.730              1.603
 Vibration     8          0.714              1.613              1.253
 Vibration     9          0.730              1.567              1.149
 Vibration    10          0.753              1.504              1.023
 Vibration    11          0.793              1.401              0.852
 Vibration    12          0.812              1.354              0.787
 Vibration    13          0.857              1.247              0.655
 Vibration    14          0.861              1.238              0.645
 Vibration    15          0.893              1.165              0.569
 Vibration    16          0.910              1.129              0.534
 Vibration    17          0.924              1.100              0.508
 Vibration    18          0.930              1.088              0.497

 Optimization completed.
    -- Stationary point found.
 Normal termination of Gaussian 16 at Mon Jul 13 17:02:09 2020.
