 Gaussian 16, Revision C.01,
 Gaussian 16:  ES64L-G16RevC.01  3-Jul-2019

 ----------------------------------------------------------------------
 #p opt=addgic freq td wb97xd/cc-pvdz nosymm int=ultrafine scrf=(solven
 t=CarbonTetraChloride)
 ----------------------------------------------------------------------

 ------------------------------------------------
 NM 2D-scan of HBT TD-WB97XD pVDZ in CTC Relaxed.
 ------------------------------------------------
 Symbolic Z-matrix:
 Charge =  0 Multiplicity = 1

 SCF Done:  E(RwB97XD) =  -1028.81822775     A.U. after   15 cycles
 Total Energy, E(TD-HF/TD-DFT) =  -1028.68859664
 SCF Done:  E(RwB97XD) =  -1028.82089839     A.U. after   12 cycles
 Total Energy, E(TD-HF/TD-DFT) =  -1028.69256716
 SCF Done:  E(RwB97XD) =  -1028.81976635     A.U. after   12 cycles
 Total Energy, E(TD-HF/TD-DFT) =  -1028.69289489
 SCF Done:  E(RwB97XD) =  -1028.82011330     A.U. after   11 cycles
 Total Energy, E(TD-HF/TD-DFT) =  -1028.69303700
 SCF Done:  E(RwB97XD) =  -1028.82030543     A.U. after   10 cycles
 Total Energy, E(TD-HF/TD-DFT) =  -1028.69310355
 Optimization completed.
    -- Stationary point found.
 Normal termination of Gaussian 16 at Mon Jul 13 14:01:36 2020.

 ----------------------------------------------------------------------
 #P Geom=AllCheck Guess=TCheck SCRF=Check GenChk RwB97XD TD(FC,Read)/CC
 -pVDZ Freq
 ----------------------------------------------------------------------

 Structure from the checkpoint file:  "config_4_10.chk"
 ------------------------------------------------
 NM 2D-scan of HBT TD-WB97XD pVDZ in CTC Relaxed.
 ------------------------------------------------
 Charge =  0 Multiplicity = 1

                          Input orientation:
 ---------------------------------------------------------------------
 Center     Atomic      Atomic             Coordinates (Angstroms)
 Number     Number       Type             X           Y           Z
 ---------------------------------------------------------------------
      1          6           0        1.634495   -3.275841   -0.000035
      2          6           0        0.988125   -2.043084   -0.000025
      3          6           0        1.718807   -0.812258   -0.000006
      4          6           0        3.135641   -0.860217    0.000003
      5          6           0        3.763971   -2.091274   -0.000007
      6          6           0        3.028334   -3.294008   -0.000026
      7          1           0        1.064164   -4.205481   -0.000049
      8          1           0        3.701781    0.071790    0.000018
      9          1           0        4.854672   -2.135300   -0.000000
     10          1           0        3.554363   -4.249657   -0.000034
     11          7           0        0.962739    0.298267   -0.000001
     12         16           0       -0.732752   -1.718871   -0.000031
     13          6           0       -1.349142    1.040166    0.000001
     14          6           0       -2.746358    0.807616    0.000009
     15          6           0       -0.901283    2.446528    0.000017
     16          6           0       -3.645809    1.867467    0.000039
     17          1           0       -3.117181   -0.218682   -0.000003
     18          6           0       -1.841804    3.490587    0.000050
     19          6           0       -3.204114    3.209981    0.000062
     20          1           0       -4.716419    1.656510    0.000047
     21          1           0       -1.462226    4.512783    0.000063
     22          1           0       -3.930606    4.022996    0.000086
     23          6           0       -0.370979    0.023353   -0.000014
     24          8           0        0.375753    2.727779   -0.000005
     25          1           0        0.895717    1.820662   -0.000055
 ---------------------------------------------------------------------

 SCF Done:  E(RwB97XD) =  -1028.82030543     A.U. after    1 cycles

 Excitation energies and oscillator strengths:

 Excited state symmetry could not be determined.
 Excited State   1:      Singlet-?Sym    3.4613 eV  358.20 nm  f=0.6465  <S**2>=0.000
      59 -> 60         0.68977
 This state for optimization and/or second-order correction.
 Total Energy, E(TD-HF/TD-DFT) =  -1028.69310361
 Copying the excited state density for this state as the 1-particle RhoCI density.

 Excited state symmetry could not be determined.
 Excited State   2:      Singlet-?Sym    4.3908 eV  282.38 nm  f=0.2482  <S**2>=0.000
      57 -> 60         0.22232
      58 -> 60         0.62715
      59 -> 62         0.11893
      59 -> 63         0.10826

 Excited state symmetry could not be determined.
 Excited State   3:      Singlet-?Sym    4.6277 eV  267.92 nm  f=0.0619  <S**2>=0.000
      57 -> 60         0.57592
      57 -> 62        -0.14114
      58 -> 60        -0.21698
      58 -> 61        -0.13873
      59 -> 61         0.22841

 Alpha  occ. eigenvalues --  -89.09121 -19.27709 -14.47364 -10.39930 -10.37979
 Alpha  occ. eigenvalues --  -10.35230 -10.34853 -10.32389 -10.32254 -10.32249
 Alpha  occ. eigenvalues --  -10.31921 -10.31572 -10.31477 -10.31395 -10.30378
 Alpha  occ. eigenvalues --  -10.30236  -8.11086  -6.05935  -6.05593  -6.05144
 Alpha  occ. eigenvalues --   -1.16608  -1.08504  -0.96760  -0.95699  -0.91942
 Alpha  occ. eigenvalues --   -0.88829  -0.85010  -0.84367  -0.82394  -0.75943
 Alpha  occ. eigenvalues --   -0.71110  -0.70259  -0.69121  -0.68217  -0.63494
 Alpha  occ. eigenvalues --   -0.60501  -0.58901  -0.58612  -0.55828  -0.54408
 Alpha  occ. eigenvalues --   -0.53940  -0.53076  -0.53033  -0.50890  -0.50295
 Alpha  occ. eigenvalues --   -0.49483  -0.47530  -0.45972  -0.45596  -0.44783
 Alpha  occ. eigenvalues --   -0.43966  -0.42814  -0.42431  -0.40122  -0.37014
 Alpha  occ. eigenvalues --   -0.36476  -0.32213  -0.31375  -0.28005
 Alpha virt. eigenvalues --   -0.01772   0.05033   0.06937   0.07285   0.07437
 Alpha virt. eigenvalues --    0.11026   0.13967   0.15138   0.16322   0.18011
 Alpha virt. eigenvalues --    0.18611   0.21056   0.21672   0.22385   0.22625

 Mulliken charges:
               1
     1  C    0.015553
     2  C   -0.225366
     3  C    0.238826
     4  C   -0.017469
     5  C    0.007678
     6  C   -0.005509
     7  H    0.018305
     8  H    0.018449
     9  H    0.019481
    10  H    0.020850
    11  N   -0.359604
    12  S    0.161822
    13  C   -0.090633
    14  C   -0.020987
    15  C    0.095228
    16  C   -0.015510
    17  H    0.014545
    18  C    0.003518
    19  C    0.023698
    20  H    0.010532
    21  H    0.017640
    22  H    0.022371
    23  C    0.083703
    24  O   -0.226020
    25  H    0.188898
 Sum of Mulliken charges =  -0.00000

 Dipole moment (field-independent basis, Debye):
    X=             -0.3223    Y=             -2.3280    Z=             -0.0000  Tot=              2.3502
 Quadrupole moment (field-independent basis, Debye-Ang):
   XX=            -83.2417   YY=            -89.6280   ZZ=           -104.3488
   XY=             -7.0267   XZ=             -0.0002   YZ=              0.0002

  Exact polarizability:     393.970    -181.989     370.416      -0.002       0.004      63.375
 Approx polarizability:     277.560     -35.935     260.433      -0.001       0.002      82.379

                      1                      2                      3
                      A                      A                      A
 Frequencies --     44.3811                57.1012               109.3631
 Red. masses --      5.8276                 6.3815                 4.8680
 Frc consts  --      0.0068                 0.0123                 0.0343
 IR Inten    --      1.4923                 0.0440                 0.1395

                      4                      5                      6
                      A                      A                      A
 Frequencies --    109.7415               178.3577               223.1549
 Red. masses --      5.5528                 6.3392                 5.3610
 Frc consts  --      0.0394                 0.1188                 0.1573
 IR Inten    --      1.3451                 1.0897                 0.0065

                      7                      8                      9
                      A                      A                      A
 Frequencies --    269.9964               271.4349               304.4576
 Red. masses --      7.6063                 4.8171                 6.3435
 Frc consts  --      0.3267                 0.2091                 0.3464
 IR Inten    --     26.2247                 0.0881                 6.3709

                     10                     11                     12
                      A                      A                      A
 Frequencies --    386.5342               403.7778               438.4693
 Red. masses --      4.6657                 9.3494                 3.2510
 Frc consts  --      0.4107                 0.8981                 0.3683
 IR Inten    --      0.1300                11.7294                 4.3045

                     13                     14                     15
                      A                      A                      A
 Frequencies --    488.0143               500.8090               502.2064
 Red. masses --      4.6391                 7.3532                 3.1643
 Frc consts  --      0.6509                 1.0866                 0.4702
 IR Inten    --      0.0999                 5.2288                 0.0171

                     16                     17                     18
                      A                      A                      A
 Frequencies --    511.3006               527.9729               554.4950
 Red. masses --      4.9099                 8.3692                 3.9614
 Frc consts  --      0.7563                 1.3745                 0.7176
 IR Inten    --     15.6034                35.8223                 0.1260

                     19                     20                     21
                      A                      A                      A
 Frequencies --    578.0224               640.6089               704.1328
 Red. masses --      7.6224                 6.6640                 7.5890
 Frc consts  --      1.5005                 1.6113                 2.2169
 IR Inten    --     18.7590                44.1329                 9.9274

                     22                     23                     24
                      A                      A                      A
 Frequencies --    711.5649               722.8461               738.6118
 Red. masses --      1.6979                 8.7617                 1.9129
 Frc consts  --      0.5065                 2.6973                 0.6149
 IR Inten    --     45.7277                26.6270                29.6866

                     25                     26                     27
                      A                      A                      A
 Frequencies --    752.6880               770.4067               817.4640
 Red. masses --      1.8982                 2.0366                 1.6661
 Frc consts  --      0.6336                 0.7122                 0.6560
 IR Inten    --     26.3835                53.2282                 0.4648

                     28                     29                     30
                      A                      A                      A
 Frequencies --    818.0122               860.9585               895.1253
 Red. masses --      6.3056                 1.4170                 6.4568
 Frc consts  --      2.4860                 0.6189                 3.0482
 IR Inten    --     11.7179                 0.8852                56.9417

                     31                     32                     33
                      A                      A                      A
 Frequencies --    914.5900               953.5089               964.1095
 Red. masses --      1.3527                 1.3436                 1.3650
 Frc consts  --      0.6666                 0.7197                 0.7475
 IR Inten    --      5.5188                 1.8321                 0.1542

                     34                     35                     36
                      A                      A                      A
 Frequencies --    969.1989               999.7539              1038.9225
 Red. masses --      7.2051                 1.2990                 2.1663
 Frc consts  --      3.9876                 0.7650                 1.3777
 IR Inten    --      4.8158                 0.0144                 1.4426

                     37                     38                     39
                      A                      A                      A
 Frequencies --   1043.6474              1078.8103              1082.2392
 Red. masses --      2.1119                 4.4033                 1.0590
 Frc consts  --      1.3553                 3.0194                 0.7308
 IR Inten    --      0.9296                60.8797                66.4533

                     40                     41                     42
                      A                      A                      A
 Frequencies --   1132.6047              1148.3406              1174.7537
 Red. masses --      1.4845                 1.3355                 1.1416
 Frc consts  --      1.1220                 1.0377                 0.9282
 IR Inten    --     65.6935                14.4255                14.9384

                     43                     44                     45
                      A                      A                      A
 Frequencies --   1178.8793              1239.5523              1246.8765
 Red. masses --      1.1948                 4.0492                 1.8793
 Frc consts  --      0.9783                 3.6656                 1.7214
 IR Inten    --     37.8579                41.0498               155.5671

                     46                     47                     48
                      A                      A                      A
 Frequencies --   1282.6142              1305.5723              1367.1649
 Red. masses --      1.7143                 3.9238                 2.5874
 Frc consts  --      1.6616                 3.9406                 2.8494
 IR Inten    --      2.7462               270.3749                 7.0022

                     49                     50                     51
                      A                      A                      A
 Frequencies --   1374.4799              1402.7432              1443.0321
 Red. masses --      5.3929                 2.1264                 2.5572
 Frc consts  --      6.0027                 2.4651                 3.1373
 IR Inten    --    109.5604                 1.2333               151.9466

                     52                     53                     54
                      A                      A                      A
 Frequencies --   1473.3037              1498.5461              1532.7528
 Red. masses --      3.7907                 3.6902                 4.3242
 Frc consts  --      4.8480                 4.8825                 5.9855
 IR Inten    --     54.1984                38.5530               196.6512

                     55                     56                     57
                      A                      A                      A
 Frequencies --   1538.6800              1566.0753              1598.0260
 Red. masses --      4.0209                 6.3123                 4.3703
 Frc consts  --      5.6088                 9.1215                 6.5754
 IR Inten    --     41.5749               534.6192                38.5165

                     58                     59                     60
                      A                      A                      A
 Frequencies --   1614.3423              1643.7610              1661.2224
 Red. masses --      5.5411                 3.7334                 1.8498
 Frc consts  --      8.5082                 5.9433                 3.0077
 IR Inten    --    587.2200               558.9681                80.1912

                     61                     62                     63
                      A                      A                      A
 Frequencies --   2292.0936              3207.9312              3208.5260
 Red. masses --      1.1099                 1.0863                 1.0867
 Frc consts  --      3.4357                 6.5864                 6.5916
 IR Inten    --    292.6687                11.0629                 5.4056

                     64                     65                     66
                      A                      A                      A
 Frequencies --   3219.4439              3220.0129              3228.0911
 Red. masses --      1.0899                 1.0888                 1.0939
 Frc consts  --      6.6557                 6.6514                 6.7164
 IR Inten    --      3.0728                 2.2025                16.3605

                     67                     68                     69
                      A                      A                      A
 Frequencies --   3231.3751              3237.1811              3239.8860
 Red. masses --      1.0953                 1.0990                 1.0985
 Frc consts  --      6.7382                 6.7852                 6.7938
 IR Inten    --     10.9205                39.8192                22.5659

 - Thermochemistry -
 -------------------
 Temperature   298.150 Kelvin.  Pressure   1.00000 Atm.
 Atom     1 has atomic number  6 and mass  12.00000

 Molecular mass:   227.04049 amu.
 Principal axes and moments of inertia in atomic units:
                           1         2         3
     Eigenvalues --  1316.040016326.221567642.26158
           X           -0.70154   0.71263   0.00000
           Y            0.71263   0.70154  -0.00001
           Z            0.00001   0.00001   1.00000
 This molecule is an asymmetric top.
 Rotational symmetry number  1.
 Warning -- assumption of classical behavior for rotation
           may cause significant error
 Rotational temperatures (Kelvin)      0.06581     0.01369     0.01133
 Rotational constants (GHZ):           1.37134     0.28528     0.23615
 Zero-point vibrational energy     487147.2 (Joules/Mol)
                                  116.43098 (Kcal/Mol)
 Warning -- explicit consideration of  19 degrees of freedom as
           vibrations may cause significant error
 Vibrational temperatures:     63.85    82.16   157.35   157.89   256.62
          (Kelvin)            321.07   388.46   390.53   438.05   556.14
                              580.95   630.86   702.14   720.55   722.56
                              735.65   759.64   797.79   831.65   921.69
                             1013.09  1023.78  1040.01  1062.70  1082.95
                             1108.44  1176.15  1176.94  1238.73  1287.89
                             1315.89  1371.89  1387.14  1394.46  1438.42
                             1494.78  1501.58  1552.17  1557.10  1629.57
                             1652.21  1690.21  1696.14  1783.44  1793.98
                             1845.40  1878.43  1967.05  1977.57  2018.23
                             2076.20  2119.76  2156.07  2205.29  2213.82
                             2253.23  2299.20  2322.68  2365.01  2390.13
                             3297.81  4615.50  4616.35  4632.06  4632.88
                             4644.50  4649.23  4657.58  4661.47

 Zero-point correction=                           0.185545 (Hartree/Particle)
 Thermal correction to Energy=                    0.197821
 Thermal correction to Enthalpy=                  0.198766
 Thermal correction to Gibbs Free Energy=         0.146142
 Sum of electronic and zero-point Energies=          -1028.507559
 Sum of electronic and thermal Energies=             -1028.495282
 Sum of electronic and thermal Enthalpies=           -1028.494338
 Sum of electronic and thermal Free Energies=        -1028.546961

                     E (Thermal)             CV                S
                      KCal/Mol        Cal/Mol-Kelvin    Cal/Mol-Kelvin
 Total                  124.135             49.139            110.755
 Electronic               0.000              0.000              0.000
 Translational            0.889              2.981             42.162
 Rotational               0.889              2.981             32.520
 Vibrational            122.357             43.177             36.073
 Vibration     1          0.595              1.980              5.053
 Vibration     2          0.596              1.975              4.555
 Vibration     3          0.606              1.942              3.280
 Vibration     4          0.606              1.941              3.273
 Vibration     5          0.629              1.869              2.346
 Vibration     6          0.649              1.806              1.933
 Vibration     7          0.674              1.728              1.596
 Vibration     8          0.675              1.726              1.587
 Vibration     9          0.695              1.665              1.392
 Vibration    10          0.755              1.499              1.013
 Vibration    11          0.769              1.462              0.949
 Vibration    12          0.799              1.386              0.831
 Vibration    13          0.844              1.277              0.689
 Vibration    14          0.856              1.248              0.656
 Vibration    15          0.858              1.245              0.653
 Vibration    16          0.866              1.225              0.630
 Vibration    17          0.883              1.188              0.592
 Vibration    18          0.910              1.130              0.535
 Vibration    19          0.935              1.079              0.489

                           ! Non-Optimized Parameters !
 Normal termination of Gaussian 16 at Mon Jul 13 14:19:16 2020.
