 Gaussian 16, Revision C.01,
 Gaussian 16:  ES64L-G16RevC.01  3-Jul-2019

 ----------------------------------------------------------------------
 #p opt=addgic freq td wb97xd/cc-pvdz nosymm int=ultrafine scrf=(solven
 t=CarbonTetraChloride)
 ----------------------------------------------------------------------

 ------------------------------------------------
 NM 2D-scan of HBT TD-WB97XD pVDZ in CTC Relaxed.
 ------------------------------------------------
 Symbolic Z-matrix:
 Charge =  0 Multiplicity = 1

 SCF Done:  E(RwB97XD) =  -1028.81274841     A.U. after   15 cycles
 Total Energy, E(TD-HF/TD-DFT) =  -1028.69124930
 SCF Done:  E(RwB97XD) =  -1028.81279655     A.U. after    9 cycles
 Total Energy, E(TD-HF/TD-DFT) =  -1028.69125671
 Optimization completed.
    -- Stationary point found.
 Normal termination of Gaussian 16 at Mon Jul 13 14:32:03 2020.

 ----------------------------------------------------------------------
 #P Geom=AllCheck Guess=TCheck SCRF=Check GenChk RwB97XD TD(FC,Read)/CC
 -pVDZ Freq
 ----------------------------------------------------------------------

 Structure from the checkpoint file:  "config_6_11.chk"
 ------------------------------------------------
 NM 2D-scan of HBT TD-WB97XD pVDZ in CTC Relaxed.
 ------------------------------------------------
 Charge =  0 Multiplicity = 1

                          Input orientation:
 ---------------------------------------------------------------------
 Center     Atomic      Atomic             Coordinates (Angstroms)
 Number     Number       Type             X           Y           Z
 ---------------------------------------------------------------------
      1          6           0        1.619258   -3.259751   -0.000024
      2          6           0        1.000264   -2.014210   -0.000022
      3          6           0        1.741125   -0.796314   -0.000020
      4          6           0        3.151022   -0.868224   -0.000022
      5          6           0        3.759282   -2.115390   -0.000024
      6          6           0        3.010689   -3.305454   -0.000025
      7          1           0        1.026366   -4.175160   -0.000024
      8          1           0        3.740193    0.049314   -0.000022
      9          1           0        4.849240   -2.173137   -0.000025
     10          1           0        3.520814   -4.269432   -0.000026
     11          7           0        0.965281    0.319100   -0.000020
     12         16           0       -0.719180   -1.689765   -0.000021
     13          6           0       -1.354140    1.042061    0.000012
     14          6           0       -2.735333    0.791213    0.000015
     15          6           0       -0.893530    2.443459    0.000036
     16          6           0       -3.648652    1.850437    0.000030
     17          1           0       -3.100016   -0.237394    0.000003
     18          6           0       -1.851261    3.483426    0.000044
     19          6           0       -3.214944    3.190456    0.000041
     20          1           0       -4.717275    1.629947    0.000029
     21          1           0       -1.482885    4.509864    0.000058
     22          1           0       -3.947385    3.997981    0.000050
     23          6           0       -0.364966    0.032021   -0.000014
     24          8           0        0.376899    2.682324    0.000049
     25          1           0        0.933130    1.622384    0.000021
 ---------------------------------------------------------------------

 SCF Done:  E(RwB97XD) =  -1028.81279655     A.U. after    1 cycles

 Excitation energies and oscillator strengths:

 Excited state symmetry could not be determined.
 Excited State   1:      Singlet-?Sym    3.3073 eV  374.88 nm  f=0.5183  <S**2>=0.000
      59 -> 60         0.69290
 This state for optimization and/or second-order correction.
 Total Energy, E(TD-HF/TD-DFT) =  -1028.69125670
 Copying the excited state density for this state as the 1-particle RhoCI density.

 Excited state symmetry could not be determined.
 Excited State   2:      Singlet-?Sym    4.3761 eV  283.32 nm  f=0.3283  <S**2>=0.000
      57 -> 60         0.13392
      58 -> 60         0.66264
      59 -> 64        -0.10022

 Excited state symmetry could not be determined.
 Excited State   3:      Singlet-?Sym    4.7287 eV  262.20 nm  f=0.0000  <S**2>=0.000
      56 -> 60         0.68910

 Alpha  occ. eigenvalues --  -89.09530 -19.25285 -14.48910 -10.40484 -10.37294
 Alpha  occ. eigenvalues --  -10.36137 -10.35275 -10.32577 -10.32077 -10.32014
 Alpha  occ. eigenvalues --  -10.31806 -10.31747 -10.31668 -10.31625 -10.29970
 Alpha  occ. eigenvalues --  -10.29686  -8.11550  -6.06400  -6.06051  -6.05599
 Alpha  occ. eigenvalues --   -1.14271  -1.09334  -0.97193  -0.95603  -0.92542
 Alpha  occ. eigenvalues --   -0.88912  -0.85611  -0.83879  -0.82300  -0.75873
 Alpha  occ. eigenvalues --   -0.71354  -0.70855  -0.68721  -0.67939  -0.63576
 Alpha  occ. eigenvalues --   -0.60820  -0.59216  -0.57997  -0.55526  -0.54548
 Alpha  occ. eigenvalues --   -0.54342  -0.53411  -0.52840  -0.50931  -0.49850
 Alpha  occ. eigenvalues --   -0.49700  -0.47082  -0.46319  -0.45604  -0.44958
 Alpha  occ. eigenvalues --   -0.44168  -0.42946  -0.42282  -0.40579  -0.36560
 Alpha  occ. eigenvalues --   -0.35523  -0.32623  -0.31243  -0.27600
 Alpha virt. eigenvalues --   -0.01759   0.04604   0.06598   0.07166   0.07923
 Alpha virt. eigenvalues --    0.10734   0.14222   0.14997   0.16470   0.17860
 Alpha virt. eigenvalues --    0.18727   0.20872   0.21546   0.22178   0.22585

 Mulliken charges:
               1
     1  C    0.018735
     2  C   -0.229344
     3  C    0.260188
     4  C   -0.016928
     5  C    0.008050
     6  C   -0.001577
     7  H    0.020503
     8  H    0.023590
     9  H    0.022265
    10  H    0.022720
    11  N   -0.321802
    12  S    0.178734
    13  C   -0.100839
    14  C   -0.024946
    15  C    0.121097
    16  C   -0.023437
    17  H    0.012828
    18  C   -0.010203
    19  C    0.027708
    20  H    0.007239
    21  H    0.012503
    22  H    0.020149
    23  C    0.076447
    24  O   -0.329254
    25  H    0.225574
 Sum of Mulliken charges =  -0.00000

 Dipole moment (field-independent basis, Debye):
    X=              0.2661    Y=             -3.4963    Z=             -0.0000  Tot=              3.5064
 Quadrupole moment (field-independent basis, Debye-Ang):
   XX=            -83.1234   YY=            -91.4001   ZZ=           -104.2524
   XY=             -6.9715   XZ=             -0.0001   YZ=              0.0000

  Exact polarizability:     366.074    -149.086     329.191      -0.002       0.003      63.265
 Approx polarizability:     274.413     -34.984     260.612      -0.001       0.002      82.284

 ******    1 imaginary frequencies (negative Signs) ******

                      1                      2                      3
                      A                      A                      A
 Frequencies --  -1169.5962                43.9712                57.8593
 Red. masses --      1.0756                 5.7964                 6.2575
 Frc consts  --      0.8669                 0.0066                 0.0123
 IR Inten    --   1362.1472                 1.2361                 0.3245

                      4                      5                      6
                      A                      A                      A
 Frequencies --    112.0380               140.3241               177.1050
 Red. masses --      5.2876                 5.6985                 6.1268
 Frc consts  --      0.0391                 0.0661                 0.1132
 IR Inten    --      0.0001                 4.0058                 0.7309

                      7                      8                      9
                      A                      A                      A
 Frequencies --    220.8203               271.6751               275.6545
 Red. masses --      5.3791                 4.7192                 7.4119
 Frc consts  --      0.1545                 0.2052                 0.3318
 IR Inten    --      0.0500                 0.0946                13.7026

                     10                     11                     12
                      A                      A                      A
 Frequencies --    372.4345               378.8464               413.9710
 Red. masses --      4.8553                 6.1954                11.5217
 Frc consts  --      0.3968                 0.5239                 1.1633
 IR Inten    --      0.2812                 3.1150                 4.8760

                     13                     14                     15
                      A                      A                      A
 Frequencies --    437.9576               475.0361               498.5857
 Red. masses --      3.2156                 4.8218                 3.1686
 Frc consts  --      0.3634                 0.6411                 0.4641
 IR Inten    --      4.5266                 0.1354                 0.3826

                     16                     17                     18
                      A                      A                      A
 Frequencies --    506.6287               541.6900               558.3128
 Red. masses --      8.8761                 8.3931                 3.8895
 Frc consts  --      1.3423                 1.4510                 0.7143
 IR Inten    --      1.4803                 7.5468                 0.2397

                     19                     20                     21
                      A                      A                      A
 Frequencies --    577.0222               611.2720               672.0501
 Red. masses --      7.6049                 7.1446                 6.8737
 Frc consts  --      1.4919                 1.5729                 1.8291
 IR Inten    --      3.4321                 7.0415               120.9075

                     22                     23                     24
                      A                      A                      A
 Frequencies --    698.6729               722.7519               741.8817
 Red. masses --      1.6082                 6.4300                 2.1557
 Frc consts  --      0.4625                 1.9790                 0.6991
 IR Inten    --     43.8434                20.3960                21.8447

                     25                     26                     27
                      A                      A                      A
 Frequencies --    749.3666               760.0890               767.4571
 Red. masses --      9.3348                 1.8917                 1.8401
 Frc consts  --      3.0885                 0.6439                 0.6386
 IR Inten    --     24.7190                19.6671                66.3985

                     28                     29                     30
                      A                      A                      A
 Frequencies --    816.4493               828.2081               863.8134
 Red. masses --      1.6998                 6.2606                 1.4009
 Frc consts  --      0.6676                 2.5301                 0.6159
 IR Inten    --      0.0026                 5.4536                 0.9894

                     31                     32                     33
                      A                      A                      A
 Frequencies --    906.1896               914.7708               953.8130
 Red. masses --      1.3713                 6.8103                 1.3482
 Frc consts  --      0.6635                 3.3577                 0.7227
 IR Inten    --      4.9237                23.5758                 1.8385

                     34                     35                     36
                      A                      A                      A
 Frequencies --    957.9369               991.3289              1000.5951
 Red. masses --      1.3821                 7.5563                 1.2964
 Frc consts  --      0.7472                 4.3752                 0.7647
 IR Inten    --      0.4008                10.0185                 0.0003

                     37                     38                     39
                      A                      A                      A
 Frequencies --   1040.3986              1049.6542              1089.6372
 Red. masses --      2.1105                 2.0528                 4.2060
 Frc consts  --      1.3459                 1.3326                 2.9423
 IR Inten    --      1.5301                 2.3245                65.6541

                     40                     41                     42
                      A                      A                      A
 Frequencies --   1131.6748              1152.3822              1170.9875
 Red. masses --      1.4539                 1.3569                 1.1583
 Frc consts  --      1.0971                 1.0617                 0.9358
 IR Inten    --     34.8052                20.0986                77.0132

                     43                     44                     45
                      A                      A                      A
 Frequencies --   1179.5090              1231.8870              1252.7030
 Red. masses --      1.1734                 1.0509                 1.8267
 Frc consts  --      0.9619                 0.9396                 1.6889
 IR Inten    --     28.5474                65.6090                98.9345

                     46                     47                     48
                      A                      A                      A
 Frequencies --   1265.9514              1298.1546              1355.3778
 Red. masses --      2.6462                 2.2753                 4.1389
 Frc consts  --      2.4987                 2.2592                 4.4797
 IR Inten    --     29.7452                13.0538                91.5885

                     49                     50                     51
                      A                      A                      A
 Frequencies --   1368.9006              1387.6451              1404.8878
 Red. masses --      5.6857                 2.5321                 2.5131
 Frc consts  --      6.2774                 2.8727                 2.9225
 IR Inten    --    335.4511                 7.6001                14.3807

                     52                     53                     54
                      A                      A                      A
 Frequencies --   1444.9670              1478.0497              1510.6680
 Red. masses --      3.0485                 3.2677                 3.9598
 Frc consts  --      3.7502                 4.2061                 5.3242
 IR Inten    --    343.5049                66.9139                26.5702

                     55                     56                     57
                      A                      A                      A
 Frequencies --   1520.9406              1545.4773              1568.6978
 Red. masses --      4.7385                 4.9515                 4.9193
 Frc consts  --      6.4583                 6.9680                 7.1323
 IR Inten    --    385.0781                71.6748               294.9752

                     58                     59                     60
                      A                      A                      A
 Frequencies --   1621.1268              1640.3869              1654.3102
 Red. masses --      6.0222                 6.1847                 6.3650
 Frc consts  --      9.3248                 9.8052                10.2631
 IR Inten    --    107.0412              1008.1616                91.8870

                     61                     62                     63
                      A                      A                      A
 Frequencies --   1835.1918              3208.6507              3209.0620
 Red. masses --      1.0944                 1.0870                 1.0862
 Frc consts  --      2.1716                 6.5939                 6.5905
 IR Inten    --    111.9468                16.6053                 5.4601

                     64                     65                     66
                      A                      A                      A
 Frequencies --   3219.8020              3220.0456              3228.2966
 Red. masses --      1.0901                 1.0885                 1.0935
 Frc consts  --      6.6588                 6.6499                 6.7143
 IR Inten    --      2.9380                 4.4956                15.8173

                     67                     68                     69
                      A                      A                      A
 Frequencies --   3231.2108              3237.6347              3240.4692
 Red. masses --      1.0952                 1.0992                 1.0983
 Frc consts  --      6.7370                 6.7888                 6.7951
 IR Inten    --     10.1664                27.4162                17.4181

 - Thermochemistry -
 -------------------
 Temperature   298.150 Kelvin.  Pressure   1.00000 Atm.
 Atom     1 has atomic number  6 and mass  12.00000

 Molecular mass:   227.04049 amu.
 Principal axes and moments of inertia in atomic units:
                           1         2         3
     Eigenvalues --  1296.295686304.900947601.19662
           X           -0.70462   0.70959   0.00000
           Y            0.70959   0.70462  -0.00001
           Z            0.00001   0.00001   1.00000
 This molecule is an asymmetric top.
 Rotational symmetry number  1.
 Warning -- assumption of classical behavior for rotation
           may cause significant error
 Rotational temperatures (Kelvin)      0.06682     0.01374     0.01139
 Rotational constants (GHZ):           1.39223     0.28624     0.23743
    1 imaginary frequencies ignored.
 Zero-point vibrational energy     478574.0 (Joules/Mol)
                                  114.38192 (Kcal/Mol)
 Warning -- explicit consideration of  19 degrees of freedom as
           vibrations may cause significant error
 Vibrational temperatures:     63.26    83.25   161.20   201.90   254.81
          (Kelvin)            317.71   390.88   396.61   535.85   545.08
                              595.61   630.12   683.47   717.35   728.93
                              779.37   803.29   830.21   879.48   966.93
                             1005.23  1039.88  1067.40  1078.17  1093.60
                             1104.20  1174.69  1191.61  1242.83  1303.80
                             1316.15  1372.32  1378.26  1426.30  1439.63
                             1496.90  1510.22  1567.74  1628.23  1658.02
                             1684.79  1697.05  1772.41  1802.36  1821.42
                             1867.75  1950.09  1969.54  1996.51  2021.32
                             2078.99  2126.58  2173.51  2188.29  2223.60
                             2257.01  2332.44  2360.15  2380.18  2640.43
                             4616.53  4617.12  4632.58  4632.93  4644.80
                             4648.99  4658.23  4662.31

 Zero-point correction=                           0.182279 (Hartree/Particle)
 Thermal correction to Energy=                    0.194290
 Thermal correction to Enthalpy=                  0.195235
 Thermal correction to Gibbs Free Energy=         0.143206
 Sum of electronic and zero-point Energies=          -1028.508978
 Sum of electronic and thermal Energies=             -1028.496966
 Sum of electronic and thermal Enthalpies=           -1028.496022
 Sum of electronic and thermal Free Energies=        -1028.548051

                     E (Thermal)             CV                S
                      KCal/Mol        Cal/Mol-Kelvin    Cal/Mol-Kelvin
 Total                  121.919             48.322            109.503
 Electronic               0.000              0.000              0.000
 Translational            0.889              2.981             42.162
 Rotational               0.889              2.981             32.496
 Vibrational            120.142             42.360             34.845
 Vibration     1          0.595              1.980              5.072
 Vibration     2          0.596              1.974              4.529
 Vibration     3          0.607              1.939              3.233
 Vibration     4          0.615              1.913              2.799
 Vibration     5          0.628              1.871              2.359
 Vibration     6          0.648              1.809              1.952
 Vibration     7          0.675              1.725              1.586
 Vibration     8          0.677              1.718              1.560
 Vibration     9          0.744              1.529              1.070
 Vibration    10          0.749              1.515              1.044
 Vibration    11          0.778              1.440              0.913
 Vibration    12          0.798              1.387              0.833
 Vibration    13          0.832              1.305              0.724
 Vibration    14          0.854              1.253              0.662
 Vibration    15          0.862              1.235              0.642
 Vibration    16          0.897              1.158              0.562
 Vibration    17          0.914              1.122              0.527
 Vibration    18          0.933              1.081              0.491
 Vibration    19          0.970              1.008              0.431

                           ! Non-Optimized Parameters !
 Normal termination of Gaussian 16 at Mon Jul 13 14:50:25 2020.
