 Gaussian 16, Revision C.01,
 Gaussian 16:  ES64L-G16RevC.01  3-Jul-2019

 ----------------------------------------------------------------------
 #p opt=addgic freq td wb97xd/cc-pvdz nosymm int=ultrafine scrf=(solven
 t=CarbonTetraChloride)
 ----------------------------------------------------------------------

 ------------------------------------------------
 NM 2D-scan of HBT TD-WB97XD pVDZ in CTC Relaxed.
 ------------------------------------------------
 Symbolic Z-matrix:
 Charge =  0 Multiplicity = 1

 SCF Done:  E(RwB97XD) =  -1028.78595154     A.U. after   16 cycles
 Total Energy, E(TD-HF/TD-DFT) =  -1028.67817567
 SCF Done:  E(RwB97XD) =  -1028.79345675     A.U. after   14 cycles
 Total Energy, E(TD-HF/TD-DFT) =  -1028.69179460
 SCF Done:  E(RwB97XD) =  -1028.80175662     A.U. after   13 cycles
 Total Energy, E(TD-HF/TD-DFT) =  -1028.69523685
 SCF Done:  E(RwB97XD) =  -1028.80128686     A.U. after   12 cycles
 Total Energy, E(TD-HF/TD-DFT) =  -1028.69577255
 SCF Done:  E(RwB97XD) =  -1028.80122101     A.U. after   10 cycles
 Total Energy, E(TD-HF/TD-DFT) =  -1028.69578219
 Optimization completed.
    -- Stationary point found.
 Normal termination of Gaussian 16 at Mon Jul 13 16:50:10 2020.

 ----------------------------------------------------------------------
 #P Geom=AllCheck Guess=TCheck SCRF=Check GenChk RwB97XD TD(FC,Read)/CC
 -pVDZ Freq
 ----------------------------------------------------------------------

 Structure from the checkpoint file:  "config_10_3.chk"
 ------------------------------------------------
 NM 2D-scan of HBT TD-WB97XD pVDZ in CTC Relaxed.
 ------------------------------------------------
 Charge =  0 Multiplicity = 1

                          Input orientation:
 ---------------------------------------------------------------------
 Center     Atomic      Atomic             Coordinates (Angstroms)
 Number     Number       Type             X           Y           Z
 ---------------------------------------------------------------------
      1          6           0        1.750666   -3.285306   -0.000017
      2          6           0        1.018418   -2.100090   -0.000013
      3          6           0        1.692240   -0.867323   -0.000019
      4          6           0        3.091180   -0.782864   -0.000025
      5          6           0        3.807313   -1.969448   -0.000028
      6          6           0        3.147213   -3.206701   -0.000025
      7          1           0        1.252027   -4.254983   -0.000013
      8          1           0        3.581655    0.190891   -0.000028
      9          1           0        4.897947   -1.939409   -0.000033
     10          1           0        3.730155   -4.128406   -0.000028
     11          7           0        0.837684    0.177596   -0.000022
     12         16           0       -0.740908   -1.824111   -0.000000
     13          6           0       -1.424908    1.038474    0.000001
     14          6           0       -2.807859    0.911220   -0.000019
     15          6           0       -0.854537    2.423599    0.000038
     16          6           0       -3.672491    2.042827    0.000014
     17          1           0       -3.257727   -0.084753   -0.000057
     18          6           0       -1.776056    3.516775    0.000071
     19          6           0       -3.161038    3.337619    0.000063
     20          1           0       -4.750666    1.875805    0.000003
     21          1           0       -1.326860    4.511438    0.000105
     22          1           0       -3.831023    4.198284    0.000091
     23          6           0       -0.496866   -0.070673   -0.000011
     24          8           0        0.387728    2.639864    0.000038
     25          1           0        1.112948    1.170586   -0.000013
 ---------------------------------------------------------------------

 SCF Done:  E(RwB97XD) =  -1028.80122101     A.U. after    1 cycles

 Excitation energies and oscillator strengths:

 Excited state symmetry could not be determined.
 Excited State   1:      Singlet-?Sym    2.8691 eV  432.13 nm  f=0.4334  <S**2>=0.000
      59 -> 60         0.69595
 This state for optimization and/or second-order correction.
 Total Energy, E(TD-HF/TD-DFT) =  -1028.69578217
 Copying the excited state density for this state as the 1-particle RhoCI density.

 Excited state symmetry could not be determined.
 Excited State   2:      Singlet-?Sym    3.6833 eV  336.61 nm  f=0.0000  <S**2>=0.000
      57 -> 60         0.68360
      57 -> 62         0.11780
      57 -> 64         0.11494

 Excited state symmetry could not be determined.
 Excited State   3:      Singlet-?Sym    4.3397 eV  285.70 nm  f=0.4698  <S**2>=0.000
      58 -> 60         0.68010

 Alpha  occ. eigenvalues --  -89.10830 -19.21290 -14.51765 -10.42353 -10.37146
 Alpha  occ. eigenvalues --  -10.36383 -10.36077 -10.33576 -10.32953 -10.32645
 Alpha  occ. eigenvalues --  -10.32467 -10.31555 -10.31497 -10.30659 -10.29154
 Alpha  occ. eigenvalues --  -10.28276  -8.12725  -6.07614  -6.07234  -6.06741
 Alpha  occ. eigenvalues --   -1.13256  -1.09726  -0.98382  -0.94952  -0.93158
 Alpha  occ. eigenvalues --   -0.89210  -0.86453  -0.84116  -0.80994  -0.76096
 Alpha  occ. eigenvalues --   -0.73320  -0.71719  -0.69078  -0.67568  -0.64890
 Alpha  occ. eigenvalues --   -0.60936  -0.59761  -0.56693  -0.55984  -0.55629
 Alpha  occ. eigenvalues --   -0.54949  -0.53593  -0.53056  -0.50924  -0.49122
 Alpha  occ. eigenvalues --   -0.48788  -0.48217  -0.46918  -0.45500  -0.44810
 Alpha  occ. eigenvalues --   -0.44420  -0.42896  -0.42024  -0.40287  -0.36861
 Alpha  occ. eigenvalues --   -0.33702  -0.31854  -0.31476  -0.25847
 Alpha virt. eigenvalues --   -0.02132   0.03674   0.06017   0.06255   0.09267
 Alpha virt. eigenvalues --    0.10588   0.11847   0.14576   0.16051   0.17250
 Alpha virt. eigenvalues --    0.18905   0.20063   0.21042   0.21375   0.22962

 Mulliken charges:
               1
     1  C    0.011662
     2  C   -0.250169
     3  C    0.261070
     4  C   -0.010520
     5  C    0.015048
     6  C   -0.000578
     7  H    0.027121
     8  H    0.033799
     9  H    0.028142
    10  H    0.027179
    11  N   -0.110723
    12  S    0.198120
    13  C   -0.120198
    14  C   -0.020681
    15  C    0.120443
    16  C   -0.039065
    17  H    0.000962
    18  C   -0.026864
    19  C    0.034104
    20  H    0.002449
    21  H    0.001022
    22  H    0.013963
    23  C    0.066530
    24  O   -0.401695
    25  H    0.138881
 Sum of Mulliken charges =  -0.00000

 Dipole moment (field-independent basis, Debye):
    X=              1.8999    Y=             -5.4966    Z=             -0.0001  Tot=              5.8157
 Quadrupole moment (field-independent basis, Debye-Ang):
   XX=            -82.5197   YY=            -94.8512   ZZ=           -104.2800
   XY=             -6.6403   XZ=             -0.0001   YZ=              0.0000

  Exact polarizability:     349.622    -123.058     299.629      -0.002       0.003      63.368
 Approx polarizability:     275.422     -38.181     267.050      -0.001       0.002      82.171

 ******    1 imaginary frequencies (negative Signs) ******

                      1                      2                      3
                      A                      A                      A
 Frequencies --    -84.8030                42.6134               103.3177
 Red. masses --      7.3815                 6.4477                 4.6702
 Frc consts  --      0.0313                 0.0069                 0.0294
 IR Inten    --      1.5107                 1.7860                 0.0872

                      4                      5                      6
                      A                      A                      A
 Frequencies --    113.2528               173.2105               224.9509
 Red. masses --      5.7498                 5.1803                 5.3710
 Frc consts  --      0.0435                 0.0916                 0.1601
 IR Inten    --      8.5173                 0.1090                 0.2738

                      7                      8                      9
                      A                      A                      A
 Frequencies --    264.0588               269.7498               321.5930
 Red. masses --      7.6609                 4.6367                 7.0859
 Frc consts  --      0.3147                 0.1988                 0.4318
 IR Inten    --      0.9396                 0.8312                 6.7544

                     10                     11                     12
                      A                      A                      A
 Frequencies --    352.6736               383.4159               431.9692
 Red. masses --      4.9037                 9.2059                 3.3602
 Frc consts  --      0.3594                 0.7974                 0.3694
 IR Inten    --      1.0274                 5.2043                 4.5272

                     13                     14                     15
                      A                      A                      A
 Frequencies --    452.3524               501.2031               507.0075
 Red. masses --      4.6288                 8.4567                 3.1810
 Frc consts  --      0.5580                 1.2516                 0.4818
 IR Inten    --      2.4666                 8.8292                 0.5638

                     16                     17                     18
                      A                      A                      A
 Frequencies --    538.8087               555.2845               564.6732
 Red. masses --      8.8158                 3.8129                 6.7348
 Frc consts  --      1.5079                 0.6927                 1.2652
 IR Inten    --      8.2571                 1.0267                20.5274

                     19                     20                     21
                      A                      A                      A
 Frequencies --    570.6581               638.5531               688.5994
 Red. masses --      7.6080                 6.0686                 1.5828
 Frc consts  --      1.4597                 1.4579                 0.4422
 IR Inten    --     30.8884                67.1095                36.9514

                     22                     23                     24
                      A                      A                      A
 Frequencies --    697.4944               723.4364               741.8355
 Red. masses --      6.5223                 8.1070                 2.4836
 Frc consts  --      1.8695                 2.4998                 0.8053
 IR Inten    --      0.7138                 4.8041                14.6426

                     25                     26                     27
                      A                      A                      A
 Frequencies --    762.8558               765.8775               807.0346
 Red. masses --      1.7427                 1.6896                 6.5155
 Frc consts  --      0.5975                 0.5839                 2.5003
 IR Inten    --      1.3835                77.3105                17.4643

                     28                     29                     30
                      A                      A                      A
 Frequencies --    842.3932               859.7688               877.3488
 Red. masses --      1.6688                 1.3232                 1.1584
 Frc consts  --      0.6977                 0.5763                 0.5253
 IR Inten    --      0.3475                 7.4955                65.2287

                     31                     32                     33
                      A                      A                      A
 Frequencies --    888.1950               908.6602               952.7409
 Red. masses --      4.8452                 1.4258                 5.3909
 Frc consts  --      2.2520                 0.6936                 2.8831
 IR Inten    --      6.4574                11.3816                 2.1200

                     34                     35                     36
                      A                      A                      A
 Frequencies --    954.0824               956.1412              1003.1005
 Red. masses --      1.3622                 1.3489                 1.2943
 Frc consts  --      0.7306                 0.7266                 0.7673
 IR Inten    --      1.2765                 1.8947                 0.0133

                     37                     38                     39
                      A                      A                      A
 Frequencies --   1044.3157              1050.8760              1076.7956
 Red. masses --      2.2728                 2.2071                 4.0463
 Frc consts  --      1.4604                 1.4361                 2.7642
 IR Inten    --      0.3899                 9.1234                 2.1572

                     40                     41                     42
                      A                      A                      A
 Frequencies --   1109.0200              1149.1946              1159.8807
 Red. masses --      1.5929                 1.3108                 1.1881
 Frc consts  --      1.1543                 1.0200                 0.9417
 IR Inten    --     44.1923                 5.2881                77.7122

                     43                     44                     45
                      A                      A                      A
 Frequencies --   1178.8820              1213.5130              1250.5934
 Red. masses --      1.1382                 2.1235                 2.2463
 Frc consts  --      0.9320                 1.8425                 2.0699
 IR Inten    --     26.5082                98.6592                21.5261

                     46                     47                     48
                      A                      A                      A
 Frequencies --   1288.1082              1302.6396              1332.4783
 Red. masses --      1.5666                 1.8974                 4.2873
 Frc consts  --      1.5315                 1.8969                 4.4849
 IR Inten    --     86.7758                99.6457                32.2455

                     49                     50                     51
                      A                      A                      A
 Frequencies --   1370.5528              1392.5102              1399.4254
 Red. masses --      3.5770                 2.3589                 3.2270
 Frc consts  --      3.9588                 2.6950                 3.7235
 IR Inten    --     99.9433                34.2203                26.7256

                     52                     53                     54
                      A                      A                      A
 Frequencies --   1440.8232              1478.1638              1511.1811
 Red. masses --      3.2443                 2.7350                 2.9462
 Frc consts  --      3.9682                 3.5209                 3.9640
 IR Inten    --    294.1209                 5.7064                18.5921

                     55                     56                     57
                      A                      A                      A
 Frequencies --   1531.7087              1574.9588              1590.3574
 Red. masses --      4.0290                 5.7489                 4.6016
 Frc consts  --      5.5693                 8.4018                 6.8572
 IR Inten    --     61.1614               206.7287                60.7194

                     58                     59                     60
                      A                      A                      A
 Frequencies --   1627.3774              1656.0254              1674.2597
 Red. masses --      6.6262                 6.5126                 6.7460
 Frc consts  --     10.3394                10.5230                11.1415
 IR Inten    --    186.9458                 6.7128               216.2552

                     61                     62                     63
                      A                      A                      A
 Frequencies --   3190.5599              3209.7988              3212.9305
 Red. masses --      1.0891                 1.0863                 1.0862
 Frc consts  --      6.5324                 6.5939                 6.6062
 IR Inten    --     12.3679                 3.4584                 6.8193

                     64                     65                     66
                      A                      A                      A
 Frequencies --   3221.9174              3222.8228              3231.4572
 Red. masses --      1.0918                 1.0901                 1.0962
 Frc consts  --      6.6779                 6.6710                 6.7441
 IR Inten    --     15.3440                 2.3486                 6.8984

                     67                     68                     69
                      A                      A                      A
 Frequencies --   3233.6576              3239.7088              3267.7284
 Red. masses --      1.0991                 1.0995                 1.0890
 Frc consts  --      6.7712                 6.7991                 6.8509
 IR Inten    --     34.7441                19.5743              1032.3227

 - Thermochemistry -
 -------------------
 Temperature   298.150 Kelvin.  Pressure   1.00000 Atm.
 Atom     1 has atomic number  6 and mass  12.00000

 Molecular mass:   227.04049 amu.
 Principal axes and moments of inertia in atomic units:
                           1         2         3
     Eigenvalues --  1322.775886427.302487750.07837
           X           -0.70214   0.71204   0.00000
           Y            0.71204   0.70214  -0.00001
           Z            0.00001   0.00001   1.00000
 This molecule is an asymmetric top.
 Rotational symmetry number  1.
 Warning -- assumption of classical behavior for rotation
           may cause significant error
 Rotational temperatures (Kelvin)      0.06548     0.01348     0.01118
 Rotational constants (GHZ):           1.36436     0.28079     0.23287
    1 imaginary frequencies ignored.
 Zero-point vibrational energy     489710.1 (Joules/Mol)
                                  117.04352 (Kcal/Mol)
 Warning -- explicit consideration of  18 degrees of freedom as
           vibrations may cause significant error
 Vibrational temperatures:     61.31   148.65   162.95   249.21   323.65
          (Kelvin)            379.92   388.11   462.70   507.42   551.65
                              621.51   650.83   721.12   729.47   775.23
                              798.93   812.44   821.05   918.74   990.74
                             1003.54  1040.86  1067.34  1097.58  1101.93
                             1161.14  1212.02  1237.02  1262.31  1277.91
                             1307.36  1370.78  1372.71  1375.67  1443.24
                             1502.54  1511.98  1549.27  1595.63  1653.43
                             1668.81  1696.15  1745.97  1799.32  1853.30
                             1874.21  1917.14  1971.92  2003.51  2013.46
                             2073.02  2126.75  2174.25  2203.79  2266.01
                             2288.17  2341.43  2382.65  2408.89  4590.50
                             4618.18  4622.69  4635.62  4636.92  4649.35
                             4652.51  4661.22  4701.53

 Zero-point correction=                           0.186521 (Hartree/Particle)
 Thermal correction to Energy=                    0.198081
 Thermal correction to Enthalpy=                  0.199025
 Thermal correction to Gibbs Free Energy=         0.148327
 Sum of electronic and zero-point Energies=          -1028.509261
 Sum of electronic and thermal Energies=             -1028.497701
 Sum of electronic and thermal Enthalpies=           -1028.496757
 Sum of electronic and thermal Free Energies=        -1028.547455

                     E (Thermal)             CV                S
                      KCal/Mol        Cal/Mol-Kelvin    Cal/Mol-Kelvin
 Total                  124.298             47.600            106.702
 Electronic               0.000              0.000              0.000
 Translational            0.889              2.981             42.162
 Rotational               0.889              2.981             32.555
 Vibrational            122.520             41.639             31.985
 Vibration     1          0.595              1.980              5.134
 Vibration     2          0.605              1.947              3.391
 Vibration     3          0.607              1.938              3.212
 Vibration     4          0.627              1.875              2.400
 Vibration     5          0.650              1.803              1.919
 Vibration     6          0.671              1.739              1.635
 Vibration     7          0.674              1.729              1.598
 Vibration     8          0.707              1.632              1.302
 Vibration     9          0.729              1.570              1.154
 Vibration    10          0.753              1.506              1.026
 Vibration    11          0.793              1.401              0.852
 Vibration    12          0.811              1.356              0.789
 Vibration    13          0.857              1.247              0.655
 Vibration    14          0.862              1.234              0.641
 Vibration    15          0.894              1.164              0.568
 Vibration    16          0.911              1.128              0.533
 Vibration    17          0.920              1.108              0.515
 Vibration    18          0.927              1.095              0.503

 Optimization completed.
    -- Stationary point found.
 Normal termination of Gaussian 16 at Mon Jul 13 17:08:37 2020.
