 Gaussian 16, Revision C.01,
 Gaussian 16:  ES64L-G16RevC.01  3-Jul-2019

 ----------------------------------------------------------------------
 #p opt=addgic freq td wb97xd/cc-pvdz nosymm int=ultrafine scrf=(solven
 t=CarbonTetraChloride)
 ----------------------------------------------------------------------

 ------------------------------------------------
 NM 2D-scan of HBT TD-WB97XD pVDZ in CTC Relaxed.
 ------------------------------------------------
 Symbolic Z-matrix:
 Charge =  0 Multiplicity = 1

 SCF Done:  E(RwB97XD) =  -1028.81617940     A.U. after   15 cycles
 Total Energy, E(TD-HF/TD-DFT) =  -1028.68895756
 SCF Done:  E(RwB97XD) =  -1028.81677652     A.U. after   12 cycles
 Total Energy, E(TD-HF/TD-DFT) =  -1028.68991746
 SCF Done:  E(RwB97XD) =  -1028.81591163     A.U. after   12 cycles
 Total Energy, E(TD-HF/TD-DFT) =  -1028.69039554
 SCF Done:  E(RwB97XD) =  -1028.81605132     A.U. after   11 cycles
 Total Energy, E(TD-HF/TD-DFT) =  -1028.69048432
 SCF Done:  E(RwB97XD) =  -1028.81614301     A.U. after   10 cycles
 Total Energy, E(TD-HF/TD-DFT) =  -1028.69049146
 SCF Done:  E(RwB97XD) =  -1028.81616075     A.U. after    8 cycles
 Total Energy, E(TD-HF/TD-DFT) =  -1028.69049145
 SCF Done:  E(RwB97XD) =  -1028.81618195     A.U. after    8 cycles
 Total Energy, E(TD-HF/TD-DFT) =  -1028.69049182
 Optimization completed.
    -- Stationary point found.
 Normal termination of Gaussian 16 at Mon Jul 13 14:09:15 2020.

 ----------------------------------------------------------------------
 #P Geom=AllCheck Guess=TCheck SCRF=Check GenChk RwB97XD TD(FC,Read)/CC
 -pVDZ Freq
 ----------------------------------------------------------------------

 Structure from the checkpoint file:  "config_5_4.chk"
 ------------------------------------------------
 NM 2D-scan of HBT TD-WB97XD pVDZ in CTC Relaxed.
 ------------------------------------------------
 Charge =  0 Multiplicity = 1

                          Input orientation:
 ---------------------------------------------------------------------
 Center     Atomic      Atomic             Coordinates (Angstroms)
 Number     Number       Type             X           Y           Z
 ---------------------------------------------------------------------
      1          6           0        1.719812   -3.276653   -0.000013
      2          6           0        0.994013   -2.086617    0.000054
      3          6           0        1.669447   -0.829363   -0.000003
      4          6           0        3.083182   -0.781949   -0.000125
      5          6           0        3.786678   -1.968896   -0.000190
      6          6           0        3.115656   -3.208202   -0.000136
      7          1           0        1.214777   -4.243421    0.000025
      8          1           0        3.581880    0.187816   -0.000167
      9          1           0        4.877969   -1.950556   -0.000287
     10          1           0        3.694099   -4.133176   -0.000191
     11          7           0        0.874023    0.245593    0.000066
     12         16           0       -0.749711   -1.819859    0.000195
     13          6           0       -1.397603    1.008675    0.000147
     14          6           0       -2.805498    0.872910    0.000048
     15          6           0       -0.877349    2.402180    0.000137
     16          6           0       -3.641255    1.990079   -0.000095
     17          1           0       -3.244022   -0.126480    0.000045
     18          6           0       -1.756232    3.500503   -0.000029
     19          6           0       -3.129960    3.307113   -0.000150
     20          1           0       -4.721998    1.838547   -0.000186
     21          1           0       -1.306414    4.493809   -0.000032
     22          1           0       -3.808851    4.159945   -0.000268
     23          6           0       -0.451277   -0.049881    0.000184
     24          8           0        0.403360    2.647143    0.000351
     25          1           0        0.884335    1.701948    0.000707
 ---------------------------------------------------------------------

 SCF Done:  E(RwB97XD) =  -1028.81618195     A.U. after    1 cycles

 Excitation energies and oscillator strengths:

 Excited state symmetry could not be determined.
 Excited State   1:      Singlet-?Sym    3.4202 eV  362.51 nm  f=0.6062  <S**2>=0.000
      59 -> 60         0.69093
 This state for optimization and/or second-order correction.
 Total Energy, E(TD-HF/TD-DFT) =  -1028.69049182
 Copying the excited state density for this state as the 1-particle RhoCI density.

 Excited state symmetry could not be determined.
 Excited State   2:      Singlet-?Sym    4.3890 eV  282.49 nm  f=0.3156  <S**2>=0.000
      57 -> 60         0.16814
      58 -> 60         0.64720
      59 -> 62         0.11039
      59 -> 64         0.11632

 Excited state symmetry could not be determined.
 Excited State   3:      Singlet-?Sym    4.6471 eV  266.80 nm  f=0.0409  <S**2>=0.000
      56 -> 61        -0.10469
      57 -> 60         0.58280
      57 -> 62        -0.14585
      58 -> 60        -0.16244
      58 -> 61        -0.16168
      59 -> 61         0.24086

 Alpha  occ. eigenvalues --  -89.09454 -19.27111 -14.47365 -10.40276 -10.37860
 Alpha  occ. eigenvalues --  -10.35208 -10.35111 -10.32573 -10.32466 -10.32190
 Alpha  occ. eigenvalues --  -10.31742 -10.31612 -10.31599 -10.31492 -10.30221
 Alpha  occ. eigenvalues --  -10.29947  -8.11338  -6.06201  -6.05853  -6.05386
 Alpha  occ. eigenvalues --   -1.16279  -1.08788  -0.96788  -0.95501  -0.91783
 Alpha  occ. eigenvalues --   -0.88851  -0.84992  -0.84201  -0.82402  -0.75947
 Alpha  occ. eigenvalues --   -0.71036  -0.70255  -0.68975  -0.68349  -0.63360
 Alpha  occ. eigenvalues --   -0.60555  -0.58879  -0.58481  -0.55677  -0.54356
 Alpha  occ. eigenvalues --   -0.54025  -0.53099  -0.52745  -0.51141  -0.50136
 Alpha  occ. eigenvalues --   -0.49605  -0.47605  -0.46013  -0.45540  -0.44779
 Alpha  occ. eigenvalues --   -0.43817  -0.42651  -0.42586  -0.40180  -0.36576
 Alpha  occ. eigenvalues --   -0.36491  -0.32410  -0.31237  -0.27852
 Alpha virt. eigenvalues --   -0.01768   0.04898   0.06970   0.07136   0.07430
 Alpha virt. eigenvalues --    0.10926   0.13139   0.15080   0.15967   0.17920
 Alpha virt. eigenvalues --    0.18696   0.20910   0.21707   0.22405   0.22538

 Mulliken charges:
               1
     1  C    0.010271
     2  C   -0.230634
     3  C    0.256768
     4  C   -0.015673
     5  C    0.009959
     6  C   -0.006268
     7  H    0.020047
     8  H    0.019890
     9  H    0.020191
    10  H    0.021609
    11  N   -0.347032
    12  S    0.163251
    13  C   -0.106563
    14  C   -0.016873
    15  C    0.100994
    16  C   -0.020539
    17  H    0.009056
    18  C    0.003730
    19  C    0.024952
    20  H    0.009942
    21  H    0.015930
    22  H    0.021237
    23  C    0.081743
    24  O   -0.238029
    25  H    0.192040
 Sum of Mulliken charges =  -0.00000

 Dipole moment (field-independent basis, Debye):
    X=             -0.0010    Y=             -2.4620    Z=              0.0002  Tot=              2.4620
 Quadrupole moment (field-independent basis, Debye-Ang):
   XX=            -83.3121   YY=            -89.6977   ZZ=           -104.4063
   XY=             -6.9422   XZ=              0.0004   YZ=             -0.0003

  Exact polarizability:     390.308    -174.939     361.786      -0.003       0.000      63.449
 Approx polarizability:     278.005     -35.778     261.703      -0.002      -0.002      82.441

                      1                      2                      3
                      A                      A                      A
 Frequencies --     24.9360                45.6463                99.8074
 Red. masses --      6.3818                 6.6553                 5.3569
 Frc consts  --      0.0023                 0.0082                 0.0314
 IR Inten    --      0.5311                 1.0474                 0.6291

                      4                      5                      6
                      A                      A                      A
 Frequencies --    105.1457               177.0163               222.9077
 Red. masses --      4.5457                 6.0720                 5.3403
 Frc consts  --      0.0296                 0.1121                 0.1563
 IR Inten    --      0.1513                 0.7939                 0.0238

                      7                      8                      9
                      A                      A                      A
 Frequencies --    267.5208               269.1075               289.3224
 Red. masses --      7.5722                 4.7976                 5.6395
 Frc consts  --      0.3193                 0.2047                 0.2781
 IR Inten    --     22.2819                 0.1795                14.9560

                     10                     11                     12
                      A                      A                      A
 Frequencies --    384.5761               396.6722               437.6859
 Red. masses --      4.7666                 8.9085                 3.2303
 Frc consts  --      0.4154                 0.8259                 0.3646
 IR Inten    --      0.2999                 9.3605                 4.7591

                     13                     14                     15
                      A                      A                      A
 Frequencies --    486.3889               488.3260               497.6040
 Red. masses --      4.6548                 4.2747                 3.1652
 Frc consts  --      0.6488                 0.6006                 0.4618
 IR Inten    --      0.0806                11.8833                 0.0793

                     16                     17                     18
                      A                      A                      A
 Frequencies --    504.2158               528.6028               553.4137
 Red. masses --      8.2448                 8.3924                 3.9462
 Frc consts  --      1.2350                 1.3816                 0.7121
 IR Inten    --      0.7530                27.1226                 0.1454

                     19                     20                     21
                      A                      A                      A
 Frequencies --    580.1710               636.3020               695.7990
 Red. masses --      7.5575                 6.8372                 7.2823
 Frc consts  --      1.4988                 1.6310                 2.0772
 IR Inten    --      9.8334                54.4206                 3.2712

                     22                     23                     24
                      A                      A                      A
 Frequencies --    705.5096               723.2145               737.3124
 Red. masses --      1.7290                 8.9430                 1.9673
 Frc consts  --      0.5071                 2.7559                 0.6301
 IR Inten    --     41.2313                17.3211                24.7114

                     25                     26                     27
                      A                      A                      A
 Frequencies --    756.8660               769.2072               809.9878
 Red. masses --      1.9045                 1.9621                 6.3433
 Frc consts  --      0.6428                 0.6840                 2.4520
 IR Inten    --     29.9742                55.3651                 9.3054

                     28                     29                     30
                      A                      A                      A
 Frequencies --    822.1273               859.4975               899.8043
 Red. masses --      1.6204                 1.4182                 6.4366
 Frc consts  --      0.6453                 0.6173                 3.0704
 IR Inten    --      0.0730                 0.9414                48.5401

                     31                     32                     33
                      A                      A                      A
 Frequencies --    914.6334               953.0330               960.9597
 Red. masses --      1.3574                 1.3436                 1.3716
 Frc consts  --      0.6691                 0.7190                 0.7462
 IR Inten    --      5.5232                 1.7308                 0.3974

                     34                     35                     36
                      A                      A                      A
 Frequencies --    964.2656               999.4534              1037.4342
 Red. masses --      6.9023                 1.2964                 2.2089
 Frc consts  --      3.7813                 0.7630                 1.4007
 IR Inten    --     12.8524                 0.0253                 1.3467

                     37                     38                     39
                      A                      A                      A
 Frequencies --   1043.4310              1072.8050              1123.4245
 Red. masses --      2.2078                 4.0991                 1.0599
 Frc consts  --      1.4163                 2.7796                 0.7881
 IR Inten    --      0.7574                51.1108                64.9977

                     40                     41                     42
                      A                      A                      A
 Frequencies --   1126.3161              1145.9093              1170.8833
 Red. masses --      1.5587                 1.3175                 1.1547
 Frc consts  --      1.1650                 1.0193                 0.9327
 IR Inten    --     57.2227                12.7529                33.3888

                     43                     44                     45
                      A                      A                      A
 Frequencies --   1176.9742              1236.9950              1247.7240
 Red. masses --      1.1718                 2.5646                 2.1428
 Frc consts  --      0.9564                 2.3121                 1.9655
 IR Inten    --     21.6412               108.8416                76.1312

                     46                     47                     48
                      A                      A                      A
 Frequencies --   1274.4446              1284.8609              1363.3947
 Red. masses --      3.5807                 1.7411                 2.5827
 Frc consts  --      3.4266                 1.6935                 2.8286
 IR Inten    --    160.2124                12.9024                 1.9544

                     49                     50                     51
                      A                      A                      A
 Frequencies --   1376.2329              1402.8185              1442.4717
 Red. masses --      5.2414                 2.0847                 2.4291
 Frc consts  --      5.8490                 2.4172                 2.9779
 IR Inten    --    126.7168                 0.7075               128.1191

                     52                     53                     54
                      A                      A                      A
 Frequencies --   1474.5447              1489.9061              1519.9383
 Red. masses --      4.2754                 3.1723                 5.1819
 Frc consts  --      5.4771                 4.1490                 7.0533
 IR Inten    --     56.0309               106.9633               414.6523

                     55                     56                     57
                      A                      A                      A
 Frequencies --   1534.0014              1555.4267              1579.7332
 Red. masses --      4.1309                 4.8042                 3.4890
 Frc consts  --      5.7273                 6.8481                 5.1299
 IR Inten    --    131.0726               555.9990                43.6519

                     58                     59                     60
                      A                      A                      A
 Frequencies --   1615.7598              1647.1674              1662.6762
 Red. masses --      5.9205                 4.1879                 2.7637
 Frc consts  --      9.1067                 6.6946                 4.5016
 IR Inten    --    292.0245               736.4532               109.8604

                     61                     62                     63
                      A                      A                      A
 Frequencies --   2083.0061              3204.9386              3207.7743
 Red. masses --      1.1236                 1.0871                 1.0861
 Frc consts  --      2.8724                 6.5791                 6.5847
 IR Inten    --    421.0225                 8.3006                 8.4938

                     64                     65                     66
                      A                      A                      A
 Frequencies --   3217.8046              3218.2859              3226.1239
 Red. masses --      1.0892                 1.0898                 1.0931
 Frc consts  --      6.6447                 6.6506                 6.7031
 IR Inten    --      2.1701                 2.9351                18.9301

                     67                     68                     69
                      A                      A                      A
 Frequencies --   3229.3642              3236.1208              3238.8514
 Red. masses --      1.0954                 1.0992                 1.0988
 Frc consts  --      6.7304                 6.7824                 6.7910
 IR Inten    --     10.7083                37.1063                18.7098

 - Thermochemistry -
 -------------------
 Temperature   298.150 Kelvin.  Pressure   1.00000 Atm.
 Atom     1 has atomic number  6 and mass  12.00000

 Molecular mass:   227.04049 amu.
 Principal axes and moments of inertia in atomic units:
                           1         2         3
     Eigenvalues --  1337.251086324.916117662.16716
           X           -0.70074   0.71342   0.00001
           Y            0.71342   0.70074  -0.00000
           Z            0.00001  -0.00001   1.00000
 This molecule is an asymmetric top.
 Rotational symmetry number  1.
 Warning -- assumption of classical behavior for rotation
           may cause significant error
 Rotational temperatures (Kelvin)      0.06477     0.01369     0.01130
 Rotational constants (GHZ):           1.34959     0.28534     0.23554
 Zero-point vibrational energy     484694.4 (Joules/Mol)
                                  115.84475 (Kcal/Mol)
 Warning -- explicit consideration of  19 degrees of freedom as
           vibrations may cause significant error
 Vibrational temperatures:     35.88    65.67   143.60   151.28   254.69
          (Kelvin)            320.71   384.90   387.19   416.27   553.32
                              570.72   629.73   699.81   702.59   715.94
                              725.45   760.54   796.24   834.74   915.50
                             1001.10  1015.07  1040.54  1060.83  1088.96
                             1106.72  1165.39  1182.86  1236.63  1294.62
                             1315.95  1371.20  1382.61  1387.36  1437.99
                             1492.64  1501.26  1543.53  1616.36  1620.52
                             1648.71  1684.64  1693.40  1779.76  1795.20
                             1833.64  1848.63  1961.62  1980.09  2018.34
                             2075.40  2121.54  2143.64  2186.85  2207.09
                             2237.91  2272.88  2324.72  2369.91  2392.22
                             2996.98  4611.19  4615.27  4629.70  4630.40
                             4641.67  4646.33  4656.06  4659.98

 Zero-point correction=                           0.184610 (Hartree/Particle)
 Thermal correction to Energy=                    0.197045
 Thermal correction to Enthalpy=                  0.197989
 Thermal correction to Gibbs Free Energy=         0.144357
 Sum of electronic and zero-point Energies=          -1028.505881
 Sum of electronic and thermal Energies=             -1028.493447
 Sum of electronic and thermal Enthalpies=           -1028.492502
 Sum of electronic and thermal Free Energies=        -1028.546134

                     E (Thermal)             CV                S
                      KCal/Mol        Cal/Mol-Kelvin    Cal/Mol-Kelvin
 Total                  123.648             49.333            112.878
 Electronic               0.000              0.000              0.000
 Translational            0.889              2.981             42.162
 Rotational               0.889              2.981             32.538
 Vibrational            121.870             43.372             38.178
 Vibration     1          0.593              1.985              6.196
 Vibration     2          0.595              1.979              4.998
 Vibration     3          0.604              1.949              3.458
 Vibration     4          0.605              1.945              3.357
 Vibration     5          0.628              1.871              2.360
 Vibration     6          0.649              1.806              1.935
 Vibration     7          0.673              1.733              1.612
 Vibration     8          0.674              1.730              1.602
 Vibration     9          0.686              1.694              1.478
 Vibration    10          0.754              1.503              1.021
 Vibration    11          0.763              1.477              0.975
 Vibration    12          0.798              1.388              0.834
 Vibration    13          0.842              1.280              0.693
 Vibration    14          0.844              1.276              0.688
 Vibration    15          0.853              1.255              0.664
 Vibration    16          0.859              1.241              0.648
 Vibration    17          0.884              1.187              0.590
 Vibration    18          0.909              1.132              0.537
 Vibration    19          0.937              1.074              0.485

 Optimization completed.
    -- Stationary point found.
 Normal termination of Gaussian 16 at Mon Jul 13 14:26:42 2020.
