 Gaussian 16, Revision C.01,
 Gaussian 16:  ES64L-G16RevC.01  3-Jul-2019

 ----------------------------------------------------------------------
 #p opt=addgic freq td wb97xd/cc-pvdz nosymm int=ultrafine scrf=(solven
 t=CarbonTetraChloride)
 ----------------------------------------------------------------------

 ------------------------------------------------
 NM 2D-scan of HBT TD-WB97XD pVDZ in CTC Relaxed.
 ------------------------------------------------
 Symbolic Z-matrix:
 Charge =  0 Multiplicity = 1

 SCF Done:  E(RwB97XD) =  -1028.51425479     A.U. after   16 cycles
 Total Energy, E(TD-HF/TD-DFT) =  -1028.40973510
 SCF Done:  E(RwB97XD) =  -1028.71437412     A.U. after   14 cycles
 Total Energy, E(TD-HF/TD-DFT) =  -1028.61259406
 SCF Done:  E(RwB97XD) =  -1028.77052314     A.U. after   15 cycles
 Total Energy, E(TD-HF/TD-DFT) =  -1028.67392071
 SCF Done:  E(RwB97XD) =  -1028.78345889     A.U. after   14 cycles
 Total Energy, E(TD-HF/TD-DFT) =  -1028.68540718
 SCF Done:  E(RwB97XD) =  -1028.78465070     A.U. after   12 cycles
 Total Energy, E(TD-HF/TD-DFT) =  -1028.68603706
 SCF Done:  E(RwB97XD) =  -1028.78566602     A.U. after   12 cycles
 Total Energy, E(TD-HF/TD-DFT) =  -1028.68615393
 SCF Done:  E(RwB97XD) =  -1028.78540948     A.U. after   10 cycles
 Total Energy, E(TD-HF/TD-DFT) =  -1028.68617668
 Optimization completed.
    -- Stationary point found.
 Normal termination of Gaussian 16 at Mon Jul 13 21:05:45 2020.

 ----------------------------------------------------------------------
 #P Geom=AllCheck Guess=TCheck SCRF=Check GenChk RwB97XD TD(FC,Read)/CC
 -pVDZ Freq
 ----------------------------------------------------------------------

 Structure from the checkpoint file:  "config_12_11.chk"
 ------------------------------------------------
 NM 2D-scan of HBT TD-WB97XD pVDZ in CTC Relaxed.
 ------------------------------------------------
 Charge =  0 Multiplicity = 1

                          Input orientation:
 ---------------------------------------------------------------------
 Center     Atomic      Atomic             Coordinates (Angstroms)
 Number     Number       Type             X           Y           Z
 ---------------------------------------------------------------------
      1          6           0        1.652474   -3.299135    0.000343
      2          6           0        1.022580   -2.061899    0.000142
      3          6           0        1.770792   -0.891326   -0.000196
      4          6           0        3.170984   -0.907702   -0.000334
      5          6           0        3.794749   -2.151671   -0.000133
      6          6           0        3.048421   -3.334406    0.000201
      7          1           0        1.072184   -4.221648    0.000596
      8          1           0        3.745070    0.020153   -0.000588
      9          1           0        4.884723   -2.199634   -0.000234
     10          1           0        3.560151   -4.297110    0.000348
     11          7           0        0.954690    0.201798   -0.000364
     12         16           0       -0.707256   -1.669050    0.000208
     13          6           0       -1.398713    1.102042   -0.000092
     14          6           0       -2.752966    0.848598   -0.000331
     15          6           0       -0.910184    2.497421    0.000290
     16          6           0       -3.721411    1.909435   -0.000200
     17          1           0       -3.118031   -0.182024   -0.000649
     18          6           0       -1.928676    3.519282    0.000406
     19          6           0       -3.307821    3.229088    0.000174
     20          1           0       -4.781248    1.650432   -0.000393
     21          1           0       -1.579277    4.553925    0.000761
     22          1           0       -4.041300    4.037214    0.000294
     23          6           0       -0.403610    0.044352   -0.000134
     24          8           0        0.317883    2.701311    0.000581
     25          1           0        1.492312    1.029721   -0.000615
 ---------------------------------------------------------------------

 SCF Done:  E(RwB97XD) =  -1028.78540948     A.U. after    1 cycles

 Excitation energies and oscillator strengths:

 Excited state symmetry could not be determined.
 Excited State   1:      Singlet-?Sym    2.7003 eV  459.16 nm  f=0.4307  <S**2>=0.000
      59 -> 60         0.69744
 This state for optimization and/or second-order correction.
 Total Energy, E(TD-HF/TD-DFT) =  -1028.68617671
 Copying the excited state density for this state as the 1-particle RhoCI density.

 Excited state symmetry could not be determined.
 Excited State   2:      Singlet-?Sym    3.2972 eV  376.03 nm  f=0.0000  <S**2>=0.000
      58 -> 60         0.68428
      58 -> 62         0.11385
      58 -> 64         0.10261

 Excited state symmetry could not be determined.
 Excited State   3:      Singlet-?Sym    4.2987 eV  288.42 nm  f=0.4652  <S**2>=0.000
      57 -> 60         0.68310

 Alpha  occ. eigenvalues --  -89.10634 -19.20009 -14.52942 -10.42812 -10.37289
 Alpha  occ. eigenvalues --  -10.36227 -10.35257 -10.33640 -10.33441 -10.32945
 Alpha  occ. eigenvalues --  -10.32622 -10.31332 -10.30896 -10.30484 -10.28968
 Alpha  occ. eigenvalues --  -10.28044  -8.12640  -6.07524  -6.07128  -6.06660
 Alpha  occ. eigenvalues --   -1.13476  -1.09180  -0.98705  -0.95648  -0.93255
 Alpha  occ. eigenvalues --   -0.89082  -0.86807  -0.84152  -0.80548  -0.76013
 Alpha  occ. eigenvalues --   -0.74710  -0.71909  -0.69401  -0.67402  -0.64740
 Alpha  occ. eigenvalues --   -0.61064  -0.59822  -0.56494  -0.56304  -0.56051
 Alpha  occ. eigenvalues --   -0.55097  -0.53588  -0.53011  -0.50481  -0.48701
 Alpha  occ. eigenvalues --   -0.48663  -0.48192  -0.47068  -0.45592  -0.44853
 Alpha  occ. eigenvalues --   -0.44014  -0.42753  -0.42189  -0.39842  -0.36964
 Alpha  occ. eigenvalues --   -0.33870  -0.31594  -0.30534  -0.25233
 Alpha virt. eigenvalues --   -0.02282   0.03486   0.05714   0.06559   0.09823
 Alpha virt. eigenvalues --    0.10912   0.12834   0.14416   0.15937   0.16565
 Alpha virt. eigenvalues --    0.17963   0.19802   0.20835   0.21252   0.22721

 Mulliken charges:
               1
     1  C    0.014551
     2  C   -0.245161
     3  C    0.209196
     4  C   -0.012421
     5  C    0.013552
     6  C    0.003559
     7  H    0.026257
     8  H    0.033943
     9  H    0.029672
    10  H    0.028185
    11  N   -0.076855
    12  S    0.199944
    13  C   -0.076614
    14  C   -0.035688
    15  C    0.107268
    16  C   -0.040144
    17  H    0.004658
    18  C   -0.059244
    19  C    0.035063
    20  H    0.000710
    21  H   -0.002151
    22  H    0.013307
    23  C    0.089096
    24  O   -0.379467
    25  H    0.118783
 Sum of Mulliken charges =  -0.00000

 Dipole moment (field-independent basis, Debye):
    X=              2.7355    Y=             -6.2137    Z=             -0.0016  Tot=              6.7892
 Quadrupole moment (field-independent basis, Debye-Ang):
   XX=            -81.2620   YY=            -96.7302   ZZ=           -104.1668
   XY=             -5.9885   XZ=             -0.0023   YZ=             -0.0047

  Exact polarizability:     346.545    -117.403     289.121       0.002      -0.001      63.298
 Approx polarizability:     277.007     -40.883     264.944      -0.000       0.001      82.016

 ******    2 imaginary frequencies (negative Signs) ******

                      1                      2                      3
                      A                      A                      A
 Frequencies --   -109.6932               -18.7999                73.5484
 Red. masses --      3.2294                 5.4802                 5.6421
 Frc consts  --      0.0229                 0.0011                 0.0180
 IR Inten    --     11.4348                 0.1490                 2.5358

                      4                      5                      6
                      A                      A                      A
 Frequencies --    109.9378               163.6954               195.7395
 Red. masses --      5.7320                 3.5737                 4.3547
 Frc consts  --      0.0408                 0.0564                 0.0983
 IR Inten    --      5.7100                 7.8805                17.2401

                      7                      8                      9
                      A                      A                      A
 Frequencies --    250.7605               262.8427               292.5811
 Red. masses --      3.5340                 7.6464                 8.8197
 Frc consts  --      0.1309                 0.3112                 0.4448
 IR Inten    --      7.5478                 1.2479                 2.3463

                     10                     11                     12
                      A                      A                      A
 Frequencies --    332.2377               343.1648               374.3669
 Red. masses --      2.8305                 2.9371                 6.9929
 Frc consts  --      0.1841                 0.2038                 0.5774
 IR Inten    --     11.9511                18.0467                 7.0328

                     13                     14                     15
                      A                      A                      A
 Frequencies --    434.6182               444.7860               499.4663
 Red. masses --      4.0350                 2.7746                 8.0993
 Frc consts  --      0.4491                 0.3234                 1.1905
 IR Inten    --      7.3236                 0.4286                 9.9568

                     16                     17                     18
                      A                      A                      A
 Frequencies --    516.4022               540.8528               544.0767
 Red. masses --      3.2384                 7.5039                 7.5378
 Frc consts  --      0.5088                 1.2933                 1.3147
 IR Inten    --      0.6253                 3.4480                55.1288

                     19                     20                     21
                      A                      A                      A
 Frequencies --    558.9946               565.8783               644.0844
 Red. masses --      3.7774                 7.3973                 6.4840
 Frc consts  --      0.6954                 1.3956                 1.5848
 IR Inten    --      0.0104                 4.2374                13.0652

                     22                     23                     24
                      A                      A                      A
 Frequencies --    687.3762               703.0242               736.5005
 Red. masses --      1.5159                 5.8733                 7.4904
 Frc consts  --      0.4220                 1.7103                 2.3939
 IR Inten    --     31.7268                 2.1654                 5.9139

                     25                     26                     27
                      A                      A                      A
 Frequencies --    743.5821               757.9165               767.3460
 Red. masses --      2.4721                 1.6851                 1.6822
 Frc consts  --      0.8053                 0.5703                 0.5836
 IR Inten    --     17.5826                12.7931                86.9028

                     28                     29                     30
                      A                      A                      A
 Frequencies --    817.2072               839.0910               863.4323
 Red. masses --      6.2988                 1.9981                 1.3826
 Frc consts  --      2.4784                 0.8289                 0.6073
 IR Inten    --     15.9644                 1.4803                 1.2875

                     31                     32                     33
                      A                      A                      A
 Frequencies --    898.0794               901.8417               953.3108
 Red. masses --      5.9631                 1.4425                 1.3559
 Frc consts  --      2.8337                 0.6912                 0.7260
 IR Inten    --      2.4117                 9.3583                 0.3719

                     34                     35                     36
                      A                      A                      A
 Frequencies --    957.0401               969.5831              1003.9056
 Red. masses --      1.3513                 5.2490                 1.2949
 Frc consts  --      0.7292                 2.9074                 0.7689
 IR Inten    --      1.6693                 3.2813                 0.0012

                     37                     38                     39
                      A                      A                      A
 Frequencies --   1034.7686              1057.0845              1084.7883
 Red. masses --      2.3323                 2.2236                 2.9516
 Frc consts  --      1.4714                 1.4640                 2.0465
 IR Inten    --      1.2301                12.2412                 9.5975

                     40                     41                     42
                      A                      A                      A
 Frequencies --   1095.7791              1153.7959              1156.8655
 Red. masses --      1.8980                 1.3111                 1.2680
 Frc consts  --      1.3427                 1.0284                 0.9999
 IR Inten    --     21.1899                 7.6559                76.0901

                     43                     44                     45
                      A                      A                      A
 Frequencies --   1170.9854              1183.0223              1226.7143
 Red. masses --      1.3323                 1.1507                 3.5651
 Frc consts  --      1.0764                 0.9488                 3.1609
 IR Inten    --     40.4045                 2.6202                25.0319

                     46                     47                     48
                      A                      A                      A
 Frequencies --   1240.9919              1303.7523              1334.9772
 Red. masses --      2.2346                 1.5655                 3.0778
 Frc consts  --      2.0277                 1.5678                 3.2318
 IR Inten    --     33.0586                 5.7938                24.5974

                     49                     50                     51
                      A                      A                      A
 Frequencies --   1359.9509              1399.1992              1405.2637
 Red. masses --      2.5896                 2.2728                 6.1024
 Frc consts  --      2.8218                 2.6216                 7.1001
 IR Inten    --     26.8750                60.2075                58.9533

                     52                     53                     54
                      A                      A                      A
 Frequencies --   1447.4500              1463.7186              1511.4357
 Red. masses --      2.7966                 3.1886                 3.6727
 Frc consts  --      3.4521                 4.0250                 4.9433
 IR Inten    --     76.4306                 8.5178               100.9299

                     55                     56                     57
                      A                      A                      A
 Frequencies --   1528.3629              1546.4857              1620.8017
 Red. masses --      2.7472                 5.3637                 5.3093
 Frc consts  --      3.7808                 7.5579                 8.2177
 IR Inten    --      0.8529               189.6469                91.8980

                     58                     59                     60
                      A                      A                      A
 Frequencies --   1652.3130              1664.5439              1689.4784
 Red. masses --      9.5075                 6.9211                 7.3202
 Frc consts  --     15.2934                11.2983                12.3106
 IR Inten    --    156.5208                96.8496                29.2270

                     61                     62                     63
                      A                      A                      A
 Frequencies --   3188.3058              3206.8572              3213.9269
 Red. masses --      1.0893                 1.0861                 1.0865
 Frc consts  --      6.5240                 6.5809                 6.6123
 IR Inten    --     25.6604                 2.4061                 5.6349

                     64                     65                     66
                      A                      A                      A
 Frequencies --   3218.7667              3225.2644              3232.2785
 Red. masses --      1.0912                 1.0906                 1.0991
 Frc consts  --      6.6610                 6.6844                 6.7654
 IR Inten    --     14.6785                 1.6980                27.7518

                     67                     68                     69
                      A                      A                      A
 Frequencies --   3232.6216              3243.0267              3950.6879
 Red. masses --      1.0958                 1.0989                 1.0781
 Frc consts  --      6.7468                 6.8093                 9.9138
 IR Inten    --      5.9270                12.8484               198.8320

 - Thermochemistry -
 -------------------
 Temperature   298.150 Kelvin.  Pressure   1.00000 Atm.
 Atom     1 has atomic number  6 and mass  12.00000

 Molecular mass:   227.04049 amu.
 Principal axes and moments of inertia in atomic units:
                           1         2         3
     Eigenvalues --  1266.157486545.404087811.56142
           X           -0.70670   0.70751  -0.00000
           Y            0.70751   0.70670  -0.00002
           Z            0.00001   0.00002   1.00000
 This molecule is an asymmetric top.
 Rotational symmetry number  1.
 Warning -- assumption of classical behavior for rotation
           may cause significant error
 Rotational temperatures (Kelvin)      0.06841     0.01323     0.01109
 Rotational constants (GHZ):           1.42537     0.27573     0.23103
    2 imaginary frequencies ignored.
 Zero-point vibrational energy     489222.0 (Joules/Mol)
                                  116.92687 (Kcal/Mol)
 Warning -- explicit consideration of  18 degrees of freedom as
           vibrations may cause significant error
 Vibrational temperatures:    105.82   158.18   235.52   281.63   360.79
          (Kelvin)            378.17   420.96   478.02   493.74   538.63
                              625.32   639.95   718.62   742.99   778.17
                              782.81   804.27   814.17   926.69   988.98
                             1011.50  1059.66  1069.85  1090.47  1104.04
                             1175.78  1207.26  1242.29  1292.14  1297.55
                             1371.60  1376.97  1395.01  1444.40  1488.80
                             1520.91  1560.77  1576.58  1660.05  1664.47
                             1684.79  1702.11  1764.97  1785.51  1875.81
                             1920.73  1956.67  2013.14  2021.86  2082.56
                             2105.96  2174.62  2198.97  2225.05  2331.97
                             2377.31  2394.91  2430.78  4587.26  4613.95
                             4624.12  4631.09  4640.44  4650.53  4651.02
                             4665.99  5684.16

 Zero-point correction=                           0.186335 (Hartree/Particle)
 Thermal correction to Energy=                    0.197578
 Thermal correction to Enthalpy=                  0.198522
 Thermal correction to Gibbs Free Energy=         0.149055
 Sum of electronic and zero-point Energies=          -1028.499842
 Sum of electronic and thermal Energies=             -1028.488598
 Sum of electronic and thermal Enthalpies=           -1028.487654
 Sum of electronic and thermal Free Energies=        -1028.537121

                     E (Thermal)             CV                S
                      KCal/Mol        Cal/Mol-Kelvin    Cal/Mol-Kelvin
 Total                  123.982             46.924            104.112
 Electronic               0.000              0.000              0.000
 Translational            0.889              2.981             42.162
 Rotational               0.889              2.981             32.537
 Vibrational            122.205             40.963             29.413
 Vibration     1          0.599              1.966              4.056
 Vibration     2          0.606              1.941              3.270
 Vibration     3          0.623              1.887              2.507
 Vibration     4          0.636              1.846              2.173
 Vibration     5          0.663              1.761              1.725
 Vibration     6          0.670              1.741              1.643
 Vibration     7          0.688              1.688              1.459
 Vibration     8          0.714              1.611              1.249
 Vibration     9          0.722              1.589              1.197
 Vibration    10          0.745              1.525              1.062
 Vibration    11          0.795              1.395              0.844
 Vibration    12          0.804              1.372              0.812
 Vibration    13          0.855              1.251              0.659
 Vibration    14          0.871              1.214              0.618
 Vibration    15          0.896              1.160              0.563
 Vibration    16          0.899              1.153              0.557
 Vibration    17          0.915              1.120              0.526
 Vibration    18          0.922              1.105              0.512

                           ! Non-Optimized Parameters !
 Normal termination of Gaussian 16 at Mon Jul 13 21:23:03 2020.
