 Gaussian 16, Revision C.01,
 Gaussian 16:  ES64L-G16RevC.01  3-Jul-2019

 ----------------------------------------------------------------------
 #p opt=addgic freq td wb97xd/cc-pvdz nosymm int=ultrafine scrf=(solven
 t=CarbonTetraChloride)
 ----------------------------------------------------------------------

 ------------------------------------------------
 NM 2D-scan of HBT TD-WB97XD pVDZ in CTC Relaxed.
 ------------------------------------------------
 Symbolic Z-matrix:
 Charge =  0 Multiplicity = 1

 SCF Done:  E(RwB97XD) =  -1028.26426377     A.U. after   15 cycles
 Total Energy, E(TD-HF/TD-DFT) =  -1028.13337184
 SCF Done:  E(RwB97XD) =  -1028.67192801     A.U. after   13 cycles
 Total Energy, E(TD-HF/TD-DFT) =  -1028.54255916
 SCF Done:  E(RwB97XD) =  -1028.80015000     A.U. after   15 cycles
 Total Energy, E(TD-HF/TD-DFT) =  -1028.67446061
 SCF Done:  E(RwB97XD) =  -1028.80370544     A.U. after   13 cycles
 Total Energy, E(TD-HF/TD-DFT) =  -1028.67732130
 SCF Done:  E(RwB97XD) =  -1028.80429980     A.U. after   11 cycles
 Total Energy, E(TD-HF/TD-DFT) =  -1028.67758025
 SCF Done:  E(RwB97XD) =  -1028.80450266     A.U. after   11 cycles
 Total Energy, E(TD-HF/TD-DFT) =  -1028.67761235
 SCF Done:  E(RwB97XD) =  -1028.80451953     A.U. after    9 cycles
 Total Energy, E(TD-HF/TD-DFT) =  -1028.67761651
 Optimization completed.
    -- Stationary point found.
 Normal termination of Gaussian 16 at Mon Jul 13 20:31:33 2020.

 ----------------------------------------------------------------------
 #P Geom=AllCheck Guess=TCheck SCRF=Check GenChk RwB97XD TD(FC,Read)/CC
 -pVDZ Freq
 ----------------------------------------------------------------------

 Structure from the checkpoint file:  "config_1_3.chk"
 ------------------------------------------------
 NM 2D-scan of HBT TD-WB97XD pVDZ in CTC Relaxed.
 ------------------------------------------------
 Charge =  0 Multiplicity = 1

                          Input orientation:
 ---------------------------------------------------------------------
 Center     Atomic      Atomic             Coordinates (Angstroms)
 Number     Number       Type             X           Y           Z
 ---------------------------------------------------------------------
      1          6           0        1.740991   -3.324696   -0.000015
      2          6           0        0.959426   -2.164102   -0.000019
      3          6           0        1.623553   -0.884499   -0.000020
      4          6           0        3.042187   -0.791387   -0.000011
      5          6           0        3.785524   -1.941808   -0.000007
      6          6           0        3.138118   -3.201353   -0.000010
      7          1           0        1.285901   -4.316299   -0.000014
      8          1           0        3.489881    0.202884   -0.000009
      9          1           0        4.875826   -1.895387   -0.000001
     10          1           0        3.743649   -4.109431   -0.000007
     11          7           0        0.876627    0.204767   -0.000027
     12         16           0       -0.787422   -1.895389   -0.000024
     13          6           0       -1.371524    1.022328   -0.000032
     14          6           0       -2.804732    0.901728   -0.000040
     15          6           0       -0.892977    2.438604    0.000001
     16          6           0       -3.639402    2.003131    0.000027
     17          1           0       -3.240251   -0.099292   -0.000088
     18          6           0       -1.774252    3.520556    0.000087
     19          6           0       -3.138459    3.329642    0.000105
     20          1           0       -4.719257    1.845826    0.000026
     21          1           0       -1.320627    4.511874    0.000125
     22          1           0       -3.818210    4.181910    0.000168
     23          6           0       -0.453204   -0.058223   -0.000032
     24          8           0        0.374071    2.858865   -0.000037
     25          1           0        0.972009    2.096548   -0.000045
 ---------------------------------------------------------------------

 SCF Done:  E(RwB97XD) =  -1028.80451953     A.U. after    1 cycles

 Excitation energies and oscillator strengths:

 Excited state symmetry could not be determined.
 Excited State   1:      Singlet-?Sym    3.4532 eV  359.04 nm  f=0.7519  <S**2>=0.000
      59 -> 60        -0.69071
 This state for optimization and/or second-order correction.
 Total Energy, E(TD-HF/TD-DFT) =  -1028.67761652
 Copying the excited state density for this state as the 1-particle RhoCI density.

 Excited state symmetry could not be determined.
 Excited State   2:      Singlet-?Sym    4.3718 eV  283.60 nm  f=0.1655  <S**2>=0.000
      57 -> 60        -0.31892
      58 -> 60        -0.57438
      58 -> 64        -0.10520
      59 -> 63         0.16164

 Excited state symmetry could not be determined.
 Excited State   3:      Singlet-?Sym    4.5039 eV  275.28 nm  f=0.0627  <S**2>=0.000
      57 -> 60         0.53698
      57 -> 64        -0.13707
      58 -> 60        -0.30414
      58 -> 61        -0.10499
      59 -> 61         0.24311

 Alpha  occ. eigenvalues --  -89.09113 -19.29359 -14.46598 -10.39965 -10.38568
 Alpha  occ. eigenvalues --  -10.34998 -10.34465 -10.33625 -10.32394 -10.32290
 Alpha  occ. eigenvalues --  -10.31848 -10.31418 -10.31121 -10.31043 -10.30555
 Alpha  occ. eigenvalues --  -10.30216  -8.10858  -6.05731  -6.05399  -6.04901
 Alpha  occ. eigenvalues --   -1.17579  -1.07962  -0.96554  -0.95411  -0.90949
 Alpha  occ. eigenvalues --   -0.88715  -0.85109  -0.84115  -0.82136  -0.76042
 Alpha  occ. eigenvalues --   -0.71127  -0.70087  -0.69112  -0.68040  -0.63216
 Alpha  occ. eigenvalues --   -0.59838  -0.58900  -0.58253  -0.55883  -0.54377
 Alpha  occ. eigenvalues --   -0.53227  -0.53026  -0.52447  -0.50859  -0.50458
 Alpha  occ. eigenvalues --   -0.48854  -0.48109  -0.45729  -0.45387  -0.44645
 Alpha  occ. eigenvalues --   -0.43573  -0.42876  -0.42025  -0.39732  -0.37490
 Alpha  occ. eigenvalues --   -0.36353  -0.32030  -0.31571  -0.27795
 Alpha virt. eigenvalues --   -0.01940   0.05277   0.06636   0.06819   0.07115
 Alpha virt. eigenvalues --    0.11397   0.12163   0.15075   0.15652   0.17469
 Alpha virt. eigenvalues --    0.18567   0.20239   0.21688   0.22218   0.22792

 Mulliken charges:
               1
     1  C    0.000947
     2  C   -0.210010
     3  C    0.219376
     4  C   -0.014148
     5  C    0.010514
     6  C   -0.011849
     7  H    0.019945
     8  H    0.012825
     9  H    0.017201
    10  H    0.020215
    11  N   -0.321780
    12  S    0.135331
    13  C   -0.088030
    14  C   -0.012251
    15  C    0.078609
    16  C   -0.011008
    17  H    0.011792
    18  C    0.023871
    19  C    0.018660
    20  H    0.012815
    21  H    0.020256
    22  H    0.022286
    23  C    0.063580
    24  O   -0.173895
    25  H    0.154751
 Sum of Mulliken charges =  -0.00000

 Dipole moment (field-independent basis, Debye):
    X=             -0.2504    Y=             -1.2631    Z=              0.0001  Tot=              1.2877
 Quadrupole moment (field-independent basis, Debye-Ang):
   XX=            -83.0128   YY=            -88.7400   ZZ=           -104.6661
   XY=             -6.4718   XZ=             -0.0001   YZ=              0.0005

  Exact polarizability:     413.195    -203.678     408.416      -0.002       0.004      63.723
 Approx polarizability:     284.188     -37.748     267.217      -0.001       0.003      82.603

                      1                      2                      3
                      A                      A                      A
 Frequencies --     12.4484                67.8139                97.5822
 Red. masses --      5.8000                 5.8314                 5.5644
 Frc consts  --      0.0005                 0.0158                 0.0312
 IR Inten    --      0.8540                 0.0013                 2.0224

                      4                      5                      6
                      A                      A                      A
 Frequencies --    107.0247               183.6185               224.8170
 Red. masses --      4.5705                 6.8149                 5.4845
 Frc consts  --      0.0308                 0.1354                 0.1633
 IR Inten    --      0.6243                 0.4490                 0.0007

                      7                      8                      9
                      A                      A                      A
 Frequencies --    240.5057               264.1827               271.0656
 Red. masses --      8.1421                 4.7636                 6.4073
 Frc consts  --      0.2775                 0.1959                 0.2774
 IR Inten    --      9.4894                 0.3355                17.4580

                     10                     11                     12
                      A                      A                      A
 Frequencies --    381.8857               399.0519               437.1225
 Red. masses --      8.3214                 4.7233                 3.2968
 Frc consts  --      0.7150                 0.4432                 0.3711
 IR Inten    --     13.6677                 0.1725                 4.8580

                     13                     14                     15
                      A                      A                      A
 Frequencies --    463.0425               492.5207               494.0234
 Red. masses --      4.5933                 4.2218                 9.2967
 Frc consts  --      0.5803                 0.6034                 1.3368
 IR Inten    --     12.0063                 0.3606                 2.6519

                     16                     17                     18
                      A                      A                      A
 Frequencies --    507.9646               521.9123               540.2946
 Red. masses --      3.1234                 8.3106                 3.5530
 Frc consts  --      0.4748                 1.3338                 0.6111
 IR Inten    --      0.9071                27.6286                 2.7324

                     19                     20                     21
                      A                      A                      A
 Frequencies --    577.6038               624.9401               645.7314
 Red. masses --      7.8360                 7.7561                 6.8617
 Frc consts  --      1.5403                 1.7847                 1.6857
 IR Inten    --    102.6177                46.2033                 0.3581

                     22                     23                     24
                      A                      A                      A
 Frequencies --    647.3512               696.4957               728.9947
 Red. masses --      1.1373                 6.7395                 1.9534
 Frc consts  --      0.2808                 1.9263                 0.6116
 IR Inten    --    112.8973                 7.9087                17.6295

                     25                     26                     27
                      A                      A                      A
 Frequencies --    732.1132               746.7279               771.7695
 Red. masses --      2.4316                 1.5248                 2.0424
 Frc consts  --      0.7679                 0.5009                 0.7167
 IR Inten    --     10.0431                32.4898                59.9095

                     28                     29                     30
                      A                      A                      A
 Frequencies --    787.0075               833.2617               856.8480
 Red. masses --      6.9876                 1.5190                 1.4411
 Frc consts  --      2.5500                 0.6214                 0.6234
 IR Inten    --     20.7968                 0.0588                 1.5335

                     31                     32                     33
                      A                      A                      A
 Frequencies --    882.5092               932.1234               933.5804
 Red. masses --      6.3093                 7.0223                 1.3396
 Frc consts  --      2.8952                 3.5948                 0.6879
 IR Inten    --     51.2832                10.6698                 3.1243

                     34                     35                     36
                      A                      A                      A
 Frequencies --    952.0614               971.4551               998.2818
 Red. masses --      1.3453                 1.3350                 1.3029
 Frc consts  --      0.7184                 0.7423                 0.7650
 IR Inten    --      1.9600                 0.0050                 0.0222

                     37                     38                     39
                      A                      A                      A
 Frequencies --   1032.1071              1040.1748              1060.4761
 Red. masses --      2.1792                 2.3317                 5.1743
 Frc consts  --      1.3677                 1.4864                 3.4285
 IR Inten    --      1.9002                 7.4084                19.7413

                     40                     41                     42
                      A                      A                      A
 Frequencies --   1127.8174              1145.8905              1173.3225
 Red. masses --      1.6256                 1.2922                 1.1887
 Frc consts  --      1.2183                 0.9997                 0.9642
 IR Inten    --     18.9264                17.0843                41.5559

                     43                     44                     45
                      A                      A                      A
 Frequencies --   1177.2116              1203.5682              1219.5248
 Red. masses --      1.1802                 1.7174                 2.7250
 Frc consts  --      0.9636                 1.4657                 2.3878
 IR Inten    --      0.4908               240.7830                 6.0929

                     46                     47                     48
                      A                      A                      A
 Frequencies --   1242.7715              1271.2272              1347.5376
 Red. masses --      2.3707                 1.6299                 2.8682
 Frc consts  --      2.1573                 1.5519                 3.0686
 IR Inten    --    236.8670                 4.3815               111.1016

                     49                     50                     51
                      A                      A                      A
 Frequencies --   1361.0596              1383.3524              1412.5360
 Red. masses --      5.2892                 2.0778                 2.1835
 Frc consts  --      5.7729                 2.3427                 2.5669
 IR Inten    --     24.8157               316.1601                69.1466

                     52                     53                     54
                      A                      A                      A
 Frequencies --   1448.6337              1467.9279              1520.3565
 Red. masses --      2.2610                 2.9658                 4.8477
 Frc consts  --      2.7955                 3.7653                 6.6020
 IR Inten    --     36.7581                18.3846                66.0160

                     55                     56                     57
                      A                      A                      A
 Frequencies --   1533.3013              1544.5998              1564.2654
 Red. masses --      5.7054                 5.4510                 4.5070
 Frc consts  --      7.9029                 7.6623                 6.4977
 IR Inten    --    650.3117                25.0801                18.4854

                     58                     59                     60
                      A                      A                      A
 Frequencies --   1593.1822              1644.7618              1657.0121
 Red. masses --      5.9672                 5.5991                 5.9590
 Frc consts  --      8.9238                 8.9243                 9.6399
 IR Inten    --     80.4178               295.6872               232.2004

                     61                     62                     63
                      A                      A                      A
 Frequencies --   3202.1836              3206.8328              3215.2275
 Red. masses --      1.0869                 1.0858                 1.0896
 Frc consts  --      6.5662                 6.5789                 6.6363
 IR Inten    --      1.9524                 4.7378                 4.4742

                     64                     65                     66
                      A                      A                      A
 Frequencies --   3217.2545              3225.7107              3225.9587
 Red. masses --      1.0895                 1.0951                 1.0932
 Frc consts  --      6.6445                 6.7133                 6.7030
 IR Inten    --      3.1526                16.9903                19.8731

                     67                     68                     69
                      A                      A                      A
 Frequencies --   3234.5941              3239.1293              3660.8140
 Red. masses --      1.1000                 1.0995                 1.0667
 Frc consts  --      6.7810                 6.7965                 8.4227
 IR Inten    --     39.2999                26.7825                 0.0201

 - Thermochemistry -
 -------------------
 Temperature   298.150 Kelvin.  Pressure   1.00000 Atm.
 Atom     1 has atomic number  6 and mass  12.00000

 Molecular mass:   227.04049 amu.
 Principal axes and moments of inertia in atomic units:
                           1         2         3
     Eigenvalues --  1401.692086414.118077815.81015
           X           -0.68929   0.72449   0.00000
           Y            0.72449   0.68929  -0.00001
           Z            0.00001   0.00000   1.00000
 This molecule is an asymmetric top.
 Rotational symmetry number  1.
 Warning -- assumption of classical behavior for rotation
           may cause significant error
 Rotational temperatures (Kelvin)      0.06179     0.01350     0.01108
 Rotational constants (GHZ):           1.28754     0.28137     0.23091
 Zero-point vibrational energy     488232.2 (Joules/Mol)
                                  116.69031 (Kcal/Mol)
 Warning -- explicit consideration of  19 degrees of freedom as
           vibrations may cause significant error
 Vibrational temperatures:     17.91    97.57   140.40   153.98   264.19
          (Kelvin)            323.46   346.03   380.10   390.00   549.45
                              574.15   628.92   666.21   708.63   710.79
                              730.85   750.92   777.36   831.04   899.15
                              929.06   931.39  1002.10  1048.86  1053.35
                             1074.37  1110.40  1132.33  1198.88  1232.81
                             1269.73  1341.12  1343.21  1369.80  1397.71
                             1436.30  1484.97  1496.58  1525.79  1622.68
                             1648.68  1688.15  1693.74  1731.67  1754.62
                             1788.07  1829.01  1938.81  1958.26  1990.34
                             2032.32  2084.26  2112.02  2187.45  2206.08
                             2222.33  2250.63  2292.23  2366.45  2384.07
                             4607.23  4613.92  4626.00  4628.91  4641.08
                             4641.44  4653.86  4660.38  5267.09

 Zero-point correction=                           0.185958 (Hartree/Particle)
 Thermal correction to Energy=                    0.198628
 Thermal correction to Enthalpy=                  0.199572
 Thermal correction to Gibbs Free Energy=         0.145221
 Sum of electronic and zero-point Energies=          -1028.491659
 Sum of electronic and thermal Energies=             -1028.478989
 Sum of electronic and thermal Enthalpies=           -1028.478044
 Sum of electronic and thermal Free Energies=        -1028.532395

                     E (Thermal)             CV                S
                      KCal/Mol        Cal/Mol-Kelvin    Cal/Mol-Kelvin
 Total                  124.641             50.498            114.391
 Electronic               0.000              0.000              0.000
 Translational            0.889              2.981             42.162
 Rotational               0.889              2.981             32.619
 Vibrational            122.863             44.536             39.610
 Vibration     1          0.593              1.987              7.576
 Vibration     2          0.598              1.970              4.216
 Vibration     3          0.603              1.951              3.502
 Vibration     4          0.606              1.944              3.322
 Vibration     5          0.631              1.862              2.291
 Vibration     6          0.649              1.803              1.920
 Vibration     7          0.658              1.778              1.799
 Vibration     8          0.671              1.739              1.634
 Vibration     9          0.675              1.727              1.589
 Vibration    10          0.751              1.509              1.032
 Vibration    11          0.765              1.472              0.966
 Vibration    12          0.797              1.389              0.836
 Vibration    13          0.821              1.332              0.757
 Vibration    14          0.848              1.267              0.677
 Vibration    15          0.850              1.263              0.673
 Vibration    16          0.863              1.232              0.639
 Vibration    17          0.877              1.201              0.606
 Vibration    18          0.895              1.161              0.565
 Vibration    19          0.934              1.080              0.490

 Optimization completed.
    -- Stationary point found.
 Normal termination of Gaussian 16 at Mon Jul 13 20:49:23 2020.
