 Gaussian 16, Revision C.01,
 Gaussian 16:  ES64L-G16RevC.01  3-Jul-2019

 ----------------------------------------------------------------------
 #p opt=addgic freq td wb97xd/cc-pvdz nosymm int=ultrafine scrf=(solven
 t=CarbonTetraChloride)
 ----------------------------------------------------------------------

 ------------------------------------------------
 NM 2D-scan of HBT TD-WB97XD pVDZ in CTC Relaxed.
 ------------------------------------------------
 Symbolic Z-matrix:
 Charge =  0 Multiplicity = 1

 SCF Done:  E(RwB97XD) =  -1028.79204964     A.U. after   15 cycles
 Total Energy, E(TD-HF/TD-DFT) =  -1028.66058637
 SCF Done:  E(RwB97XD) =  -1028.81948903     A.U. after   13 cycles
 Total Energy, E(TD-HF/TD-DFT) =  -1028.69036018
 SCF Done:  E(RwB97XD) =  -1028.81960177     A.U. after   13 cycles
 Total Energy, E(TD-HF/TD-DFT) =  -1028.69222762
 SCF Done:  E(RwB97XD) =  -1028.82007710     A.U. after   11 cycles
 Total Energy, E(TD-HF/TD-DFT) =  -1028.69240432
 SCF Done:  E(RwB97XD) =  -1028.82015015     A.U. after   10 cycles
 Total Energy, E(TD-HF/TD-DFT) =  -1028.69248543
 SCF Done:  E(RwB97XD) =  -1028.82018074     A.U. after    9 cycles
 Total Energy, E(TD-HF/TD-DFT) =  -1028.69248707
 Optimization completed.
    -- Stationary point found.
 Normal termination of Gaussian 16 at Mon Jul 13 17:33:11 2020.

 ----------------------------------------------------------------------
 #P Geom=AllCheck Guess=TCheck SCRF=Check GenChk RwB97XD TD(FC,Read)/CC
 -pVDZ Freq
 ----------------------------------------------------------------------

 Structure from the checkpoint file:  "config_3_9.chk"
 ------------------------------------------------
 NM 2D-scan of HBT TD-WB97XD pVDZ in CTC Relaxed.
 ------------------------------------------------
 Charge =  0 Multiplicity = 1

                          Input orientation:
 ---------------------------------------------------------------------
 Center     Atomic      Atomic             Coordinates (Angstroms)
 Number     Number       Type             X           Y           Z
 ---------------------------------------------------------------------
      1          6           0        1.649768   -3.289904   -0.000014
      2          6           0        0.977535   -2.069282    0.000003
      3          6           0        1.699105   -0.828641   -0.000017
      4          6           0        3.118219   -0.851717   -0.000052
      5          6           0        3.767161   -2.067897   -0.000067
      6          6           0        3.045387   -3.281520   -0.000048
      7          1           0        1.101181   -4.232648    0.000000
      8          1           0        3.661915    0.093541   -0.000066
      9          1           0        4.858288   -2.096900   -0.000095
     10          1           0        3.585974   -4.229163   -0.000062
     11          7           0        0.954602    0.281405    0.000002
     12         16           0       -0.746262   -1.748608    0.000041
     13          6           0       -1.346802    1.039446    0.000041
     14          6           0       -2.753622    0.823118    0.000016
     15          6           0       -0.903668    2.450332    0.000052
     16          6           0       -3.643614    1.885997   -0.000004
     17          1           0       -3.132140   -0.200520    0.000002
     18          6           0       -1.834281    3.497272    0.000029
     19          6           0       -3.195546    3.228285    0.000000
     20          1           0       -4.715500    1.681696   -0.000027
     21          1           0       -1.443034    4.515018    0.000041
     22          1           0       -3.916665    4.046055   -0.000016
     23          6           0       -0.379874    0.012317    0.000039
     24          8           0        0.371816    2.772564    0.000111
     25          1           0        0.904594    1.911859    0.000193
 ---------------------------------------------------------------------

 SCF Done:  E(RwB97XD) =  -1028.82018074     A.U. after    1 cycles

 Excitation energies and oscillator strengths:

 Excited state symmetry could not be determined.
 Excited State   1:      Singlet-?Sym    3.4747 eV  356.82 nm  f=0.6940  <S**2>=0.000
      59 -> 60         0.68938
 This state for optimization and/or second-order correction.
 Total Energy, E(TD-HF/TD-DFT) =  -1028.69248708
 Copying the excited state density for this state as the 1-particle RhoCI density.

 Excited state symmetry could not be determined.
 Excited State   2:      Singlet-?Sym    4.3892 eV  282.47 nm  f=0.2112  <S**2>=0.000
      57 -> 60        -0.26744
      58 -> 60        -0.60531
      59 -> 62         0.15175

 Excited state symmetry could not be determined.
 Excited State   3:      Singlet-?Sym    4.5849 eV  270.42 nm  f=0.0622  <S**2>=0.000
      57 -> 60         0.56065
      57 -> 62         0.11991
      58 -> 60        -0.25770
      58 -> 61        -0.12288
      59 -> 61         0.23369

 Alpha  occ. eigenvalues --  -89.09065 -19.28407 -14.47066 -10.39852 -10.38174
 Alpha  occ. eigenvalues --  -10.34958 -10.34818 -10.32715 -10.32327 -10.32201
 Alpha  occ. eigenvalues --  -10.31964 -10.31412 -10.31380 -10.31268 -10.30481
 Alpha  occ. eigenvalues --  -10.30312  -8.10981  -6.05833  -6.05495  -6.05037
 Alpha  occ. eigenvalues --   -1.17149  -1.08275  -0.96692  -0.95644  -0.91698
 Alpha  occ. eigenvalues --   -0.88803  -0.84943  -0.84447  -0.82314  -0.75972
 Alpha  occ. eigenvalues --   -0.71093  -0.70154  -0.69134  -0.68278  -0.63434
 Alpha  occ. eigenvalues --   -0.60335  -0.58888  -0.58583  -0.55898  -0.54418
 Alpha  occ. eigenvalues --   -0.53723  -0.53117  -0.52872  -0.50850  -0.50419
 Alpha  occ. eigenvalues --   -0.49325  -0.47803  -0.45883  -0.45560  -0.44743
 Alpha  occ. eigenvalues --   -0.43867  -0.42899  -0.42275  -0.39993  -0.37353
 Alpha  occ. eigenvalues --   -0.36447  -0.32125  -0.31471  -0.27986
 Alpha virt. eigenvalues --   -0.01823   0.05149   0.06989   0.07133   0.07358
 Alpha virt. eigenvalues --    0.11142   0.13656   0.15145   0.16163   0.17998
 Alpha virt. eigenvalues --    0.18566   0.20955   0.21663   0.22337   0.22726

 Mulliken charges:
               1
     1  C    0.012373
     2  C   -0.221542
     3  C    0.229608
     4  C   -0.016659
     5  C    0.008265
     6  C   -0.007541
     7  H    0.018200
     8  H    0.016514
     9  H    0.018523
    10  H    0.020376
    11  N   -0.357123
    12  S    0.154910
    13  C   -0.087562
    14  C   -0.019122
    15  C    0.085900
    16  C   -0.012867
    17  H    0.014537
    18  C    0.010584
    19  C    0.022200
    20  H    0.011451
    21  H    0.018922
    22  H    0.022712
    23  C    0.082511
    24  O   -0.200483
    25  H    0.175313
 Sum of Mulliken charges =  -0.00000

 Dipole moment (field-independent basis, Debye):
    X=             -0.4309    Y=             -1.9597    Z=              0.0001  Tot=              2.0065
 Quadrupole moment (field-independent basis, Debye-Ang):
   XX=            -83.2311   YY=            -89.2301   ZZ=           -104.4193
   XY=             -6.9445   XZ=              0.0001   YZ=              0.0001

  Exact polarizability:     401.886    -191.551     384.642      -0.003       0.003      63.443
 Approx polarizability:     279.273     -36.596     261.904      -0.001       0.001      82.420

                      1                      2                      3
                      A                      A                      A
 Frequencies --     41.2705                64.3927               110.0146
 Red. masses --      6.0170                 5.9154                 4.8052
 Frc consts  --      0.0060                 0.0145                 0.0343
 IR Inten    --      1.4144                 0.0165                 0.2330

                      4                      5                      6
                      A                      A                      A
 Frequencies --    114.2143               180.8323               223.3312
 Red. masses --      5.6450                 6.5576                 5.3965
 Frc consts  --      0.0434                 0.1263                 0.1586
 IR Inten    --      1.9916                 1.0940                 0.0001

                      7                      8                      9
                      A                      A                      A
 Frequencies --    267.3226               269.8620               305.0507
 Red. masses --      7.7384                 4.8291                 6.7684
 Frc consts  --      0.3258                 0.2072                 0.3711
 IR Inten    --     25.1245                 0.1050                 5.1214

                     10                     11                     12
                      A                      A                      A
 Frequencies --    391.4183               399.2924               438.7749
 Red. masses --      4.6371                 9.1794                 3.2828
 Frc consts  --      0.4186                 0.8623                 0.3724
 IR Inten    --      0.1234                12.9111                 4.2384

                     13                     14                     15
                      A                      A                      A
 Frequencies --    491.7015               498.3593               504.7056
 Red. masses --      4.5291                 7.7234                 3.1512
 Frc consts  --      0.6452                 1.1302                 0.4729
 IR Inten    --      0.1964                 7.9464                 0.0285

                     16                     17                     18
                      A                      A                      A
 Frequencies --    514.6492               526.2538               551.6963
 Red. masses --      5.2242                 7.8492                 3.9874
 Frc consts  --      0.8153                 1.2808                 0.7151
 IR Inten    --     34.9918                16.2700                 0.1290

                     19                     20                     21
                      A                      A                      A
 Frequencies --    578.3720               642.4642               686.4552
 Red. masses --      7.6663                 6.6251                 9.1741
 Frc consts  --      1.5110                 1.6112                 2.5470
 IR Inten    --     40.1522                38.6449                30.2199

                     22                     23                     24
                      A                      A                      A
 Frequencies --    712.8625               716.6171               736.7409
 Red. masses --      7.2310                 1.7611                 1.9023
 Frc consts  --      2.1650                 0.5328                 0.6084
 IR Inten    --     16.0946                45.7712                31.4104

                     25                     26                     27
                      A                      A                      A
 Frequencies --    749.7493               771.9930               811.3530
 Red. masses --      1.8791                 2.0457                 6.4152
 Frc consts  --      0.6223                 0.7183                 2.4882
 IR Inten    --     26.2110                53.0479                17.3768

                     28                     29                     30
                      A                      A                      A
 Frequencies --    821.1060               860.7797               890.4557
 Red. masses --      1.6403                 1.4206                 6.4142
 Frc consts  --      0.6516                 0.6202                 2.9965
 IR Inten    --      1.2041                 0.6820                55.6533

                     31                     32                     33
                      A                      A                      A
 Frequencies --    919.1267               954.5505               959.6727
 Red. masses --      1.3416                 1.3415                 7.2113
 Frc consts  --      0.6678                 0.7202                 3.9130
 IR Inten    --      9.9216                 1.5994                 5.2619

                     34                     35                     36
                      A                      A                      A
 Frequencies --    966.1193               968.4733              1000.2092
 Red. masses --      1.2355                 1.1589                 1.2993
 Frc consts  --      0.6795                 0.6404                 0.7659
 IR Inten    --     24.7750                39.0687                 0.0321

                     37                     38                     39
                      A                      A                      A
 Frequencies --   1039.1934              1041.1564              1075.9493
 Red. masses --      2.1897                 2.1192                 4.7925
 Frc consts  --      1.3933                 1.3535                 3.2689
 IR Inten    --      2.4461                 0.7698                46.2937

                     40                     41                     42
                      A                      A                      A
 Frequencies --   1135.3904              1148.4681              1176.1566
 Red. masses --      1.4609                 1.3174                 1.1399
 Frc consts  --      1.1096                 1.0238                 0.9290
 IR Inten    --     61.0908                14.8357                 3.0321

                     43                     44                     45
                      A                      A                      A
 Frequencies --   1179.4227              1228.3362              1240.8940
 Red. masses --      1.1909                 5.3917                 1.7363
 Frc consts  --      0.9760                 4.7931                 1.5752
 IR Inten    --     39.9648                43.6412               179.0716

                     46                     47                     48
                      A                      A                      A
 Frequencies --   1279.9156              1312.4515              1364.1478
 Red. masses --      1.6572                 3.3358                 2.7952
 Frc consts  --      1.5995                 3.3854                 3.0647
 IR Inten    --      4.5107               329.2323                39.3918

                     49                     50                     51
                      A                      A                      A
 Frequencies --   1374.4242              1402.1288              1441.2375
 Red. masses --      5.8527                 1.9895                 2.5758
 Frc consts  --      6.5140                 2.3045                 3.1523
 IR Inten    --     41.3566                 3.4676               173.2371

                     52                     53                     54
                      A                      A                      A
 Frequencies --   1475.2625              1505.1836              1519.6201
 Red. masses --      3.4246                 3.5760                 3.1810
 Frc consts  --      4.3913                 4.7734                 4.3280
 IR Inten    --     74.5798               112.6312               124.8927

                     55                     56                     57
                      A                      A                      A
 Frequencies --   1538.8201              1562.0772              1595.4730
 Red. masses --      4.5377                 6.9632                 3.8297
 Frc consts  --      6.3309                10.0108                 5.7437
 IR Inten    --     10.1350               492.1736               363.6634

                     58                     59                     60
                      A                      A                      A
 Frequencies --   1614.4241              1624.3974              1650.9913
 Red. masses --      2.1679                 5.2211                 5.2307
 Frc consts  --      3.3291                 8.1170                 8.4004
 IR Inten    --    167.1721               450.4564               158.9065

                     61                     62                     63
                      A                      A                      A
 Frequencies --   2856.3767              3207.3311              3207.8800
 Red. masses --      1.0778                 1.0867                 1.0863
 Frc consts  --      5.1808                 6.5864                 6.5862
 IR Inten    --     84.1774                 5.9063                 8.3249

                     64                     65                     66
                      A                      A                      A
 Frequencies --   3218.8656              3219.4581              3227.5966
 Red. masses --      1.0899                 1.0887                 1.0941
 Frc consts  --      6.6534                 6.6487                 6.7151
 IR Inten    --      3.4450                 1.0854                16.6605

                     67                     68                     69
                      A                      A                      A
 Frequencies --   3231.0292              3236.9553              3239.5571
 Red. masses --      1.0954                 1.0990                 1.0987
 Frc consts  --      6.7374                 6.7844                 6.7938
 IR Inten    --     11.8976                41.9803                24.6950

 - Thermochemistry -
 -------------------
 Temperature   298.150 Kelvin.  Pressure   1.00000 Atm.
 Atom     1 has atomic number  6 and mass  12.00000

 Molecular mass:   227.04049 amu.
 Principal axes and moments of inertia in atomic units:
                           1         2         3
     Eigenvalues --  1334.531426346.317457680.84887
           X           -0.69852   0.71559   0.00001
           Y            0.71559   0.69852  -0.00001
           Z            0.00001   0.00000   1.00000
 This molecule is an asymmetric top.
 Rotational symmetry number  1.
 Warning -- assumption of classical behavior for rotation
           may cause significant error
 Rotational temperatures (Kelvin)      0.06490     0.01365     0.01128
 Rotational constants (GHZ):           1.35234     0.28438     0.23497
 Zero-point vibrational energy     489337.3 (Joules/Mol)
                                  116.95443 (Kcal/Mol)
 Warning -- explicit consideration of  19 degrees of freedom as
           vibrations may cause significant error
 Vibrational temperatures:     59.38    92.65   158.29   164.33   260.18
          (Kelvin)            321.32   384.62   388.27   438.90   563.16
                              574.49   631.30   707.45   717.03   726.16
                              740.47   757.16   793.77   832.15   924.36
                              987.66  1025.65  1031.05  1060.01  1078.72
                             1110.73  1167.36  1181.39  1238.47  1281.17
                             1322.42  1373.39  1380.75  1390.03  1393.42
                             1439.08  1495.17  1497.99  1548.05  1633.57
                             1652.39  1692.23  1696.93  1767.30  1785.37
                             1841.51  1888.32  1962.70  1977.49  2017.35
                             2073.62  2122.57  2165.62  2186.39  2214.02
                             2247.48  2295.53  2322.80  2337.15  2375.41
                             4109.69  4614.63  4615.42  4631.23  4632.08
                             4643.79  4648.73  4657.26  4661.00

 Zero-point correction=                           0.186379 (Hartree/Particle)
 Thermal correction to Energy=                    0.198663
 Thermal correction to Enthalpy=                  0.199607
 Thermal correction to Gibbs Free Energy=         0.147031
 Sum of electronic and zero-point Energies=          -1028.506108
 Sum of electronic and thermal Energies=             -1028.493824
 Sum of electronic and thermal Enthalpies=           -1028.492880
 Sum of electronic and thermal Free Energies=        -1028.545456

                     E (Thermal)             CV                S
                      KCal/Mol        Cal/Mol-Kelvin    Cal/Mol-Kelvin
 Total                  124.663             49.318            110.656
 Electronic               0.000              0.000              0.000
 Translational            0.889              2.981             42.162
 Rotational               0.889              2.981             32.542
 Vibrational            122.885             43.356             35.951
 Vibration     1          0.594              1.981              5.197
 Vibration     2          0.597              1.971              4.318
 Vibration     3          0.606              1.941              3.269
 Vibration     4          0.607              1.938              3.196
 Vibration     5          0.630              1.866              2.320
 Vibration     6          0.649              1.806              1.932
 Vibration     7          0.672              1.733              1.613
 Vibration     8          0.674              1.729              1.597
 Vibration     9          0.696              1.664              1.389
 Vibration    10          0.759              1.489              0.995
 Vibration    11          0.765              1.472              0.965
 Vibration    12          0.799              1.386              0.830
 Vibration    13          0.847              1.268              0.679
 Vibration    14          0.854              1.254              0.662
 Vibration    15          0.860              1.240              0.646
 Vibration    16          0.870              1.218              0.622
 Vibration    17          0.881              1.192              0.596
 Vibration    18          0.907              1.136              0.541
 Vibration    19          0.935              1.078              0.488

 Optimization completed.
    -- Stationary point found.
 Normal termination of Gaussian 16 at Mon Jul 13 17:50:54 2020.
