 Gaussian 16, Revision C.01,
 Gaussian 16:  ES64L-G16RevC.01  3-Jul-2019

 ----------------------------------------------------------------------
 #p opt=addgic freq td wb97xd/cc-pvdz nosymm int=ultrafine scrf=(solven
 t=CarbonTetraChloride)
 ----------------------------------------------------------------------

 ------------------------------------------------
 NM 2D-scan of HBT TD-WB97XD pVDZ in CTC Relaxed.
 ------------------------------------------------
 Symbolic Z-matrix:
 Charge =  0 Multiplicity = 1

 SCF Done:  E(RwB97XD) =  -1028.72401908     A.U. after   15 cycles
 Total Energy, E(TD-HF/TD-DFT) =  -1028.59192895
 SCF Done:  E(RwB97XD) =  -1028.81023464     A.U. after   13 cycles
 Total Energy, E(TD-HF/TD-DFT) =  -1028.68048758
 SCF Done:  E(RwB97XD) =  -1028.79547277     A.U. after   15 cycles
 Total Energy, E(TD-HF/TD-DFT) =  -1028.67107975
 SCF Done:  E(RwB97XD) =  -1028.81828574     A.U. after   12 cycles
 Total Energy, E(TD-HF/TD-DFT) =  -1028.69118218
 SCF Done:  E(RwB97XD) =  -1028.81922192     A.U. after   11 cycles
 Total Energy, E(TD-HF/TD-DFT) =  -1028.69139181
 SCF Done:  E(RwB97XD) =  -1028.81932795     A.U. after    9 cycles
 Total Energy, E(TD-HF/TD-DFT) =  -1028.69144913
 SCF Done:  E(RwB97XD) =  -1028.81936640     A.U. after    9 cycles
 Total Energy, E(TD-HF/TD-DFT) =  -1028.69145025
 Optimization completed.
    -- Stationary point found.
 Normal termination of Gaussian 16 at Mon Jul 13 17:40:25 2020.

 ----------------------------------------------------------------------
 #P Geom=AllCheck Guess=TCheck SCRF=Check GenChk RwB97XD TD(FC,Read)/CC
 -pVDZ Freq
 ----------------------------------------------------------------------

 Structure from the checkpoint file:  "config_2_10.chk"
 ------------------------------------------------
 NM 2D-scan of HBT TD-WB97XD pVDZ in CTC Relaxed.
 ------------------------------------------------
 Charge =  0 Multiplicity = 1

                          Input orientation:
 ---------------------------------------------------------------------
 Center     Atomic      Atomic             Coordinates (Angstroms)
 Number     Number       Type             X           Y           Z
 ---------------------------------------------------------------------
      1          6           0        1.637554   -3.300631   -0.000016
      2          6           0        0.969025   -2.077072   -0.000007
      3          6           0        1.699711   -0.837692   -0.000016
      4          6           0        3.120243   -0.869197   -0.000034
      5          6           0        3.763009   -2.086678   -0.000043
      6          6           0        3.033381   -3.297400   -0.000034
      7          1           0        1.086362   -4.241885   -0.000009
      8          1           0        3.666564    0.074516   -0.000040
      9          1           0        4.853924   -2.122088   -0.000056
     10          1           0        3.569650   -4.247572   -0.000041
     11          7           0        0.973447    0.281736   -0.000006
     12         16           0       -0.750444   -1.742714    0.000011
     13          6           0       -1.330981    1.049299    0.000019
     14          6           0       -2.740395    0.817239    0.000006
     15          6           0       -0.912497    2.467416    0.000037
     16          6           0       -3.643021    1.865176    0.000012
     17          1           0       -3.105548   -0.211294   -0.000011
     18          6           0       -1.855504    3.499359    0.000044
     19          6           0       -3.212190    3.213763    0.000032
     20          1           0       -4.712153    1.647138    0.000001
     21          1           0       -1.476488    4.521693    0.000061
     22          1           0       -3.943305    4.022661    0.000038
     23          6           0       -0.363509    0.024948    0.000012
     24          8           0        0.357595    2.833623    0.000063
     25          1           0        0.917951    2.010999    0.000087
 ---------------------------------------------------------------------

 SCF Done:  E(RwB97XD) =  -1028.81936640     A.U. after    1 cycles

 Excitation energies and oscillator strengths:

 Excited state symmetry could not be determined.
 Excited State   1:      Singlet-?Sym    3.4808 eV  356.20 nm  f=0.7273  <S**2>=0.000
      59 -> 60         0.68936
 This state for optimization and/or second-order correction.
 Total Energy, E(TD-HF/TD-DFT) =  -1028.69145027
 Copying the excited state density for this state as the 1-particle RhoCI density.

 Excited state symmetry could not be determined.
 Excited State   2:      Singlet-?Sym    4.3875 eV  282.58 nm  f=0.1689  <S**2>=0.000
      57 -> 60         0.34019
      58 -> 60         0.56476
      59 -> 62        -0.16860

 Excited state symmetry could not be determined.
 Excited State   3:      Singlet-?Sym    4.5551 eV  272.19 nm  f=0.0737  <S**2>=0.000
      57 -> 60         0.52656
      57 -> 63        -0.11678
      58 -> 60        -0.32770
      58 -> 61        -0.10886
      59 -> 61         0.22967

 Alpha  occ. eigenvalues --  -89.08952 -19.28911 -14.46968 -10.39763 -10.38317
 Alpha  occ. eigenvalues --  -10.34831 -10.34757 -10.32894 -10.32380 -10.32136
 Alpha  occ. eigenvalues --  -10.32012 -10.31357 -10.31271 -10.31177 -10.30563
 Alpha  occ. eigenvalues --  -10.30398  -8.10854  -6.05706  -6.05371  -6.04911
 Alpha  occ. eigenvalues --   -1.17430  -1.08089  -0.96697  -0.95609  -0.91586
 Alpha  occ. eigenvalues --   -0.88779  -0.85041  -0.84417  -0.82229  -0.75994
 Alpha  occ. eigenvalues --   -0.71145  -0.70122  -0.69128  -0.68265  -0.63428
 Alpha  occ. eigenvalues --   -0.60202  -0.58940  -0.58510  -0.55979  -0.54434
 Alpha  occ. eigenvalues --   -0.53574  -0.53178  -0.52781  -0.50753  -0.50499
 Alpha  occ. eigenvalues --   -0.49187  -0.47931  -0.45855  -0.45527  -0.44740
 Alpha  occ. eigenvalues --   -0.43850  -0.42948  -0.42140  -0.39909  -0.37553
 Alpha  occ. eigenvalues --   -0.36426  -0.32033  -0.31578  -0.27972
 Alpha virt. eigenvalues --   -0.01866   0.05236   0.06931   0.07088   0.07347
 Alpha virt. eigenvalues --    0.11241   0.13603   0.15151   0.16160   0.17983
 Alpha virt. eigenvalues --    0.18517   0.20806   0.21633   0.22309   0.22787

 Mulliken charges:
               1
     1  C    0.011583
     2  C   -0.217027
     3  C    0.218724
     4  C   -0.016424
     5  C    0.008078
     6  C   -0.008500
     7  H    0.017857
     8  H    0.015082
     9  H    0.017849
    10  H    0.020005
    11  N   -0.351286
    12  S    0.149356
    13  C   -0.080338
    14  C   -0.019520
    15  C    0.079088
    16  C   -0.010166
    17  H    0.016076
    18  C    0.014862
    19  C    0.021144
    20  H    0.012036
    21  H    0.019908
    22  H    0.023050
    23  C    0.079201
    24  O   -0.188249
    25  H    0.167611
 Sum of Mulliken charges =  -0.00000

 Dipole moment (field-independent basis, Debye):
    X=             -0.5346    Y=             -1.7256    Z=              0.0000  Tot=              1.8065
 Quadrupole moment (field-independent basis, Debye-Ang):
   XX=            -83.1698   YY=            -89.0662   ZZ=           -104.4571
   XY=             -6.8662   XZ=             -0.0000   YZ=              0.0002

  Exact polarizability:     405.507    -196.951     393.711      -0.003       0.003      63.470
 Approx polarizability:     280.317     -37.121     262.895      -0.001       0.001      82.429

                      1                      2                      3
                      A                      A                      A
 Frequencies --     37.6670                71.3856               109.7796
 Red. masses --      6.0202                 5.5396                 4.8695
 Frc consts  --      0.0050                 0.0166                 0.0346
 IR Inten    --      1.2649                 0.0252                 0.3114

                      4                      5                      6
                      A                      A                      A
 Frequencies --    110.9579               182.5800               224.0017
 Red. masses --      5.6617                 6.7555                 5.4393
 Frc consts  --      0.0411                 0.1327                 0.1608
 IR Inten    --      1.9516                 1.1166                 0.0033

                      7                      8                      9
                      A                      A                      A
 Frequencies --    264.6393               269.4845               292.4470
 Red. masses --      8.0516                 4.8270                 6.6594
 Frc consts  --      0.3322                 0.2065                 0.3356
 IR Inten    --     21.0191                 0.0982                 8.6203

                     10                     11                     12
                      A                      A                      A
 Frequencies --    394.1947               397.1990               439.0738
 Red. masses --      4.5981                 8.9470                 3.3038
 Frc consts  --      0.4210                 0.8317                 0.3753
 IR Inten    --      0.0959                13.1697                 4.1422

                     13                     14                     15
                      A                      A                      A
 Frequencies --    493.4900               495.6636               507.4176
 Red. masses --      4.4565                 6.9581                 3.1486
 Frc consts  --      0.6394                 1.0072                 0.4776
 IR Inten    --      0.1927                13.2925                 0.1590

                     16                     17                     18
                      A                      A                      A
 Frequencies --    507.7770               524.8229               549.8308
 Red. masses --      5.7065                 7.9430                 3.9934
 Frc consts  --      0.8669                 1.2890                 0.7113
 IR Inten    --     22.1880                18.5100                 0.1864

                     19                     20                     21
                      A                      A                      A
 Frequencies --    577.8192               642.8324               672.4402
 Red. masses --      7.7074                 6.5975                 9.6686
 Frc consts  --      1.5161                 1.6063                 2.5758
 IR Inten    --     56.4384                26.8222                42.9683

                     22                     23                     24
                      A                      A                      A
 Frequencies --    708.9508               719.8651               735.6392
 Red. masses --      6.8121                 1.7818                 1.8797
 Frc consts  --      2.0173                 0.5440                 0.5993
 IR Inten    --     12.0629                49.8597                35.6507

                     25                     26                     27
                      A                      A                      A
 Frequencies --    746.5303               772.7986               807.9129
 Red. masses --      1.8515                 2.0718                 6.5373
 Frc consts  --      0.6080                 0.7290                 2.5141
 IR Inten    --     24.0132                52.1327                20.4455

                     28                     29                     30
                      A                      A                      A
 Frequencies --    821.6455               860.4529               875.4790
 Red. masses --      1.6514                 1.4104                 1.0870
 Frc consts  --      0.6569                 0.6152                 0.4909
 IR Inten    --      5.0627                 0.0440                68.5711

                     31                     32                     33
                      A                      A                      A
 Frequencies --    885.6599               924.2352               951.6280
 Red. masses --      6.3770                 1.3395                 7.2116
 Frc consts  --      2.9472                 0.6742                 3.8478
 IR Inten    --     58.3499                 0.7412                 6.0708

                     34                     35                     36
                      A                      A                      A
 Frequencies --    954.8835               969.4221              1000.2163
 Red. masses --      1.3414                 1.3454                 1.3010
 Frc consts  --      0.7206                 0.7449                 0.7669
 IR Inten    --      2.0192                 0.0028                 0.0003

                     37                     38                     39
                      A                      A                      A
 Frequencies --   1039.0110              1041.8291              1074.8112
 Red. masses --      2.1115                 2.2192                 5.0239
 Frc consts  --      1.3430                 1.4192                 3.4194
 IR Inten    --      1.2090                 3.1237                37.6681

                     40                     41                     42
                      A                      A                      A
 Frequencies --   1136.8248              1148.6897              1176.9510
 Red. masses --      1.4750                 1.3115                 1.1703
 Frc consts  --      1.1231                 1.0196                 0.9552
 IR Inten    --     50.4360                15.1282                18.4052

                     43                     44                     45
                      A                      A                      A
 Frequencies --   1180.5653              1219.0239              1239.1055
 Red. masses --      1.1895                 6.0114                 1.6045
 Frc consts  --      0.9768                 5.2632                 1.4515
 IR Inten    --     20.3985                59.3871               175.6797

                     46                     47                     48
                      A                      A                      A
 Frequencies --   1277.4821              1304.6168              1360.6898
 Red. masses --      1.6488                 2.9240                 2.9128
 Frc consts  --      1.5853                 2.9322                 3.1774
 IR Inten    --      4.1423               279.4220                76.0451

                     49                     50                     51
                      A                      A                      A
 Frequencies --   1372.1982              1402.4403              1437.7290
 Red. masses --      5.7374                 1.9511                 2.5018
 Frc consts  --      6.3651                 2.2610                 3.0469
 IR Inten    --     25.3046                11.3714               209.8461

                     52                     53                     54
                      A                      A                      A
 Frequencies --   1473.8045              1493.2351              1514.5354
 Red. masses --      3.3303                 2.0951                 4.7741
 Frc consts  --      4.2620                 2.7525                 6.4521
 IR Inten    --     63.5735               195.0498                38.3181

                     55                     56                     57
                      A                      A                      A
 Frequencies --   1539.7051              1563.2245              1585.4184
 Red. masses --      4.5831                 6.8264                 2.9028
 Frc consts  --      6.4016                 9.8284                 4.2989
 IR Inten    --      8.6436               415.3259               365.0846

                     58                     59                     60
                      A                      A                      A
 Frequencies --   1600.1621              1630.2099              1649.9411
 Red. masses --      4.0326                 5.2966                 5.7247
 Frc consts  --      6.0837                 8.2935                 9.1821
 IR Inten    --     52.1301               415.6653               203.2605

                     61                     62                     63
                      A                      A                      A
 Frequencies --   3182.9246              3207.4409              3208.1865
 Red. masses --      1.0714                 1.0865                 1.0862
 Frc consts  --      6.3949                 6.5855                 6.5871
 IR Inten    --     20.8732                 5.4227                 7.9718

                     64                     65                     66
                      A                      A                      A
 Frequencies --   3218.8058              3220.0564              3228.0263
 Red. masses --      1.0899                 1.0890                 1.0940
 Frc consts  --      6.6532                 6.6529                 6.7166
 IR Inten    --      3.8430                 0.6731                17.1357

                     67                     68                     69
                      A                      A                      A
 Frequencies --   3231.0800              3237.2016              3240.2504
 Red. masses --      1.0954                 1.0989                 1.0987
 Frc consts  --      6.7380                 6.7851                 6.7968
 IR Inten    --     12.8152                40.8213                28.1760

 - Thermochemistry -
 -------------------
 Temperature   298.150 Kelvin.  Pressure   1.00000 Atm.
 Atom     1 has atomic number  6 and mass  12.00000

 Molecular mass:   227.04049 amu.
 Principal axes and moments of inertia in atomic units:
                           1         2         3
     Eigenvalues --  1342.699996367.176317709.87631
           X           -0.69626   0.71779   0.00000
           Y            0.71779   0.69626  -0.00001
           Z            0.00001   0.00000   1.00000
 This molecule is an asymmetric top.
 Rotational symmetry number  1.
 Warning -- assumption of classical behavior for rotation
           may cause significant error
 Rotational temperatures (Kelvin)      0.06451     0.01360     0.01123
 Rotational constants (GHZ):           1.34411     0.28344     0.23408
 Zero-point vibrational energy     490092.1 (Joules/Mol)
                                  117.13482 (Kcal/Mol)
 Warning -- explicit consideration of  19 degrees of freedom as
           vibrations may cause significant error
 Vibrational temperatures:     54.19   102.71   157.95   159.64   262.69
          (Kelvin)            322.29   380.76   387.73   420.77   567.16
                              571.48   631.73   710.02   713.15   730.06
                              730.58   755.10   791.08   831.35   924.89
                              967.49  1020.02  1035.73  1058.42  1074.09
                             1111.88  1162.41  1182.16  1238.00  1259.62
                             1274.27  1329.77  1369.18  1373.86  1394.78
                             1439.09  1494.91  1498.96  1546.41  1635.64
                             1652.71  1693.37  1698.57  1753.90  1782.80
                             1838.01  1877.05  1957.73  1974.29  2017.80
                             2068.57  2120.48  2148.43  2179.08  2215.29
                             2249.13  2281.06  2302.28  2345.51  2373.90
                             4579.52  4614.79  4615.86  4631.14  4632.94
                             4644.41  4648.80  4657.61  4662.00

 Zero-point correction=                           0.186666 (Hartree/Particle)
 Thermal correction to Energy=                    0.199000
 Thermal correction to Enthalpy=                  0.199944
 Thermal correction to Gibbs Free Energy=         0.147266
 Sum of electronic and zero-point Energies=          -1028.504784
 Sum of electronic and thermal Energies=             -1028.492450
 Sum of electronic and thermal Enthalpies=           -1028.491506
 Sum of electronic and thermal Free Energies=        -1028.544184

                     E (Thermal)             CV                S
                      KCal/Mol        Cal/Mol-Kelvin    Cal/Mol-Kelvin
 Total                  124.874             49.549            110.869
 Electronic               0.000              0.000              0.000
 Translational            0.889              2.981             42.162
 Rotational               0.889              2.981             32.555
 Vibrational            123.097             43.587             36.152
 Vibration     1          0.594              1.982              5.378
 Vibration     2          0.598              1.968              4.115
 Vibration     3          0.606              1.941              3.273
 Vibration     4          0.607              1.940              3.252
 Vibration     5          0.630              1.863              2.302
 Vibration     6          0.649              1.805              1.927
 Vibration     7          0.671              1.738              1.631
 Vibration     8          0.674              1.729              1.600
 Vibration     9          0.688              1.688              1.460
 Vibration    10          0.761              1.483              0.984
 Vibration    11          0.764              1.476              0.973
 Vibration    12          0.799              1.385              0.830
 Vibration    13          0.849              1.264              0.675
 Vibration    14          0.851              1.260              0.669
 Vibration    15          0.863              1.234              0.640
 Vibration    16          0.863              1.233              0.639
 Vibration    17          0.880              1.195              0.599
 Vibration    18          0.905              1.140              0.545
 Vibration    19          0.934              1.079              0.489

 Optimization completed.
    -- Stationary point found.
 Normal termination of Gaussian 16 at Mon Jul 13 17:58:03 2020.
