 Gaussian 16, Revision C.01,
 Gaussian 16:  ES64L-G16RevC.01  3-Jul-2019

 ----------------------------------------------------------------------
 #p opt=addgic freq td wb97xd/cc-pvdz nosymm int=ultrafine scrf=(solven
 t=CarbonTetraChloride)
 ----------------------------------------------------------------------

 ------------------------------------------------
 NM 2D-scan of HBT TD-WB97XD pVDZ in CTC Relaxed.
 ------------------------------------------------
 Symbolic Z-matrix:
 Charge =  0 Multiplicity = 1

 SCF Done:  E(RwB97XD) =  -1028.53395892     A.U. after   16 cycles
 Total Energy, E(TD-HF/TD-DFT) =  -1028.42938074
 SCF Done:  E(RwB97XD) =  -1028.72193018     A.U. after   14 cycles
 Total Energy, E(TD-HF/TD-DFT) =  -1028.62006839
 SCF Done:  E(RwB97XD) =  -1028.77011637     A.U. after   15 cycles
 Total Energy, E(TD-HF/TD-DFT) =  -1028.67339358
 SCF Done:  E(RwB97XD) =  -1028.78383612     A.U. after   14 cycles
 Total Energy, E(TD-HF/TD-DFT) =  -1028.68536537
 SCF Done:  E(RwB97XD) =  -1028.78459126     A.U. after   12 cycles
 Total Energy, E(TD-HF/TD-DFT) =  -1028.68588531
 SCF Done:  E(RwB97XD) =  -1028.78567361     A.U. after   12 cycles
 Total Energy, E(TD-HF/TD-DFT) =  -1028.68605252
 SCF Done:  E(RwB97XD) =  -1028.78551096     A.U. after    9 cycles
 Total Energy, E(TD-HF/TD-DFT) =  -1028.68606542
 Optimization completed.
    -- Stationary point found.
 Normal termination of Gaussian 16 at Tue Jul 14 11:43:55 2020.

 ----------------------------------------------------------------------
 #P Geom=AllCheck Guess=TCheck SCRF=Check GenChk RwB97XD TD(FC,Read)/CC
 -pVDZ Freq
 ----------------------------------------------------------------------

 Structure from the checkpoint file:  "config_12_10_fixed.chk"
 ------------------------------------------------
 NM 2D-scan of HBT TD-WB97XD pVDZ in CTC Relaxed.
 ------------------------------------------------
 Charge =  0 Multiplicity = 1

                          Input orientation:
 ---------------------------------------------------------------------
 Center     Atomic      Atomic             Coordinates (Angstroms)
 Number     Number       Type             X           Y           Z
 ---------------------------------------------------------------------
      1          6           0        1.666210   -3.298792    0.000025
      2          6           0        1.023892   -2.067709   -0.000001
      3          6           0        1.763042   -0.891517   -0.000043
      4          6           0        3.163213   -0.893688   -0.000048
      5          6           0        3.798733   -2.131264   -0.000018
      6          6           0        3.062815   -3.320504    0.000016
      7          1           0        1.095655   -4.227359    0.000051
      8          1           0        3.727461    0.040126   -0.000076
      9          1           0        4.889091   -2.169425   -0.000022
     10          1           0        3.583203   -4.278567    0.000034
     11          7           0        0.939739    0.194452   -0.000084
     12         16           0       -0.710449   -1.685581   -0.000002
     13          6           0       -1.405394    1.096556   -0.000008
     14          6           0       -2.762392    0.858422   -0.000040
     15          6           0       -0.903762    2.488961    0.000047
     16          6           0       -3.720379    1.929254    0.000014
     17          1           0       -3.137913   -0.168456   -0.000114
     18          6           0       -1.912383    3.520429    0.000102
     19          6           0       -3.294075    3.244844    0.000090
     20          1           0       -4.782688    1.680625   -0.000008
     21          1           0       -1.551389    4.551067    0.000172
     22          1           0       -4.019286    4.060370    0.000136
     23          6           0       -0.417281    0.031433   -0.000067
     24          8           0        0.325276    2.686327    0.000061
     25          1           0        1.468984    1.027690   -0.000137
 ---------------------------------------------------------------------

 SCF Done:  E(RwB97XD) =  -1028.78551096     A.U. after    1 cycles

 Excitation energies and oscillator strengths:

 Excited state symmetry could not be determined.
 Excited State   1:      Singlet-?Sym    2.7061 eV  458.17 nm  f=0.4301  <S**2>=0.000
      59 -> 60         0.69734
 This state for optimization and/or second-order correction.
 Total Energy, E(TD-HF/TD-DFT) =  -1028.68606541
 Copying the excited state density for this state as the 1-particle RhoCI density.

 Excited state symmetry could not be determined.
 Excited State   2:      Singlet-?Sym    3.3089 eV  374.70 nm  f=0.0000  <S**2>=0.000
      58 -> 60         0.68424
      58 -> 62         0.11414
      58 -> 64         0.10308

 Excited state symmetry could not be determined.
 Excited State   3:      Singlet-?Sym    4.3040 eV  288.07 nm  f=0.4720  <S**2>=0.000
      57 -> 60         0.68286

 Alpha  occ. eigenvalues --  -89.10670 -19.20055 -14.52856 -10.42814 -10.37262
 Alpha  occ. eigenvalues --  -10.36246 -10.35296 -10.33653 -10.33422 -10.32941
 Alpha  occ. eigenvalues --  -10.32622 -10.31337 -10.30939 -10.30478 -10.28969
 Alpha  occ. eigenvalues --  -10.28039  -8.12666  -6.07551  -6.07155  -6.06686
 Alpha  occ. eigenvalues --   -1.13495  -1.09231  -0.98699  -0.95589  -0.93252
 Alpha  occ. eigenvalues --   -0.89094  -0.86784  -0.84172  -0.80545  -0.76026
 Alpha  occ. eigenvalues --   -0.74682  -0.71878  -0.69395  -0.67396  -0.64740
 Alpha  occ. eigenvalues --   -0.61056  -0.59831  -0.56495  -0.56301  -0.56040
 Alpha  occ. eigenvalues --   -0.55095  -0.53572  -0.53009  -0.50516  -0.48705
 Alpha  occ. eigenvalues --   -0.48675  -0.48190  -0.47060  -0.45590  -0.44843
 Alpha  occ. eigenvalues --   -0.44042  -0.42756  -0.42173  -0.39865  -0.36964
 Alpha  occ. eigenvalues --   -0.33869  -0.31597  -0.30572  -0.25247
 Alpha virt. eigenvalues --   -0.02280   0.03487   0.05742   0.06526   0.09812
 Alpha virt. eigenvalues --    0.10897   0.12679   0.14417   0.15957   0.16596
 Alpha virt. eigenvalues --    0.18016   0.19811   0.20848   0.21260   0.22747

 Mulliken charges:
               1
     1  C    0.014006
     2  C   -0.246607
     3  C    0.211784
     4  C   -0.012388
     5  C    0.013843
     6  C    0.003305
     7  H    0.026421
     8  H    0.034196
     9  H    0.029670
    10  H    0.028183
    11  N   -0.074793
    12  S    0.199789
    13  C   -0.080258
    14  C   -0.034326
    15  C    0.108811
    16  C   -0.040459
    17  H    0.003805
    18  C   -0.058285
    19  C    0.035120
    20  H    0.000814
    21  H   -0.002185
    22  H    0.013266
    23  C    0.088370
    24  O   -0.380368
    25  H    0.118288
 Sum of Mulliken charges =   0.00000

 Dipole moment (field-independent basis, Debye):
    X=              2.7101    Y=             -6.1776    Z=             -0.0003  Tot=              6.7459
 Quadrupole moment (field-independent basis, Debye-Ang):
   XX=            -81.3502   YY=            -96.5758   ZZ=           -104.1761
   XY=             -6.0267   XZ=             -0.0004   YZ=             -0.0004

  Exact polarizability:     346.842    -117.701     289.536      -0.002       0.002      63.305
 Approx polarizability:     277.065     -40.935     265.116      -0.001       0.002      82.028

 ******    1 imaginary frequencies (negative Signs) ******

                      1                      2                      3
                      A                      A                      A
 Frequencies --   -113.6416                 5.3850                76.2257
 Red. masses --      3.4087                 5.5476                 5.4623
 Frc consts  --      0.0259                 0.0001                 0.0187
 IR Inten    --     11.2944                 0.0503                 2.4059

                      4                      5                      6
                      A                      A                      A
 Frequencies --    113.9725               160.9659               198.0269
 Red. masses --      5.7341                 3.5098                 4.4542
 Frc consts  --      0.0439                 0.0536                 0.1029
 IR Inten    --      5.2348                 7.6650                16.1768

                      7                      8                      9
                      A                      A                      A
 Frequencies --    251.2733               263.3997               296.9056
 Red. masses --      3.5613                 7.5673                 9.0061
 Frc consts  --      0.1325                 0.3093                 0.4678
 IR Inten    --      7.4247                 1.1693                 2.3557

                     10                     11                     12
                      A                      A                      A
 Frequencies --    333.3035               346.2226               374.9142
 Red. masses --      3.0536                 2.6407                 7.1017
 Frc consts  --      0.1999                 0.1865                 0.5881
 IR Inten    --      9.3014                22.2548                 6.5133

                     13                     14                     15
                      A                      A                      A
 Frequencies --    434.3807               445.4598               499.6153
 Red. masses --      4.0621                 2.7760                 8.0895
 Frc consts  --      0.4516                 0.3246                 1.1897
 IR Inten    --      6.8831                 0.4823                 9.1409

                     16                     17                     18
                      A                      A                      A
 Frequencies --    516.1505               540.5435               546.5035
 Red. masses --      3.2389                 8.1956                 7.1029
 Frc consts  --      0.5084                 1.4109                 1.2499
 IR Inten    --      0.6518                 9.8337                48.2996

                     19                     20                     21
                      A                      A                      A
 Frequencies --    558.9258               566.2163               645.0647
 Red. masses --      3.7687                 7.4043                 6.5252
 Frc consts  --      0.6937                 1.3986                 1.5997
 IR Inten    --      0.0023                 4.0209                13.8946

                     22                     23                     24
                      A                      A                      A
 Frequencies --    687.0659               702.7137               735.8188
 Red. masses --      1.5210                 6.0035                 7.5522
 Frc consts  --      0.4230                 1.7467                 2.4092
 IR Inten    --     31.3329                 2.2198                 5.7989

                     25                     26                     27
                      A                      A                      A
 Frequencies --    743.6386               758.2371               767.5753
 Red. masses --      2.5093                 1.6915                 1.6671
 Frc consts  --      0.8176                 0.5730                 0.5787
 IR Inten    --     16.5965                12.7036                88.0799

                     28                     29                     30
                      A                      A                      A
 Frequencies --    816.4320               839.8430               863.5590
 Red. masses --      6.3228                 1.9735                 1.3807
 Frc consts  --      2.4831                 0.8201                 0.6066
 IR Inten    --     16.6246                 1.4289                 1.3076

                     31                     32                     33
                      A                      A                      A
 Frequencies --    899.2724               902.7872               953.3754
 Red. masses --      6.0288                 1.4396                 1.3562
 Frc consts  --      2.8725                 0.6913                 0.7263
 IR Inten    --      2.5483                 9.4130                 0.4066

                     34                     35                     36
                      A                      A                      A
 Frequencies --    957.2747               971.4494              1004.1643
 Red. masses --      1.3505                 5.6075                 1.2944
 Frc consts  --      0.7291                 3.1179                 0.7690
 IR Inten    --      1.6581                 4.5896                 0.0010

                     37                     38                     39
                      A                      A                      A
 Frequencies --   1034.5635              1057.1861              1084.2363
 Red. masses --      2.3447                 2.2428                 3.0688
 Frc consts  --      1.4786                 1.4769                 2.1255
 IR Inten    --      1.1127                12.9856                 7.4714

                     40                     41                     42
                      A                      A                      A
 Frequencies --   1096.4168              1153.9645              1158.6179
 Red. masses --      1.8375                 1.3186                 1.2098
 Frc consts  --      1.3015                 1.0345                 0.9569
 IR Inten    --     18.5068                 6.6028                47.7311

                     43                     44                     45
                      A                      A                      A
 Frequencies --   1181.0188              1191.8334              1228.2324
 Red. masses --      1.1591                 1.4564                 3.2103
 Frc consts  --      0.9526                 1.2189                 2.8533
 IR Inten    --     36.1737                31.8559                21.6865

                     46                     47                     48
                      A                      A                      A
 Frequencies --   1243.8418              1305.0446              1336.1010
 Red. masses --      2.2302                 1.5920                 2.9049
 Frc consts  --      2.0329                 1.5975                 3.0554
 IR Inten    --     43.7475                 8.5286                31.2420

                     49                     50                     51
                      A                      A                      A
 Frequencies --   1361.6962              1398.0692              1405.7947
 Red. masses --      2.5559                 2.2566                 6.0525
 Frc consts  --      2.7922                 2.5988                 7.0475
 IR Inten    --     22.8151                53.7621                63.2179

                     52                     53                     54
                      A                      A                      A
 Frequencies --   1448.2218              1465.4020              1511.9290
 Red. masses --      2.8231                 3.0541                 3.6721
 Frc consts  --      3.4886                 3.8640                 4.9457
 IR Inten    --     77.1696                 8.7292               102.7090

                     55                     56                     57
                      A                      A                      A
 Frequencies --   1530.9679              1549.4996              1620.9508
 Red. masses --      2.7151                 5.4407                 5.3105
 Frc consts  --      3.7495                 7.6963                 8.2210
 IR Inten    --      0.3965               191.3239                94.3316

                     58                     59                     60
                      A                      A                      A
 Frequencies --   1653.2010              1664.8335              1690.6023
 Red. masses --      9.4989                 6.9229                 7.1873
 Frc consts  --     15.2958                11.3052                12.1031
 IR Inten    --    154.4099                99.1271                33.1133

                     61                     62                     63
                      A                      A                      A
 Frequencies --   3188.1382              3206.5565              3214.0068
 Red. masses --      1.0892                 1.0861                 1.0865
 Frc consts  --      6.5231                 6.5796                 6.6125
 IR Inten    --     25.1998                 2.4178                 5.9003

                     64                     65                     66
                      A                      A                      A
 Frequencies --   3218.7062              3225.6868              3232.1676
 Red. masses --      1.0912                 1.0905                 1.0990
 Frc consts  --      6.6608                 6.6852                 6.7647
 IR Inten    --     14.1693                 1.8021                27.3079

                     67                     68                     69
                      A                      A                      A
 Frequencies --   3232.7762              3243.0604              3951.5187
 Red. masses --      1.0960                 1.0989                 1.0778
 Frc consts  --      6.7485                 6.8096                 9.9159
 IR Inten    --      5.8404                12.8630               211.0677

 - Thermochemistry -
 -------------------
 Temperature   298.150 Kelvin.  Pressure   1.00000 Atm.
 Atom     1 has atomic number  6 and mass  12.00000

 Molecular mass:   227.04049 amu.
 Principal axes and moments of inertia in atomic units:
                           1         2         3
     Eigenvalues --  1269.646426541.114517810.76092
           X           -0.70663   0.70758   0.00000
           Y            0.70758   0.70663  -0.00001
           Z            0.00001   0.00001   1.00000
 This molecule is an asymmetric top.
 Rotational symmetry number  1.
 Warning -- assumption of classical behavior for rotation
           may cause significant error
 Rotational temperatures (Kelvin)      0.06822     0.01324     0.01109
 Rotational constants (GHZ):           1.42145     0.27591     0.23106
    1 imaginary frequencies ignored.
 Zero-point vibrational energy     489640.5 (Joules/Mol)
                                  117.02690 (Kcal/Mol)
 Warning -- explicit consideration of  19 degrees of freedom as
           vibrations may cause significant error
 Vibrational temperatures:      7.75   109.67   163.98   231.59   284.92
          (Kelvin)            361.53   378.97   427.18   479.55   498.14
                              539.42   624.98   640.92   718.84   742.63
                              777.72   786.30   804.17   814.66   928.10
                              988.53  1011.05  1058.68  1069.93  1090.93
                             1104.37  1174.66  1208.35  1242.47  1293.85
                             1298.91  1371.69  1377.30  1397.70  1444.77
                             1488.51  1521.05  1559.97  1577.50  1660.30
                             1666.99  1699.22  1714.78  1767.15  1789.61
                             1877.67  1922.35  1959.18  2011.51  2022.63
                             2083.67  2108.39  2175.33  2202.72  2229.38
                             2332.19  2378.59  2395.32  2432.40  4587.02
                             4613.52  4624.24  4631.00  4641.04  4650.37
                             4651.24  4666.04  5685.35

 Zero-point correction=                           0.186494 (Hartree/Particle)
 Thermal correction to Energy=                    0.198641
 Thermal correction to Enthalpy=                  0.199585
 Thermal correction to Gibbs Free Energy=         0.145820
 Sum of electronic and zero-point Energies=          -1028.499571
 Sum of electronic and thermal Energies=             -1028.487425
 Sum of electronic and thermal Enthalpies=           -1028.486481
 Sum of electronic and thermal Free Energies=        -1028.540246

                     E (Thermal)             CV                S
                      KCal/Mol        Cal/Mol-Kelvin    Cal/Mol-Kelvin
 Total                  124.649             48.854            113.158
 Electronic               0.000              0.000              0.000
 Translational            0.889              2.981             42.162
 Rotational               0.889              2.981             32.539
 Vibrational            122.871             42.892             38.457
 Vibration     1          0.593              1.987              9.241
 Vibration     2          0.599              1.965              3.986
 Vibration     3          0.607              1.938              3.200
 Vibration     4          0.622              1.890              2.538
 Vibration     5          0.637              1.843              2.151
 Vibration     6          0.663              1.761              1.722
 Vibration     7          0.670              1.740              1.639
 Vibration     8          0.691              1.679              1.434
 Vibration     9          0.715              1.609              1.244
 Vibration    10          0.724              1.583              1.183
 Vibration    11          0.746              1.524              1.060
 Vibration    12          0.795              1.395              0.844
 Vibration    13          0.805              1.371              0.810
 Vibration    14          0.855              1.251              0.659
 Vibration    15          0.871              1.214              0.619
 Vibration    16          0.896              1.160              0.564
 Vibration    17          0.902              1.147              0.551
 Vibration    18          0.915              1.120              0.526
 Vibration    19          0.922              1.104              0.512

 Optimization completed.
    -- Stationary point found.
 Normal termination of Gaussian 16 at Tue Jul 14 12:01:13 2020.
