 Gaussian 16, Revision C.01,
 Gaussian 16:  ES64L-G16RevC.01  3-Jul-2019

 ----------------------------------------------------------------------
 #p opt=addgic freq td wb97xd/cc-pvdz nosymm int=ultrafine scrf=(solven
 t=CarbonTetraChloride)
 ----------------------------------------------------------------------

 ------------------------------------------------
 NM 2D-scan of HBT TD-WB97XD pVDZ in CTC Relaxed.
 ------------------------------------------------
 Symbolic Z-matrix:
 Charge =  0 Multiplicity = 1

 SCF Done:  E(RwB97XD) =  -1028.70940702     A.U. after   16 cycles
 Total Energy, E(TD-HF/TD-DFT) =  -1028.60337485
 SCF Done:  E(RwB97XD) =  -1028.78224496     A.U. after   14 cycles
 Total Energy, E(TD-HF/TD-DFT) =  -1028.68001398
 SCF Done:  E(RwB97XD) =  -1028.79325358     A.U. after   13 cycles
 Total Energy, E(TD-HF/TD-DFT) =  -1028.69215268
 SCF Done:  E(RwB97XD) =  -1028.79699676     A.U. after   13 cycles
 Total Energy, E(TD-HF/TD-DFT) =  -1028.69355361
 SCF Done:  E(RwB97XD) =  -1028.79634276     A.U. after   12 cycles
 Total Energy, E(TD-HF/TD-DFT) =  -1028.69422395
 SCF Done:  E(RwB97XD) =  -1028.79628215     A.U. after   10 cycles
 Total Energy, E(TD-HF/TD-DFT) =  -1028.69423170
 Optimization completed.
    -- Stationary point found.
 Normal termination of Gaussian 16 at Mon Jul 13 19:34:04 2020.

 ----------------------------------------------------------------------
 #P Geom=AllCheck Guess=TCheck SCRF=Check GenChk RwB97XD TD(FC,Read)/CC
 -pVDZ Freq
 ----------------------------------------------------------------------

 Structure from the checkpoint file:  "config_11_8.chk"
 ------------------------------------------------
 NM 2D-scan of HBT TD-WB97XD pVDZ in CTC Relaxed.
 ------------------------------------------------
 Charge =  0 Multiplicity = 1

                          Input orientation:
 ---------------------------------------------------------------------
 Center     Atomic      Atomic             Coordinates (Angstroms)
 Number     Number       Type             X           Y           Z
 ---------------------------------------------------------------------
      1          6           0        1.688170   -3.293246    0.000096
      2          6           0        1.020598   -2.073761    0.000031
      3          6           0        1.742192   -0.878139   -0.000084
      4          6           0        3.142446   -0.858946   -0.000130
      5          6           0        3.799924   -2.083039   -0.000063
      6          6           0        3.084983   -3.286999    0.000047
      7          1           0        1.136829   -4.233720    0.000184
      8          1           0        3.685658    0.086663   -0.000214
      9          1           0        4.890742   -2.103100   -0.000097
     10          1           0        3.622878   -4.235457    0.000096
     11          7           0        0.909028    0.194137   -0.000141
     12         16           0       -0.721624   -1.729428    0.000069
     13          6           0       -1.404428    1.076786   -0.000019
     14          6           0       -2.771713    0.870430   -0.000108
     15          6           0       -0.885968    2.469759    0.000116
     16          6           0       -3.701008    1.957470   -0.000048
     17          1           0       -3.167316   -0.148764   -0.000234
     18          6           0       -1.868802    3.518276    0.000172
     19          6           0       -3.250532    3.269176    0.000097
     20          1           0       -4.768903    1.733882   -0.000114
     21          1           0       -1.480094    4.538507    0.000304
     22          1           0       -3.961221    4.096984    0.000150
     23          6           0       -0.439176   -0.001587   -0.000050
     24          8           0        0.346604    2.685665    0.000216
     25          1           0        1.318708    1.104963   -0.000196
 ---------------------------------------------------------------------

 SCF Done:  E(RwB97XD) =  -1028.79628215     A.U. after    1 cycles

 Excitation energies and oscillator strengths:

 Excited state symmetry could not be determined.
 Excited State   1:      Singlet-?Sym    2.7769 eV  446.48 nm  f=0.4341  <S**2>=0.000
      59 -> 60         0.69689
 This state for optimization and/or second-order correction.
 Total Energy, E(TD-HF/TD-DFT) =  -1028.69423170
 Copying the excited state density for this state as the 1-particle RhoCI density.

 Excited state symmetry could not be determined.
 Excited State   2:      Singlet-?Sym    3.4496 eV  359.42 nm  f=0.0000  <S**2>=0.000
      58 -> 60         0.68371
      58 -> 62         0.11643
      58 -> 64         0.10883

 Excited state symmetry could not be determined.
 Excited State   3:      Singlet-?Sym    4.3219 eV  286.88 nm  f=0.4681  <S**2>=0.000
      57 -> 60         0.68184

 Alpha  occ. eigenvalues --  -89.10719 -19.20505 -14.52517 -10.42559 -10.37296
 Alpha  occ. eigenvalues --  -10.36309 -10.35595 -10.33611 -10.33246 -10.32828
 Alpha  occ. eigenvalues --  -10.32557 -10.31409 -10.31115 -10.30562 -10.29045
 Alpha  occ. eigenvalues --  -10.28135  -8.12685  -6.07570  -6.07182  -6.06703
 Alpha  occ. eigenvalues --   -1.13411  -1.09345  -0.98605  -0.95338  -0.93263
 Alpha  occ. eigenvalues --   -0.89154  -0.86714  -0.84136  -0.80752  -0.76018
 Alpha  occ. eigenvalues --   -0.74151  -0.71923  -0.69259  -0.67488  -0.64947
 Alpha  occ. eigenvalues --   -0.61035  -0.59822  -0.56544  -0.56220  -0.55938
 Alpha  occ. eigenvalues --   -0.55067  -0.53629  -0.53076  -0.50662  -0.48806
 Alpha  occ. eigenvalues --   -0.48726  -0.48280  -0.47031  -0.45572  -0.44825
 Alpha  occ. eigenvalues --   -0.44232  -0.42836  -0.42151  -0.40021  -0.36930
 Alpha  occ. eigenvalues --   -0.33815  -0.31556  -0.31034  -0.25490
 Alpha virt. eigenvalues --   -0.02201   0.03555   0.05816   0.06427   0.09606
 Alpha virt. eigenvalues --    0.10792   0.12525   0.14495   0.16061   0.16928
 Alpha virt. eigenvalues --    0.18383   0.19881   0.20903   0.21290   0.22882

 Mulliken charges:
               1
     1  C    0.014108
     2  C   -0.248760
     3  C    0.235166
     4  C   -0.010160
     5  C    0.014282
     6  C    0.001933
     7  H    0.026636
     8  H    0.033579
     9  H    0.029084
    10  H    0.027758
    11  N   -0.086039
    12  S    0.199672
    13  C   -0.094343
    14  C   -0.029173
    15  C    0.113330
    16  C   -0.039538
    17  H    0.002719
    18  C   -0.044909
    19  C    0.034690
    20  H    0.001398
    21  H   -0.001034
    22  H    0.013576
    23  C    0.076628
    24  O   -0.391725
    25  H    0.121121
 Sum of Mulliken charges =  -0.00000

 Dipole moment (field-independent basis, Debye):
    X=              2.3655    Y=             -5.9446    Z=             -0.0006  Tot=              6.3980
 Quadrupole moment (field-independent basis, Debye-Ang):
   XX=            -81.8482   YY=            -96.0461   ZZ=           -104.1998
   XY=             -6.2984   XZ=             -0.0008   YZ=             -0.0015

  Exact polarizability:     348.270    -120.305     293.991      -0.001       0.001      63.305
 Approx polarizability:     275.830     -39.598     265.500      -0.001       0.002      82.047

 ******    1 imaginary frequencies (negative Signs) ******

                      1                      2                      3
                      A                      A                      A
 Frequencies --    -84.1529                47.5324               102.4400
 Red. masses --      6.1568                 6.5184                 5.0358
 Frc consts  --      0.0257                 0.0087                 0.0311
 IR Inten    --      2.2454                 1.4428                 0.0778

                      4                      5                      6
                      A                      A                      A
 Frequencies --    110.0785               174.6290               227.0881
 Red. masses --      5.7297                 5.1333                 5.6110
 Frc consts  --      0.0409                 0.0922                 0.1705
 IR Inten    --      6.8364                 0.0018                 0.9192

                      7                      8                      9
                      A                      A                      A
 Frequencies --    263.0763               270.4124               305.9566
 Red. masses --      7.5599                 4.4150                 8.1643
 Frc consts  --      0.3083                 0.1902                 0.4503
 IR Inten    --      1.3290                 2.3946                 2.3993

                     10                     11                     12
                      A                      A                      A
 Frequencies --    343.5602               375.3284               424.5480
 Red. masses --      4.4903                 7.5521                 3.5538
 Frc consts  --      0.3123                 0.6268                 0.3774
 IR Inten    --      0.9969                 7.9922                 6.2881

                     13                     14                     15
                      A                      A                      A
 Frequencies --    444.2527               499.0833               513.0569
 Red. masses --      4.3133                 8.1729                 3.2024
 Frc consts  --      0.5016                 1.1994                 0.4967
 IR Inten    --      4.9206                10.8614                 0.2338

                     16                     17                     18
                      A                      A                      A
 Frequencies --    539.8564               553.3229               553.3718
 Red. masses --      8.6168                 6.8347                 3.2386
 Frc consts  --      1.4796                 1.2329                 0.5843
 IR Inten    --     12.2171                40.9613                 7.7066

                     19                     20                     21
                      A                      A                      A
 Frequencies --    566.7750               605.7574               641.7552
 Red. masses --      7.3132                 1.1746                 6.2556
 Frc consts  --      1.3841                 0.2539                 1.5180
 IR Inten    --      7.7146                55.6384                29.0072

                     22                     23                     24
                      A                      A                      A
 Frequencies --    689.2024               702.0605               733.6446
 Red. masses --      1.5272                 6.0898                 7.8519
 Frc consts  --      0.4274                 1.7685                 2.4900
 IR Inten    --     24.3047                 2.0868                 4.6389

                     25                     26                     27
                      A                      A                      A
 Frequencies --    744.5180               760.7320               768.6286
 Red. masses --      2.6782                 1.7188                 1.6315
 Frc consts  --      0.8747                 0.5861                 0.5679
 IR Inten    --     14.3640                 8.2845                98.5297

                     28                     29                     30
                      A                      A                      A
 Frequencies --    814.2217               841.2284               866.4142
 Red. masses --      6.3502                 1.8638                 1.3756
 Frc consts  --      2.4804                 0.7771                 0.6084
 IR Inten    --     17.7532                 0.9964                 1.5075

                     31                     32                     33
                      A                      A                      A
 Frequencies --    895.3772               904.5383               953.2842
 Red. masses --      5.4251                 1.4321                 1.3602
 Frc consts  --      2.5625                 0.6904                 0.7283
 IR Inten    --      0.5449                 9.1578                 0.6446

                     34                     35                     36
                      A                      A                      A
 Frequencies --    958.4863               961.2067              1004.7210
 Red. masses --      1.3483                 5.0532                 1.2933
 Frc consts  --      0.7298                 2.7508                 0.7692
 IR Inten    --      1.6756                 0.8094                 0.0025

                     37                     38                     39
                      A                      A                      A
 Frequencies --   1040.0463              1054.6072              1084.0105
 Red. masses --      2.2508                 2.1987                 3.7686
 Frc consts  --      1.4345                 1.4408                 2.6092
 IR Inten    --      0.6113                 9.8195                 0.9651

                     40                     41                     42
                      A                      A                      A
 Frequencies --   1100.1403              1151.6979              1158.0692
 Red. masses --      1.6690                 1.3234                 1.1949
 Frc consts  --      1.1902                 1.0342                 0.9442
 IR Inten    --     38.0176                 5.0674                74.9618

                     43                     44                     45
                      A                      A                      A
 Frequencies --   1179.4897              1189.0680              1239.6655
 Red. masses --      1.1985                 1.4588                 2.3838
 Frc consts  --      0.9824                 1.2152                 2.1584
 IR Inten    --     59.1793                37.1684                18.0942

                     46                     47                     48
                      A                      A                      A
 Frequencies --   1260.2655              1298.4825              1336.9568
 Red. masses --      2.4558                 1.5776                 4.0130
 Frc consts  --      2.2981                 1.5672                 4.2263
 IR Inten    --     64.1429                 8.3771                23.3672

                     49                     50                     51
                      A                      A                      A
 Frequencies --   1366.1749              1393.4240              1402.3155
 Red. masses --      2.7033                 2.3144                 4.8881
 Frc consts  --      2.9728                 2.6476                 5.6634
 IR Inten    --     55.9016                40.8289                56.4772

                     52                     53                     54
                      A                      A                      A
 Frequencies --   1444.6103              1471.7501              1518.5905
 Red. masses --      2.9365                 3.0324                 3.2030
 Frc consts  --      3.6106                 3.8699                 4.3520
 IR Inten    --    143.1098                 4.4955                77.0082

                     55                     56                     57
                      A                      A                      A
 Frequencies --   1522.9862              1560.2190              1605.6994
 Red. masses --      3.2607                 5.6207                 5.2519
 Frc consts  --      4.4560                 8.0615                 7.9780
 IR Inten    --     19.4482               186.5401               115.4547

                     58                     59                     60
                      A                      A                      A
 Frequencies --   1638.4786              1665.9930              1676.7421
 Red. masses --      8.2116                 6.9967                 7.0287
 Frc consts  --     12.9886                11.4417                11.6428
 IR Inten    --    143.4917                54.2590               105.3223

                     61                     62                     63
                      A                      A                      A
 Frequencies --   3187.3717              3207.6847              3213.9305
 Red. masses --      1.0892                 1.0861                 1.0864
 Frc consts  --      6.5199                 6.5842                 6.6120
 IR Inten    --     23.6747                 2.0915                 5.5868

                     64                     65                     66
                      A                      A                      A
 Frequencies --   3219.5602              3225.2484              3232.7391
 Red. masses --      1.0915                 1.0901                 1.0990
 Frc consts  --      6.6658                 6.6813                 6.7667
 IR Inten    --     13.3761                 2.5489                26.8921

                     67                     68                     69
                      A                      A                      A
 Frequencies --   3233.3935              3241.6367              3755.7838
 Red. masses --      1.0961                 1.0994                 1.0807
 Frc consts  --      6.7520                 6.8067                 8.9818
 IR Inten    --      6.3729                12.9317               421.0030

 - Thermochemistry -
 -------------------
 Temperature   298.150 Kelvin.  Pressure   1.00000 Atm.
 Atom     1 has atomic number  6 and mass  12.00000

 Molecular mass:   227.04049 amu.
 Principal axes and moments of inertia in atomic units:
                           1         2         3
     Eigenvalues --  1289.034596494.684147783.71872
           X           -0.70477   0.70944   0.00000
           Y            0.70944   0.70477  -0.00001
           Z            0.00001   0.00001   1.00000
 This molecule is an asymmetric top.
 Rotational symmetry number  1.
 Warning -- assumption of classical behavior for rotation
           may cause significant error
 Rotational temperatures (Kelvin)      0.06719     0.01334     0.01113
 Rotational constants (GHZ):           1.40007     0.27788     0.23186
    1 imaginary frequencies ignored.
 Zero-point vibrational energy     490690.1 (Joules/Mol)
                                  117.27775 (Kcal/Mol)
 Warning -- explicit consideration of  19 degrees of freedom as
           vibrations may cause significant error
 Vibrational temperatures:     68.39   147.39   158.38   251.25   326.73
          (Kelvin)            378.51   389.06   440.20   494.31   540.01
                              610.83   639.18   718.07   738.17   776.73
                              796.11   796.18   815.46   871.55   923.34
                              991.61  1010.11  1055.55  1071.20  1094.52
                             1105.89  1171.48  1210.34  1246.58  1288.25
                             1301.43  1371.56  1379.05  1382.96  1445.57
                             1496.39  1517.34  1559.65  1582.86  1657.04
                             1666.20  1697.02  1710.80  1783.60  1813.24
                             1868.23  1923.58  1965.62  2004.83  2017.62
                             2078.47  2117.52  2184.91  2191.24  2244.81
                             2310.24  2357.41  2396.99  2412.46  4585.92
                             4615.14  4624.13  4632.23  4640.41  4651.19
                             4652.13  4663.99  5403.74

 Zero-point correction=                           0.186894 (Hartree/Particle)
 Thermal correction to Energy=                    0.198592
 Thermal correction to Enthalpy=                  0.199536
 Thermal correction to Gibbs Free Energy=         0.148697
 Sum of electronic and zero-point Energies=          -1028.507338
 Sum of electronic and thermal Energies=             -1028.495640
 Sum of electronic and thermal Enthalpies=           -1028.494696
 Sum of electronic and thermal Free Energies=        -1028.545535

                     E (Thermal)             CV                S
                      KCal/Mol        Cal/Mol-Kelvin    Cal/Mol-Kelvin
 Total                  124.618             48.168            106.999
 Electronic               0.000              0.000              0.000
 Translational            0.889              2.981             42.162
 Rotational               0.889              2.981             32.544
 Vibrational            122.841             42.206             32.293
 Vibration     1          0.595              1.979              4.917
 Vibration     2          0.605              1.947              3.407
 Vibration     3          0.606              1.941              3.268
 Vibration     4          0.627              1.874              2.385
 Vibration     5          0.651              1.800              1.902
 Vibration     6          0.670              1.741              1.641
 Vibration     7          0.674              1.728              1.594
 Vibration     8          0.696              1.662              1.384
 Vibration     9          0.722              1.588              1.196
 Vibration    10          0.746              1.523              1.058
 Vibration    11          0.787              1.417              0.877
 Vibration    12          0.804              1.374              0.813
 Vibration    13          0.855              1.252              0.660
 Vibration    14          0.868              1.221              0.626
 Vibration    15          0.895              1.162              0.566
 Vibration    16          0.909              1.132              0.537
 Vibration    17          0.909              1.132              0.537
 Vibration    18          0.923              1.103              0.510
 Vibration    19          0.964              1.020              0.440

 Optimization completed.
    -- Stationary point found.
 Normal termination of Gaussian 16 at Mon Jul 13 19:54:12 2020.
