 Gaussian 16, Revision C.01,
 Gaussian 16:  ES64L-G16RevC.01  3-Jul-2019

 ----------------------------------------------------------------------
 #p opt=addgic freq td wb97xd/cc-pvdz nosymm int=ultrafine scrf=(solven
 t=CarbonTetraChloride)
 ----------------------------------------------------------------------

 ------------------------------------------------
 NM 2D-scan of HBT TD-WB97XD pVDZ in CTC Relaxed.
 ------------------------------------------------
 Symbolic Z-matrix:
 Charge =  0 Multiplicity = 1

 SCF Done:  E(RwB97XD) =  -1028.81859896     A.U. after   15 cycles
 Total Energy, E(TD-HF/TD-DFT) =  -1028.69164362
 SCF Done:  E(RwB97XD) =  -1028.81857080     A.U. after   11 cycles
 Total Energy, E(TD-HF/TD-DFT) =  -1028.69203401
 SCF Done:  E(RwB97XD) =  -1028.81760906     A.U. after   12 cycles
 Total Energy, E(TD-HF/TD-DFT) =  -1028.69215399
 SCF Done:  E(RwB97XD) =  -1028.81786967     A.U. after   10 cycles
 Total Energy, E(TD-HF/TD-DFT) =  -1028.69222460
 SCF Done:  E(RwB97XD) =  -1028.81795866     A.U. after   10 cycles
 Total Energy, E(TD-HF/TD-DFT) =  -1028.69223086
 SCF Done:  E(RwB97XD) =  -1028.81797177     A.U. after    7 cycles
 Total Energy, E(TD-HF/TD-DFT) =  -1028.69223094
 SCF Done:  E(RwB97XD) =  -1028.81798105     A.U. after    7 cycles
 Total Energy, E(TD-HF/TD-DFT) =  -1028.69223104
 Optimization completed.
    -- Stationary point found.
 Normal termination of Gaussian 16 at Mon Jul 13 14:08:58 2020.

 ----------------------------------------------------------------------
 #P Geom=AllCheck Guess=TCheck SCRF=Check GenChk RwB97XD TD(FC,Read)/CC
 -pVDZ Freq
 ----------------------------------------------------------------------

 Structure from the checkpoint file:  "config_5_7.chk"
 ------------------------------------------------
 NM 2D-scan of HBT TD-WB97XD pVDZ in CTC Relaxed.
 ------------------------------------------------
 Charge =  0 Multiplicity = 1

                          Input orientation:
 ---------------------------------------------------------------------
 Center     Atomic      Atomic             Coordinates (Angstroms)
 Number     Number       Type             X           Y           Z
 ---------------------------------------------------------------------
      1          6           0        1.676589   -3.271825   -0.000035
      2          6           0        0.994728   -2.057798   -0.000016
      3          6           0        1.698201   -0.815829   -0.000004
      4          6           0        3.112861   -0.818940   -0.000009
      5          6           0        3.776459   -2.031531   -0.000028
      6          6           0        3.071757   -3.251108   -0.000041
      7          1           0        1.134672   -4.218362   -0.000045
      8          1           0        3.649573    0.130314    0.000001
      9          1           0        4.867872   -2.045977   -0.000033
     10          1           0        3.621880   -4.193089   -0.000056
     11          7           0        0.915216    0.275437    0.000011
     12         16           0       -0.738387   -1.764517   -0.000005
     13          6           0       -1.377172    1.022788    0.000019
     14          6           0       -2.776980    0.838013    0.000013
     15          6           0       -0.886075    2.420420    0.000030
     16          6           0       -3.645144    1.929783    0.000023
     17          1           0       -3.182502   -0.175227    0.000000
     18          6           0       -1.796749    3.494297    0.000041
     19          6           0       -3.166675    3.258358    0.000038
     20          1           0       -4.721390    1.749446    0.000020
     21          1           0       -1.381322    4.502513    0.000050
     22          1           0       -3.868868    4.092247    0.000047
     23          6           0       -0.413053   -0.014150    0.000011
     24          8           0        0.392254    2.666989    0.000030
     25          1           0        0.891110    1.713377    0.000035
 ---------------------------------------------------------------------

 SCF Done:  E(RwB97XD) =  -1028.81798105     A.U. after    1 cycles

 Excitation energies and oscillator strengths:

 Excited state symmetry could not be determined.
 Excited State   1:      Singlet-?Sym    3.4218 eV  362.33 nm  f=0.5992  <S**2>=0.000
      59 -> 60         0.69093
 This state for optimization and/or second-order correction.
 Total Energy, E(TD-HF/TD-DFT) =  -1028.69223105
 Copying the excited state density for this state as the 1-particle RhoCI density.

 Excited state symmetry could not be determined.
 Excited State   2:      Singlet-?Sym    4.3916 eV  282.32 nm  f=0.3059  <S**2>=0.000
      57 -> 60         0.17551
      58 -> 60         0.64591
      59 -> 62         0.10911
      59 -> 64         0.11230

 Excited state symmetry could not be determined.
 Excited State   3:      Singlet-?Sym    4.6624 eV  265.93 nm  f=0.0491  <S**2>=0.000
      56 -> 61        -0.10337
      57 -> 60         0.58240
      57 -> 62        -0.14683
      58 -> 60        -0.17205
      58 -> 61        -0.16178
      59 -> 61         0.23397

 Alpha  occ. eigenvalues --  -89.09368 -19.26952 -14.47581 -10.40188 -10.37794
 Alpha  occ. eigenvalues --  -10.35368 -10.35048 -10.32413 -10.32323 -10.32174
 Alpha  occ. eigenvalues --  -10.31780 -10.31686 -10.31590 -10.31519 -10.30223
 Alpha  occ. eigenvalues --  -10.29997  -8.11305  -6.06161  -6.05814  -6.05358
 Alpha  occ. eigenvalues --   -1.16055  -1.08811  -0.96840  -0.95586  -0.91982
 Alpha  occ. eigenvalues --   -0.88858  -0.85102  -0.84179  -0.82419  -0.75932
 Alpha  occ. eigenvalues --   -0.71092  -0.70338  -0.69001  -0.68263  -0.63444
 Alpha  occ. eigenvalues --   -0.60603  -0.58948  -0.58463  -0.55699  -0.54368
 Alpha  occ. eigenvalues --   -0.54105  -0.53131  -0.52872  -0.51048  -0.50117
 Alpha  occ. eigenvalues --   -0.49640  -0.47448  -0.46057  -0.45571  -0.44812
 Alpha  occ. eigenvalues --   -0.43938  -0.42647  -0.42619  -0.40238  -0.36534
 Alpha  occ. eigenvalues --   -0.36502  -0.32387  -0.31260  -0.27887
 Alpha virt. eigenvalues --   -0.01749   0.04887   0.06913   0.07250   0.07472
 Alpha virt. eigenvalues --    0.10914   0.13671   0.15086   0.16150   0.17945
 Alpha virt. eigenvalues --    0.18684   0.20967   0.21696   0.22430   0.22513

 Mulliken charges:
               1
     1  C    0.013739
     2  C   -0.229816
     3  C    0.253368
     4  C   -0.016327
     5  C    0.008925
     6  C   -0.005048
     7  H    0.019470
     8  H    0.020098
     9  H    0.020377
    10  H    0.021558
    11  N   -0.348574
    12  S    0.166199
    13  C   -0.100848
    14  C   -0.019279
    15  C    0.102788
    16  C   -0.019777
    17  H    0.010923
    18  C    0.000513
    19  C    0.025190
    20  H    0.009621
    21  H    0.015804
    22  H    0.021442
    23  C    0.081721
    24  O   -0.249588
    25  H    0.197523
 Sum of Mulliken charges =  -0.00000

 Dipole moment (field-independent basis, Debye):
    X=             -0.0536    Y=             -2.6108    Z=             -0.0000  Tot=              2.6114
 Quadrupole moment (field-independent basis, Debye-Ang):
   XX=            -83.2856   YY=            -89.9289   ZZ=           -104.3491
   XY=             -6.9804   XZ=             -0.0001   YZ=              0.0002

  Exact polarizability:     386.841    -171.977     357.335      -0.002       0.003      63.382
 Approx polarizability:     277.002     -35.580     260.696      -0.001       0.002      82.387

                      1                      2                      3
                      A                      A                      A
 Frequencies --     37.2916                50.4327                84.6882
 Red. masses --      5.9907                 6.8792                 5.1019
 Frc consts  --      0.0049                 0.0103                 0.0216
 IR Inten    --      0.7775                 0.7990                 1.0167

                      4                      5                      6
                      A                      A                      A
 Frequencies --    108.5513               177.3699               222.7418
 Red. masses --      4.7023                 6.1048                 5.3560
 Frc consts  --      0.0326                 0.1132                 0.1566
 IR Inten    --      0.1018                 0.8731                 0.0235

                      7                      8                      9
                      A                      A                      A
 Frequencies --    269.5156               270.7578               274.2481
 Red. masses --      7.5022                 4.7978                 5.0851
 Frc consts  --      0.3211                 0.2072                 0.2253
 IR Inten    --     26.1104                 0.1368                17.1308

                     10                     11                     12
                      A                      A                      A
 Frequencies --    382.8579               401.1217               438.1264
 Red. masses --      4.7584                 8.8247                 3.2426
 Frc consts  --      0.4110                 0.8366                 0.3667
 IR Inten    --      0.2306                 8.5804                 4.5616

                     13                     14                     15
                      A                      A                      A
 Frequencies --    481.3117               485.3164               498.6295
 Red. masses --      4.1453                 4.6957                 3.1659
 Frc consts  --      0.5658                 0.6516                 0.4638
 IR Inten    --     10.3301                 0.0333                 0.1134

                     16                     17                     18
                      A                      A                      A
 Frequencies --    504.1111               531.4882               555.1844
 Red. masses --      8.6960                 8.2227                 3.9413
 Frc consts  --      1.3020                 1.3685                 0.7158
 IR Inten    --      0.2004                27.9716                 0.1492

                     19                     20                     21
                      A                      A                      A
 Frequencies --    579.1339               636.9207               703.6593
 Red. masses --      7.5628                 6.7822                 6.9639
 Frc consts  --      1.4945                 1.6210                 2.0315
 IR Inten    --      6.3432                45.4152                 1.4285

                     22                     23                     24
                      A                      A                      A
 Frequencies --    705.0688               730.5090               739.3056
 Red. masses --      1.6817                 9.5478                 2.0087
 Frc consts  --      0.4926                 3.0020                 0.6469
 IR Inten    --     43.4583                20.2878                24.3425

                     25                     26                     27
                      A                      A                      A
 Frequencies --    757.3582               769.8153               816.3639
 Red. masses --      1.9248                 1.9358                 6.2607
 Frc consts  --      0.6505                 0.6759                 2.4583
 IR Inten    --     28.4633                56.3493                 8.5703

                     28                     29                     30
                      A                      A                      A
 Frequencies --    819.6285               861.6151               899.9866
 Red. masses --      1.6391                 1.4112                 6.3901
 Frc consts  --      0.6488                 0.6173                 3.0495
 IR Inten    --      0.0369                 0.9277                59.0129

                     31                     32                     33
                      A                      A                      A
 Frequencies --    912.3724               954.2722               961.0644
 Red. masses --      1.3595                 1.3430                 1.3737
 Frc consts  --      0.6668                 0.7206                 0.7475
 IR Inten    --      5.3774                 1.8007                 0.3417

                     34                     35                     36
                      A                      A                      A
 Frequencies --    968.3284              1000.2916              1037.9398
 Red. masses --      6.7940                 1.2961                 2.1800
 Frc consts  --      3.7534                 0.7641                 1.3837
 IR Inten    --     11.0604                 0.0102                 0.8688

                     37                     38                     39
                      A                      A                      A
 Frequencies --   1044.9505              1075.4584              1123.2272
 Red. masses --      2.2220                 3.6822                 1.6773
 Frc consts  --      1.4295                 2.5093                 1.2468
 IR Inten    --      0.5399                57.8857                44.7326

                     40                     41                     42
                      A                      A                      A
 Frequencies --   1145.6585              1149.3792              1170.1488
 Red. masses --      1.3365                 1.0565                 1.1890
 Frc consts  --      1.0335                 0.8224                 0.9593
 IR Inten    --     12.4843                65.0409                25.1658

                     43                     44                     45
                      A                      A                      A
 Frequencies --   1177.8152              1223.0446              1247.8937
 Red. masses --      1.1792                 2.2063                 1.9213
 Frc consts  --      0.9638                 1.9445                 1.7628
 IR Inten    --     14.2937                78.2909                99.9484

                     46                     47                     48
                      A                      A                      A
 Frequencies --   1263.3508              1287.6637              1365.8770
 Red. masses --      3.4905                 1.8325                 2.6483
 Frc consts  --      3.2824                 1.7902                 2.9109
 IR Inten    --     85.3257                14.4421                26.0020

                     49                     50                     51
                      A                      A                      A
 Frequencies --   1375.0935              1403.5719              1440.8243
 Red. masses --      5.1085                 2.1590                 2.3145
 Frc consts  --      5.6912                 2.5059                 2.8309
 IR Inten    --    166.5758                 0.7163                83.9665

                     52                     53                     54
                      A                      A                      A
 Frequencies --   1466.6585              1485.4116              1525.1700
 Red. masses --      4.9325                 2.8347                 5.0606
 Frc consts  --      6.2514                 3.6851                 6.9357
 IR Inten    --     58.1582               212.6209               349.0818

                     55                     56                     57
                      A                      A                      A
 Frequencies --   1538.6286              1561.3043              1564.2588
 Red. masses --      4.4213                 5.2492                 3.5462
 Frc consts  --      6.1670                 7.5390                 5.1125
 IR Inten    --    100.3866               549.3322                56.8225

                     58                     59                     60
                      A                      A                      A
 Frequencies --   1615.2708              1648.9894              1666.5336
 Red. masses --      5.9563                 5.4792                 2.5905
 Frc consts  --      9.1563                 8.7782                 4.2389
 IR Inten    --    307.7995               644.3398               371.4095

                     61                     62                     63
                      A                      A                      A
 Frequencies --   1928.9004              3205.8470              3207.6382
 Red. masses --      1.1494                 1.0873                 1.0864
 Frc consts  --      2.5197                 6.5842                 6.5858
 IR Inten    --    369.8811                 9.1426                 9.1330

                     64                     65                     66
                      A                      A                      A
 Frequencies --   3218.2229              3219.2731              3226.7373
 Red. masses --      1.0885                 1.0899                 1.0935
 Frc consts  --      6.6420                 6.6554                 6.7083
 IR Inten    --      2.0778                 3.1296                16.5693

                     67                     68                     69
                      A                      A                      A
 Frequencies --   3230.9954              3237.0191              3238.8204
 Red. masses --      1.0953                 1.0991                 1.0986
 Frc consts  --      6.7366                 6.7852                 6.7902
 IR Inten    --     10.8656                38.0233                17.4186

 - Thermochemistry -
 -------------------
 Temperature   298.150 Kelvin.  Pressure   1.00000 Atm.
 Atom     1 has atomic number  6 and mass  12.00000

 Molecular mass:   227.04049 amu.
 Principal axes and moments of inertia in atomic units:
                           1         2         3
     Eigenvalues --  1320.535766318.997547639.53330
           X           -0.70225   0.71193   0.00000
           Y            0.71193   0.70225  -0.00001
           Z            0.00001   0.00001   1.00000
 This molecule is an asymmetric top.
 Rotational symmetry number  1.
 Warning -- assumption of classical behavior for rotation
           may cause significant error
 Rotational temperatures (Kelvin)      0.06559     0.01371     0.01134
 Rotational constants (GHZ):           1.36667     0.28561     0.23624
 Zero-point vibrational energy     483931.4 (Joules/Mol)
                                  115.66238 (Kcal/Mol)
 Warning -- explicit consideration of  19 degrees of freedom as
           vibrations may cause significant error
 Vibrational temperatures:     53.65    72.56   121.85   156.18   255.20
          (Kelvin)            320.48   387.77   389.56   394.58   550.85
                              577.12   630.37   692.50   698.26   717.42
                              725.30   764.69   798.79   833.24   916.39
                             1012.41  1014.44  1051.04  1063.70  1089.67
                             1107.59  1174.57  1179.26  1239.67  1294.88
                             1312.70  1372.98  1382.76  1393.21  1439.20
                             1493.36  1503.45  1547.34  1616.07  1648.35
                             1653.70  1683.58  1694.61  1759.69  1795.44
                             1817.68  1852.66  1965.19  1978.45  2019.43
                             2073.02  2110.19  2137.18  2194.38  2213.74
                             2246.37  2250.62  2324.01  2372.53  2397.77
                             2775.26  4612.50  4615.08  4630.31  4631.82
                             4642.56  4648.68  4657.35  4659.94

 Zero-point correction=                           0.184320 (Hartree/Particle)
 Thermal correction to Energy=                    0.196745
 Thermal correction to Enthalpy=                  0.197689
 Thermal correction to Gibbs Free Energy=         0.144398
 Sum of electronic and zero-point Energies=          -1028.507911
 Sum of electronic and thermal Energies=             -1028.495486
 Sum of electronic and thermal Enthalpies=           -1028.494542
 Sum of electronic and thermal Free Energies=        -1028.547833

                     E (Thermal)             CV                S
                      KCal/Mol        Cal/Mol-Kelvin    Cal/Mol-Kelvin
 Total                  123.460             49.309            112.162
 Electronic               0.000              0.000              0.000
 Translational            0.889              2.981             42.162
 Rotational               0.889              2.981             32.522
 Vibrational            121.682             43.348             37.478
 Vibration     1          0.594              1.982              5.398
 Vibration     2          0.595              1.977              4.800
 Vibration     3          0.601              1.960              3.779
 Vibration     4          0.606              1.942              3.295
 Vibration     5          0.628              1.870              2.356
 Vibration     6          0.648              1.806              1.937
 Vibration     7          0.674              1.729              1.599
 Vibration     8          0.674              1.727              1.591
 Vibration     9          0.677              1.721              1.569
 Vibration    10          0.752              1.507              1.028
 Vibration    11          0.767              1.468              0.959
 Vibration    12          0.798              1.387              0.833
 Vibration    13          0.838              1.292              0.707
 Vibration    14          0.841              1.283              0.696
 Vibration    15          0.854              1.253              0.662
 Vibration    16          0.859              1.241              0.648
 Vibration    17          0.886              1.180              0.584
 Vibration    18          0.911              1.128              0.534
 Vibration    19          0.936              1.076              0.487

 Optimization completed.
    -- Stationary point found.
 Normal termination of Gaussian 16 at Mon Jul 13 14:26:41 2020.
