 Gaussian 16, Revision C.01,
 Gaussian 16:  ES64L-G16RevC.01  3-Jul-2019

 ----------------------------------------------------------------------
 #p opt=addgic freq td wb97xd/cc-pvdz nosymm int=ultrafine scrf=(solven
 t=CarbonTetraChloride)
 ----------------------------------------------------------------------

 ------------------------------------------------
 NM 2D-scan of HBT TD-WB97XD pVDZ in CTC Relaxed.
 ------------------------------------------------
 Symbolic Z-matrix:
 Charge =  0 Multiplicity = 1

 SCF Done:  E(RwB97XD) =  -1028.39466237     A.U. after   16 cycles
 Total Energy, E(TD-HF/TD-DFT) =  -1028.29072299
 SCF Done:  E(RwB97XD) =  -1028.66511944     A.U. after   14 cycles
 Total Energy, E(TD-HF/TD-DFT) =  -1028.56400769
 SCF Done:  E(RwB97XD) =  -1028.76789492     A.U. after   15 cycles
 Total Energy, E(TD-HF/TD-DFT) =  -1028.67211939
 SCF Done:  E(RwB97XD) =  -1028.77973236     A.U. after   14 cycles
 Total Energy, E(TD-HF/TD-DFT) =  -1028.68369039
 SCF Done:  E(RwB97XD) =  -1028.78301278     A.U. after   12 cycles
 Total Energy, E(TD-HF/TD-DFT) =  -1028.68507972
 SCF Done:  E(RwB97XD) =  -1028.78330572     A.U. after   12 cycles
 Total Energy, E(TD-HF/TD-DFT) =  -1028.68521910
 SCF Done:  E(RwB97XD) =  -1028.78341454     A.U. after   11 cycles
 Total Energy, E(TD-HF/TD-DFT) =  -1028.68523752
 Optimization completed.
    -- Stationary point found.
 Normal termination of Gaussian 16 at Tue Jul 14 11:06:12 2020.

 ----------------------------------------------------------------------
 #P Geom=AllCheck Guess=TCheck SCRF=Check GenChk RwB97XD TD(FC,Read)/CC
 -pVDZ Freq
 ----------------------------------------------------------------------

 Structure from the checkpoint file:  "config_12_16.chk"
 ------------------------------------------------
 NM 2D-scan of HBT TD-WB97XD pVDZ in CTC Relaxed.
 ------------------------------------------------
 Charge =  0 Multiplicity = 1

                          Input orientation:
 ---------------------------------------------------------------------
 Center     Atomic      Atomic             Coordinates (Angstroms)
 Number     Number       Type             X           Y           Z
 ---------------------------------------------------------------------
      1          6           0        1.583793   -3.298140    0.000182
      2          6           0        1.016817   -2.032012    0.000083
      3          6           0        1.809461   -0.890424   -0.000099
      4          6           0        3.207801   -0.977894   -0.000180
      5          6           0        3.771933   -2.252236   -0.000082
      6          6           0        2.974435   -3.401231    0.000097
      7          1           0        0.955943   -4.188985    0.000316
      8          1           0        3.829983   -0.081398   -0.000318
      9          1           0        4.858689   -2.348954   -0.000145
     10          1           0        3.441904   -4.386114    0.000167
     11          7           0        1.029062    0.237147   -0.000190
     12         16           0       -0.689696   -1.587358    0.000132
     13          6           0       -1.364488    1.129717   -0.000049
     14          6           0       -2.703148    0.801383   -0.000184
     15          6           0       -0.942496    2.538635    0.000165
     16          6           0       -3.723171    1.809455   -0.000104
     17          1           0       -3.016185   -0.245990   -0.000364
     18          6           0       -2.010610    3.510185    0.000234
     19          6           0       -3.374621    3.147755    0.000106
     20          1           0       -4.768773    1.497634   -0.000208
     21          1           0       -1.719384    4.562669    0.000434
     22          1           0       -4.148633    3.917309    0.000176
     23          6           0       -0.335347    0.108216   -0.000067
     24          8           0        0.279556    2.778549    0.000317
     25          1           0        1.606679    1.038617   -0.000330
 ---------------------------------------------------------------------

 SCF Done:  E(RwB97XD) =  -1028.78341454     A.U. after    1 cycles

 Excitation energies and oscillator strengths:

 Excited state symmetry could not be determined.
 Excited State   1:      Singlet-?Sym    2.6715 eV  464.09 nm  f=0.4329  <S**2>=0.000
      59 -> 60         0.69789
 This state for optimization and/or second-order correction.
 Total Energy, E(TD-HF/TD-DFT) =  -1028.68523750
 Copying the excited state density for this state as the 1-particle RhoCI density.

 Excited state symmetry could not be determined.
 Excited State   2:      Singlet-?Sym    3.2445 eV  382.13 nm  f=0.0000  <S**2>=0.000
      58 -> 60         0.68457
      58 -> 62         0.11221
      58 -> 64         0.10001

 Excited state symmetry could not be determined.
 Excited State   3:      Singlet-?Sym    4.2642 eV  290.76 nm  f=0.4253  <S**2>=0.000
      57 -> 60         0.68454

 Alpha  occ. eigenvalues --  -89.10447 -19.19824 -14.53350 -10.42831 -10.37429
 Alpha  occ. eigenvalues --  -10.36126 -10.35097 -10.33577 -10.33543 -10.32976
 Alpha  occ. eigenvalues --  -10.32627 -10.31309 -10.30726 -10.30523 -10.28975
 Alpha  occ. eigenvalues --  -10.28089  -8.12510  -6.07388  -6.06991  -6.06532
 Alpha  occ. eigenvalues --   -1.13390  -1.08965  -0.98739  -0.95946  -0.93274
 Alpha  occ. eigenvalues --   -0.89034  -0.86919  -0.84051  -0.80581  -0.75968
 Alpha  occ. eigenvalues --   -0.74841  -0.72065  -0.69450  -0.67445  -0.64739
 Alpha  occ. eigenvalues --   -0.61097  -0.59782  -0.56513  -0.56317  -0.56115
 Alpha  occ. eigenvalues --   -0.55114  -0.53688  -0.53023  -0.50312  -0.48697
 Alpha  occ. eigenvalues --   -0.48669  -0.48155  -0.47105  -0.45618  -0.44900
 Alpha  occ. eigenvalues --   -0.43893  -0.42725  -0.42273  -0.39752  -0.36968
 Alpha  occ. eigenvalues --   -0.33884  -0.31573  -0.30377  -0.25184
 Alpha virt. eigenvalues --   -0.02312   0.03480   0.05573   0.06745   0.09850
 Alpha virt. eigenvalues --    0.10970   0.13496   0.14416   0.15806   0.16449
 Alpha virt. eigenvalues --    0.17744   0.19731   0.20767   0.21207   0.22607

 Mulliken charges:
               1
     1  C    0.017115
     2  C   -0.237254
     3  C    0.195833
     4  C   -0.012525
     5  C    0.011997
     6  C    0.004962
     7  H    0.025447
     8  H    0.032844
     9  H    0.029730
    10  H    0.028183
    11  N   -0.088144
    12  S    0.199788
    13  C   -0.060664
    14  C   -0.042604
    15  C    0.100093
    16  C   -0.038459
    17  H    0.009700
    18  C   -0.063639
    19  C    0.035054
    20  H    0.000307
    21  H   -0.001898
    22  H    0.013540
    23  C    0.094142
    24  O   -0.374952
    25  H    0.121406
 Sum of Mulliken charges =  -0.00000

 Dipole moment (field-independent basis, Debye):
    X=              2.8573    Y=             -6.3898    Z=             -0.0009  Tot=              6.9995
 Quadrupole moment (field-independent basis, Debye-Ang):
   XX=            -80.7870   YY=            -97.5507   ZZ=           -104.1242
   XY=             -5.7831   XZ=             -0.0015   YZ=             -0.0025

  Exact polarizability:     344.956    -115.835     287.159      -0.000       0.001      63.265
 Approx polarizability:     276.789     -40.560     264.208      -0.001       0.002      81.972

 ******    2 imaginary frequencies (negative Signs) ******

                      1                      2                      3
                      A                      A                      A
 Frequencies --   -145.9159               -46.0535                66.0501
 Red. masses --      1.8430                 6.1695                 6.2335
 Frc consts  --      0.0231                 0.0077                 0.0160
 IR Inten    --     32.4211                 0.2072                 2.2095

                      4                      5                      6
                      A                      A                      A
 Frequencies --    109.8088               152.0862               179.7526
 Red. masses --      5.7680                 3.0353                 5.6428
 Frc consts  --      0.0410                 0.0414                 0.1074
 IR Inten    --      5.4399                23.3563                 4.0963

                      7                      8                      9
                      A                      A                      A
 Frequencies --    244.3007               261.5525               279.5386
 Red. masses --      3.8276                 8.4999                 7.9120
 Frc consts  --      0.1346                 0.3426                 0.3643
 IR Inten    --      5.2328                 1.3917                 2.0678

                     10                     11                     12
                      A                      A                      A
 Frequencies --    314.4999               335.2182               377.0266
 Red. masses --      2.8441                 4.6011                 6.8655
 Frc consts  --      0.1657                 0.3046                 0.5750
 IR Inten    --     14.7191                 0.0955                 6.6575

                     13                     14                     15
                      A                      A                      A
 Frequencies --    431.6693               442.0781               501.6748
 Red. masses --      3.9355                 3.1072                 8.2053
 Frc consts  --      0.4321                 0.3578                 1.2167
 IR Inten    --      5.9616                 0.2701                10.8493

                     16                     17                     18
                      A                      A                      A
 Frequencies --    517.5500               536.7189               543.5983
 Red. masses --      3.2378                 6.2718                 8.7483
 Frc consts  --      0.5110                 1.0645                 1.5231
 IR Inten    --      0.4699                31.7562                23.8790

                     19                     20                     21
                      A                      A                      A
 Frequencies --    559.8518               565.5252               642.2760
 Red. masses --      3.8016                 7.4128                 6.5428
 Frc consts  --      0.7020                 1.3968                 1.5902
 IR Inten    --      0.1056                 3.7072                 8.6172

                     22                     23                     24
                      A                      A                      A
 Frequencies --    689.4991               707.2971               739.8978
 Red. masses --      1.4905                 5.6181                 7.3721
 Frc consts  --      0.4175                 1.6559                 2.3779
 IR Inten    --     33.8721                 1.5703                 5.7273

                     25                     26                     27
                      A                      A                      A
 Frequencies --    744.0615               756.3714               766.3904
 Red. masses --      2.3008                 1.6588                 1.7691
 Frc consts  --      0.7505                 0.5591                 0.6122
 IR Inten    --     22.6329                13.0661                79.6015

                     28                     29                     30
                      A                      A                      A
 Frequencies --    822.5978               836.3809               864.0132
 Red. masses --      6.2411                 2.1087                 1.3850
 Frc consts  --      2.4882                 0.8691                 0.6092
 IR Inten    --     14.7179                 1.6571                 1.1300

                     31                     32                     33
                      A                      A                      A
 Frequencies --    893.2651               898.3559               953.0499
 Red. masses --      5.9015                 1.4553                 1.3556
 Frc consts  --      2.7744                 0.6920                 0.7255
 IR Inten    --      3.6816                 9.3959                 0.2678

                     34                     35                     36
                      A                      A                      A
 Frequencies --    957.2435               971.0237              1002.8800
 Red. masses --      1.3535                 5.1411                 1.2973
 Frc consts  --      0.7307                 2.8561                 0.7688
 IR Inten    --      1.7468                 3.9312                 0.0001

                     37                     38                     39
                      A                      A                      A
 Frequencies --   1039.1642              1056.4828              1087.9779
 Red. masses --      2.3073                 2.1487                 2.5021
 Frc consts  --      1.4680                 1.4131                 1.7450
 IR Inten    --      0.8389                 9.0337                17.0836

                     40                     41                     42
                      A                      A                      A
 Frequencies --   1097.2940              1152.7424              1155.5083
 Red. masses --      2.1781                 1.4574                 1.2095
 Frc consts  --      1.5451                 1.1410                 0.9515
 IR Inten    --     12.8471                15.6300                62.4409

                     43                     44                     45
                      A                      A                      A
 Frequencies --   1170.1326              1179.8136              1221.0625
 Red. masses --      1.2783                 1.1489                 3.9223
 Frc consts  --      1.0313                 0.9423                 3.4456
 IR Inten    --     14.3445                 6.2497                27.9377

                     46                     47                     48
                      A                      A                      A
 Frequencies --   1241.2931              1303.2288              1331.4846
 Red. masses --      2.1188                 1.5463                 3.2774
 Frc consts  --      1.9235                 1.5474                 3.4234
 IR Inten    --     27.2991                 4.0072                13.8568

                     49                     50                     51
                      A                      A                      A
 Frequencies --   1354.9482              1403.0711              1408.3893
 Red. masses --      2.5816                 5.6977                 2.4282
 Frc consts  --      2.7925                 6.6086                 2.8378
 IR Inten    --     34.2636                82.9668                41.3633

                     52                     53                     54
                      A                      A                      A
 Frequencies --   1443.9372              1459.7390              1510.4773
 Red. masses --      2.7335                 3.5470                 3.6802
 Frc consts  --      3.3579                 4.4531                 4.9470
 IR Inten    --     71.1803                11.5338                92.5783

                     55                     56                     57
                      A                      A                      A
 Frequencies --   1525.3441              1534.8939              1620.3677
 Red. masses --      2.7966                 4.7031                 5.2477
 Frc consts  --      3.8336                 6.5281                 8.1179
 IR Inten    --      1.1824               192.8560                80.2368

                     58                     59                     60
                      A                      A                      A
 Frequencies --   1647.4128              1665.0101              1687.0843
 Red. masses --      9.5094                 6.8626                 7.4090
 Frc consts  --     15.2057                11.2091                12.4245
 IR Inten    --    167.0665                86.9973                21.7417

                     61                     62                     63
                      A                      A                      A
 Frequencies --   3192.8549              3207.0406              3210.0187
 Red. masses --      1.0888                 1.0864                 1.0872
 Frc consts  --      6.5397                 6.5831                 6.6007
 IR Inten    --     27.9307                 3.2974                 4.3453

                     64                     65                     66
                      A                      A                      A
 Frequencies --   3219.0423              3220.6363              3229.1084
 Red. masses --      1.0913                 1.0908                 1.0950
 Frc consts  --      6.6626                 6.6664                 6.7268
 IR Inten    --     15.6694                 1.4369                 7.4518

                     67                     68                     69
                      A                      A                      A
 Frequencies --   3232.5690              3240.3648              3946.6416
 Red. masses --      1.0991                 1.0991                 1.0786
 Frc consts  --      6.7665                 6.7996                 9.8986
 IR Inten    --     26.8658                12.6087               161.3683

 - Thermochemistry -
 -------------------
 Temperature   298.150 Kelvin.  Pressure   1.00000 Atm.
 Atom     1 has atomic number  6 and mass  12.00000

 Molecular mass:   227.04049 amu.
 Principal axes and moments of inertia in atomic units:
                           1         2         3
     Eigenvalues --  1250.915876562.740237813.65605
           X           -0.70682   0.70740   0.00000
           Y            0.70740   0.70682  -0.00001
           Z            0.00001   0.00001   1.00000
 This molecule is an asymmetric top.
 Rotational symmetry number  1.
 Warning -- assumption of classical behavior for rotation
           may cause significant error
 Rotational temperatures (Kelvin)      0.06924     0.01320     0.01108
 Rotational constants (GHZ):           1.44274     0.27500     0.23097
    2 imaginary frequencies ignored.
 Zero-point vibrational energy     488424.7 (Joules/Mol)
                                  116.73632 (Kcal/Mol)
 Warning -- explicit consideration of  18 degrees of freedom as
           vibrations may cause significant error
 Vibrational temperatures:     95.03   157.99   218.82   258.62   351.49
          (Kelvin)            376.32   402.19   452.50   482.30   542.46
                              621.08   636.05   721.80   744.64   772.22
                              782.12   805.50   813.66   924.09   992.04
                             1017.64  1064.55  1070.54  1088.25  1102.66
                             1183.53  1203.37  1243.12  1285.21  1292.53
                             1371.23  1377.26  1397.09  1442.92  1495.13
                             1520.04  1565.36  1578.76  1658.54  1662.52
                             1683.56  1697.49  1756.84  1785.94  1875.06
                             1915.71  1949.47  2018.71  2026.36  2077.50
                             2100.24  2173.24  2194.63  2208.37  2331.35
                             2370.26  2395.58  2427.34  4593.81  4614.22
                             4618.50  4631.48  4633.78  4645.97  4650.95
                             4662.16  5678.34

 Zero-point correction=                           0.186031 (Hartree/Particle)
 Thermal correction to Energy=                    0.197395
 Thermal correction to Enthalpy=                  0.198339
 Thermal correction to Gibbs Free Energy=         0.148508
 Sum of electronic and zero-point Energies=          -1028.499206
 Sum of electronic and thermal Energies=             -1028.487843
 Sum of electronic and thermal Enthalpies=           -1028.486899
 Sum of electronic and thermal Free Energies=        -1028.536730

                     E (Thermal)             CV                S
                      KCal/Mol        Cal/Mol-Kelvin    Cal/Mol-Kelvin
 Total                  123.867             47.062            104.878
 Electronic               0.000              0.000              0.000
 Translational            0.889              2.981             42.162
 Rotational               0.889              2.981             32.528
 Vibrational            122.090             41.100             30.188
 Vibration     1          0.597              1.970              4.268
 Vibration     2          0.606              1.941              3.272
 Vibration     3          0.619              1.900              2.646
 Vibration     4          0.629              1.867              2.331
 Vibration     5          0.660              1.772              1.771
 Vibration     6          0.669              1.743              1.651
 Vibration     7          0.680              1.711              1.536
 Vibration     8          0.702              1.646              1.339
 Vibration     9          0.716              1.605              1.235
 Vibration    10          0.748              1.519              1.051
 Vibration    11          0.793              1.401              0.853
 Vibration    12          0.802              1.378              0.820
 Vibration    13          0.857              1.246              0.654
 Vibration    14          0.873              1.211              0.616
 Vibration    15          0.892              1.169              0.572
 Vibration    16          0.899              1.154              0.558
 Vibration    17          0.915              1.118              0.524
 Vibration    18          0.921              1.106              0.513

 Optimization completed.
    -- Stationary point found.
 Normal termination of Gaussian 16 at Tue Jul 14 11:23:41 2020.
