 Gaussian 16, Revision C.01,
 Gaussian 16:  ES64L-G16RevC.01  3-Jul-2019

 ----------------------------------------------------------------------
 #p opt=addgic freq td wb97xd/cc-pvdz nosymm int=ultrafine scrf=(solven
 t=CarbonTetraChloride)
 ----------------------------------------------------------------------

 ------------------------------------------------
 NM 2D-scan of HBT TD-WB97XD pVDZ in CTC Relaxed.
 ------------------------------------------------
 Symbolic Z-matrix:
 Charge =  0 Multiplicity = 1

 SCF Done:  E(RwB97XD) =  -1028.81854447     A.U. after   15 cycles
 Total Energy, E(TD-HF/TD-DFT) =  -1028.69217183
 SCF Done:  E(RwB97XD) =  -1028.81837759     A.U. after   11 cycles
 Total Energy, E(TD-HF/TD-DFT) =  -1028.69229428
 SCF Done:  E(RwB97XD) =  -1028.81794051     A.U. after   11 cycles
 Total Energy, E(TD-HF/TD-DFT) =  -1028.69232992
 SCF Done:  E(RwB97XD) =  -1028.81798439     A.U. after    9 cycles
 Total Energy, E(TD-HF/TD-DFT) =  -1028.69233289
 SCF Done:  E(RwB97XD) =  -1028.81798540     A.U. after    8 cycles
 Total Energy, E(TD-HF/TD-DFT) =  -1028.69233597
 Optimization completed.
    -- Stationary point found.
 Normal termination of Gaussian 16 at Mon Jul 13 13:58:59 2020.

 ----------------------------------------------------------------------
 #P Geom=AllCheck Guess=TCheck SCRF=Check GenChk RwB97XD TD(FC,Read)/CC
 -pVDZ Freq
 ----------------------------------------------------------------------

 Structure from the checkpoint file:  "config_5_10.chk"
 ------------------------------------------------
 NM 2D-scan of HBT TD-WB97XD pVDZ in CTC Relaxed.
 ------------------------------------------------
 Charge =  0 Multiplicity = 1

                          Input orientation:
 ---------------------------------------------------------------------
 Center     Atomic      Atomic             Coordinates (Angstroms)
 Number     Number       Type             X           Y           Z
 ---------------------------------------------------------------------
      1          6           0        1.633580   -3.265719   -0.000034
      2          6           0        0.996350   -2.029110   -0.000023
      3          6           0        1.727157   -0.802731   -0.000010
      4          6           0        3.141207   -0.856703   -0.000009
      5          6           0        3.764204   -2.093624   -0.000020
      6          6           0        3.026487   -3.292742   -0.000032
      7          1           0        1.055334   -4.190462   -0.000044
      8          1           0        3.715316    0.070425    0.000001
      9          1           0        4.854771   -2.140591   -0.000018
     10          1           0        3.547992   -4.250759   -0.000041
     11          7           0        0.956437    0.305030   -0.000001
     12         16           0       -0.725616   -1.710418   -0.000021
     13          6           0       -1.356779    1.037016    0.000014
     14          6           0       -2.747234    0.803816    0.000019
     15          6           0       -0.895309    2.438626    0.000028
     16          6           0       -3.647280    1.868975    0.000033
     17          1           0       -3.120566   -0.221590    0.000012
     18          6           0       -1.837624    3.486996    0.000040
     19          6           0       -3.202426    3.208389    0.000042
     20          1           0       -4.718173    1.659402    0.000036
     21          1           0       -1.457558    4.509103    0.000049
     22          1           0       -3.927444    4.022630    0.000051
     23          6           0       -0.374688    0.021751   -0.000004
     24          8           0        0.380861    2.687559    0.000028
     25          1           0        0.899644    1.724778    0.000004
 ---------------------------------------------------------------------

 SCF Done:  E(RwB97XD) =  -1028.81798540     A.U. after    1 cycles

 Excitation energies and oscillator strengths:

 Excited state symmetry could not be determined.
 Excited State   1:      Singlet-?Sym    3.4191 eV  362.62 nm  f=0.5894  <S**2>=0.000
      59 -> 60         0.69102
 This state for optimization and/or second-order correction.
 Total Energy, E(TD-HF/TD-DFT) =  -1028.69233597
 Copying the excited state density for this state as the 1-particle RhoCI density.

 Excited state symmetry could not be determined.
 Excited State   2:      Singlet-?Sym    4.3906 eV  282.38 nm  f=0.2924  <S**2>=0.000
      57 -> 60         0.17934
      58 -> 60         0.64560
      59 -> 62         0.10613
      59 -> 64         0.10896

 Excited state symmetry could not be determined.
 Excited State   3:      Singlet-?Sym    4.6768 eV  265.11 nm  f=0.0598  <S**2>=0.000
      55 -> 61        -0.10169
      57 -> 60         0.58351
      57 -> 62        -0.14806
      58 -> 60        -0.17848
      58 -> 61        -0.16102
      59 -> 61         0.22570

 Alpha  occ. eigenvalues --  -89.09270 -19.26782 -14.47824 -10.40114 -10.37728
 Alpha  occ. eigenvalues --  -10.35546 -10.34985 -10.32364 -10.32165 -10.32080
 Alpha  occ. eigenvalues --  -10.31813 -10.31776 -10.31592 -10.31544 -10.30221
 Alpha  occ. eigenvalues --  -10.30046  -8.11262  -6.06111  -6.05765  -6.05318
 Alpha  occ. eigenvalues --   -1.15802  -1.08833  -0.96892  -0.95675  -0.92169
 Alpha  occ. eigenvalues --   -0.88859  -0.85215  -0.84146  -0.82423  -0.75914
 Alpha  occ. eigenvalues --   -0.71159  -0.70448  -0.68999  -0.68138  -0.63513
 Alpha  occ. eigenvalues --   -0.60648  -0.59012  -0.58442  -0.55713  -0.54375
 Alpha  occ. eigenvalues --   -0.54181  -0.53197  -0.52958  -0.50948  -0.50088
 Alpha  occ. eigenvalues --   -0.49650  -0.47267  -0.46101  -0.45606  -0.44840
 Alpha  occ. eigenvalues --   -0.44055  -0.42640  -0.42635  -0.40293  -0.36507
 Alpha  occ. eigenvalues --   -0.36480  -0.32360  -0.31282  -0.27914
 Alpha virt. eigenvalues --   -0.01735   0.04871   0.06842   0.07370   0.07518
 Alpha virt. eigenvalues --    0.10900   0.14102   0.15094   0.16390   0.17964
 Alpha virt. eigenvalues --    0.18670   0.21016   0.21670   0.22449   0.22474

 Mulliken charges:
               1
     1  C    0.017042
     2  C   -0.228369
     3  C    0.250047
     4  C   -0.017551
     5  C    0.007735
     6  C   -0.003728
     7  H    0.019031
     8  H    0.020559
     9  H    0.020610
    10  H    0.021557
    11  N   -0.349892
    12  S    0.168733
    13  C   -0.095678
    14  C   -0.022298
    15  C    0.106056
    16  C   -0.019127
    17  H    0.013423
    18  C   -0.003038
    19  C    0.025423
    20  H    0.009285
    21  H    0.015708
    22  H    0.021595
    23  C    0.081574
    24  O   -0.262558
    25  H    0.203860
 Sum of Mulliken charges =  -0.00000

 Dipole moment (field-independent basis, Debye):
    X=             -0.0985    Y=             -2.7663    Z=             -0.0000  Tot=              2.7680
 Quadrupole moment (field-independent basis, Debye-Ang):
   XX=            -83.2399   YY=            -90.1988   ZZ=           -104.2991
   XY=             -7.0154   XZ=             -0.0001   YZ=              0.0001

  Exact polarizability:     383.016    -168.707     352.872      -0.002       0.003      63.325
 Approx polarizability:     276.067     -35.346     259.845      -0.001       0.002      82.346

 ******    1 imaginary frequencies (negative Signs) ******

                      1                      2                      3
                      A                      A                      A
 Frequencies --   -136.0137                41.8797                53.5001
 Red. masses --      3.4586                 5.7003                 6.8651
 Frc consts  --      0.0377                 0.0059                 0.0116
 IR Inten    --     23.2351                 0.9832                 0.5785

                      4                      5                      6
                      A                      A                      A
 Frequencies --    109.2306               176.6077               209.8947
 Red. masses --      4.9148                 6.1386                 4.6617
 Frc consts  --      0.0345                 0.1128                 0.1210
 IR Inten    --      0.0611                 0.9553                28.6287

                      7                      8                      9
                      A                      A                      A
 Frequencies --    222.5049               271.9563               272.1114
 Red. masses --      5.3541                 4.7857                 7.4574
 Frc consts  --      0.1562                 0.2085                 0.3253
 IR Inten    --      0.0238                 0.0976                20.6438

                     10                     11                     12
                      A                      A                      A
 Frequencies --    380.5541               403.1684               438.2061
 Red. masses --      4.7396                 7.8520                 3.2288
 Frc consts  --      0.4044                 0.7520                 0.3653
 IR Inten    --      0.1744                 8.3775                 4.4450

                     13                     14                     15
                      A                      A                      A
 Frequencies --    454.1184               483.0096               499.5002
 Red. masses --      4.6305                 4.7436                 3.1694
 Frc consts  --      0.5626                 0.6520                 0.4659
 IR Inten    --      7.0372                 0.0050                 0.1545

                     16                     17                     18
                      A                      A                      A
 Frequencies --    504.6712               533.7881               556.5721
 Red. masses --      8.7799                 8.1638                 3.9255
 Frc consts  --      1.3175                 1.3705                 0.7164
 IR Inten    --      0.1123                27.1954                 0.1657

                     19                     20                     21
                      A                      A                      A
 Frequencies --    577.9730               635.6357               704.9380
 Red. masses --      7.5815                 6.7657                 1.6536
 Frc consts  --      1.4922                 1.6106                 0.4841
 IR Inten    --      3.4776                34.0550                45.0378

                     22                     23                     24
                      A                      A                      A
 Frequencies --    710.2205               736.4551               740.3113
 Red. masses --      6.7614                 9.9111                 1.9868
 Frc consts  --      2.0094                 3.1671                 0.6415
 IR Inten    --      0.1094                21.5013                26.1622

                     25                     26                     27
                      A                      A                      A
 Frequencies --    756.5009               769.0377               815.9875
 Red. masses --      1.9060                 1.9635                 1.6773
 Frc consts  --      0.6427                 0.6842                 0.6580
 IR Inten    --     26.5580                56.0870                 0.0891

                     28                     29                     30
                      A                      A                      A
 Frequencies --    821.5939               861.8833               895.2585
 Red. masses --      6.1774                 1.4104                 6.0173
 Frc consts  --      2.4568                 0.6173                 2.8415
 IR Inten    --      8.7614                 0.9511                85.8940

                     31                     32                     33
                      A                      A                      A
 Frequencies --    910.3027               953.3670               961.0545
 Red. masses --      1.3598                 1.3453                 1.3756
 Frc consts  --      0.6639                 0.7204                 0.7486
 IR Inten    --      5.0570                 1.8113                 0.2718

                     34                     35                     36
                      A                      A                      A
 Frequencies --    966.0673               999.8780              1038.0786
 Red. masses --      6.0042                 1.2975                 2.2280
 Frc consts  --      3.3016                 0.7643                 1.4146
 IR Inten    --     13.3253                 0.0013                 1.3599

                     37                     38                     39
                      A                      A                      A
 Frequencies --   1042.8979              1064.1061              1102.1562
 Red. masses --      2.5083                 2.2713                 3.1410
 Frc consts  --      1.6074                 1.5153                 2.2481
 IR Inten    --      0.0210                31.8459                21.9867

                     40                     41                     42
                      A                      A                      A
 Frequencies --   1141.4446              1161.8164              1170.8468
 Red. masses --      1.3826                 1.3833                 1.0543
 Frc consts  --      1.0613                 1.1001                 0.8516
 IR Inten    --     26.3487                 5.5306                65.2449

                     43                     44                     45
                      A                      A                      A
 Frequencies --   1176.6596              1185.7366              1248.1438
 Red. masses --      1.1851                 1.2437                 1.9266
 Frc consts  --      0.9667                 1.0302                 1.7684
 IR Inten    --     11.7831               124.7738               102.6724

                     46                     47                     48
                      A                      A                      A
 Frequencies --   1259.4422              1288.8125              1368.5434
 Red. masses --      3.2071                 1.9268                 3.2339
 Frc consts  --      2.9972                 1.8856                 3.5686
 IR Inten    --     63.3345                12.7012                 9.8541

                     49                     50                     51
                      A                      A                      A
 Frequencies --   1374.1245              1403.8697              1430.6817
 Red. masses --      3.8582                 2.2726                 2.2961
 Frc consts  --      4.2923                 2.6390                 2.7690
 IR Inten    --    254.4694                 1.7398                31.0991

                     52                     53                     54
                      A                      A                      A
 Frequencies --   1451.2681              1480.0849              1526.6054
 Red. masses --      4.4732                 2.9628                 4.7701
 Frc consts  --      5.5509                 3.8241                 6.5499
 IR Inten    --    323.1035               176.9756               281.1067

                     55                     56                     57
                      A                      A                      A
 Frequencies --   1538.1816              1543.8808              1567.9002
 Red. masses --      4.4072                 4.1206                 5.4533
 Frc consts  --      6.1436                 5.7869                 7.8986
 IR Inten    --     13.6292                94.1403               529.0468

                     58                     59                     60
                      A                      A                      A
 Frequencies --   1615.2788              1648.1292              1660.3007
 Red. masses --      5.9542                 5.8314                 3.6007
 Frc consts  --      9.1532                 9.3326                 5.8480
 IR Inten    --    302.4339               750.1555               427.8339

                     61                     62                     63
                      A                      A                      A
 Frequencies --   1831.8643              3208.1034              3208.4232
 Red. masses --      1.1376                 1.0863                 1.0870
 Frc consts  --      2.2493                 6.5870                 6.5927
 IR Inten    --    181.7172                11.8228                 6.8900

                     64                     65                     66
                      A                      A                      A
 Frequencies --   3219.5172              3219.8603              3227.9226
 Red. masses --      1.0900                 1.0886                 1.0937
 Frc consts  --      6.6565                 6.6498                 6.7142
 IR Inten    --      2.9813                 3.0224                15.8865

                     67                     68                     69
                      A                      A                      A
 Frequencies --   3231.2129              3237.2675              3239.9391
 Red. masses --      1.0952                 1.0991                 1.0984
 Frc consts  --      6.7370                 6.7862                 6.7933
 IR Inten    --     10.6073                35.2668                19.9884

 - Thermochemistry -
 -------------------
 Temperature   298.150 Kelvin.  Pressure   1.00000 Atm.
 Atom     1 has atomic number  6 and mass  12.00000

 Molecular mass:   227.04049 amu.
 Principal axes and moments of inertia in atomic units:
                           1         2         3
     Eigenvalues --  1305.297966311.738097617.03605
           X           -0.70355   0.71065   0.00000
           Y            0.71065   0.70355  -0.00001
           Z            0.00001   0.00001   1.00000
 This molecule is an asymmetric top.
 Rotational symmetry number  1.
 Warning -- assumption of classical behavior for rotation
           may cause significant error
 Rotational temperatures (Kelvin)      0.06636     0.01372     0.01137
 Rotational constants (GHZ):           1.38263     0.28593     0.23693
    1 imaginary frequencies ignored.
 Zero-point vibrational energy     481741.2 (Joules/Mol)
                                  115.13891 (Kcal/Mol)
 Warning -- explicit consideration of  18 degrees of freedom as
           vibrations may cause significant error
 Vibrational temperatures:     60.26    76.97   157.16   254.10   301.99
          (Kelvin)            320.13   391.28   391.51   547.53   580.07
                              630.48   653.38   694.94   718.67   726.11
                              768.00   800.78   831.57   914.54  1014.25
                             1021.85  1059.59  1065.14  1088.44  1106.47
                             1174.02  1182.09  1240.06  1288.08  1309.72
                             1371.68  1382.74  1389.96  1438.60  1493.56
                             1500.50  1531.01  1585.76  1642.28  1671.59
                             1684.59  1692.95  1706.01  1795.80  1812.06
                             1854.31  1969.03  1977.06  2019.86  2058.43
                             2088.05  2129.51  2196.44  2213.10  2221.30
                             2255.86  2324.03  2371.29  2388.80  2635.64
                             4615.75  4616.21  4632.17  4632.66  4644.26
                             4648.99  4657.71  4661.55

 Zero-point correction=                           0.183486 (Hartree/Particle)
 Thermal correction to Energy=                    0.195244
 Thermal correction to Enthalpy=                  0.196188
 Thermal correction to Gibbs Free Energy=         0.144610
 Sum of electronic and zero-point Energies=          -1028.508850
 Sum of electronic and thermal Energies=             -1028.497092
 Sum of electronic and thermal Enthalpies=           -1028.496148
 Sum of electronic and thermal Free Energies=        -1028.547726

                     E (Thermal)             CV                S
                      KCal/Mol        Cal/Mol-Kelvin    Cal/Mol-Kelvin
 Total                  122.517             47.563            108.555
 Electronic               0.000              0.000              0.000
 Translational            0.889              2.981             42.162
 Rotational               0.889              2.981             32.506
 Vibrational            120.740             41.601             33.886
 Vibration     1          0.595              1.980              5.168
 Vibration     2          0.596              1.976              4.684
 Vibration     3          0.606              1.942              3.283
 Vibration     4          0.628              1.871              2.364
 Vibration     5          0.642              1.826              2.045
 Vibration     6          0.648              1.807              1.939
 Vibration     7          0.675              1.725              1.584
 Vibration     8          0.675              1.725              1.583
 Vibration     9          0.750              1.512              1.037
 Vibration    10          0.769              1.463              0.951
 Vibration    11          0.798              1.387              0.832
 Vibration    12          0.813              1.352              0.783
 Vibration    13          0.839              1.288              0.702
 Vibration    14          0.855              1.251              0.659
 Vibration    15          0.860              1.240              0.647
 Vibration    16          0.889              1.175              0.579
 Vibration    17          0.912              1.125              0.531
 Vibration    18          0.934              1.079              0.489

 Optimization completed.
    -- Stationary point found.
 Normal termination of Gaussian 16 at Mon Jul 13 14:17:17 2020.
