 Gaussian 16, Revision C.01,
 Gaussian 16:  ES64L-G16RevC.01  3-Jul-2019

 ----------------------------------------------------------------------
 #p opt=addgic freq td wb97xd/cc-pvdz nosymm int=ultrafine scrf=(solven
 t=CarbonTetraChloride)
 ----------------------------------------------------------------------

 ------------------------------------------------
 NM 2D-scan of HBT TD-WB97XD pVDZ in CTC Relaxed.
 ------------------------------------------------
 Symbolic Z-matrix:
 Charge =  0 Multiplicity = 1

 SCF Done:  E(RwB97XD) =  -1028.80745731     A.U. after   15 cycles
 Total Energy, E(TD-HF/TD-DFT) =  -1028.69473747
 SCF Done:  E(RwB97XD) =  -1028.79949327     A.U. after   14 cycles
 Total Energy, E(TD-HF/TD-DFT) =  -1028.69457084
 SCF Done:  E(RwB97XD) =  -1028.80685478     A.U. after   11 cycles
 Total Energy, E(TD-HF/TD-DFT) =  -1028.69797927
 SCF Done:  E(RwB97XD) =  -1028.80730375     A.U. after   11 cycles
 Total Energy, E(TD-HF/TD-DFT) =  -1028.69802037
 SCF Done:  E(RwB97XD) =  -1028.80735824     A.U. after    9 cycles
 Total Energy, E(TD-HF/TD-DFT) =  -1028.69802193
 SCF Done:  E(RwB97XD) =  -1028.80737144     A.U. after    8 cycles
 Total Energy, E(TD-HF/TD-DFT) =  -1028.69802194
 SCF Done:  E(RwB97XD) =  -1028.80736896     A.U. after    8 cycles
 Total Energy, E(TD-HF/TD-DFT) =  -1028.69802207
 Optimization completed.
    -- Stationary point found.
 Normal termination of Gaussian 16 at Mon Jul 13 15:59:23 2020.

 ----------------------------------------------------------------------
 #P Geom=AllCheck Guess=TCheck SCRF=Check GenChk RwB97XD TD(FC,Read)/CC
 -pVDZ Freq
 ----------------------------------------------------------------------

 Structure from the checkpoint file:  "config_8_10.chk"
 ------------------------------------------------
 NM 2D-scan of HBT TD-WB97XD pVDZ in CTC Relaxed.
 ------------------------------------------------
 Charge =  0 Multiplicity = 1

                          Input orientation:
 ---------------------------------------------------------------------
 Center     Atomic      Atomic             Coordinates (Angstroms)
 Number     Number       Type             X           Y           Z
 ---------------------------------------------------------------------
      1          6           0        1.641827   -3.282259   -0.000042
      2          6           0        0.995235   -2.047715   -0.000023
      3          6           0        1.732369   -0.832720   -0.000005
      4          6           0        3.136105   -0.866136   -0.000004
      5          6           0        3.769384   -2.099759   -0.000023
      6          6           0        3.036710   -3.297971   -0.000042
      7          1           0        1.072425   -4.212501   -0.000054
      8          1           0        3.700827    0.066533    0.000011
      9          1           0        4.859868   -2.138881   -0.000022
     10          1           0        3.562486   -4.253538   -0.000056
     11          7           0        0.947155    0.280807    0.000010
     12         16           0       -0.732243   -1.717706   -0.000011
     13          6           0       -1.358975    1.058113    0.000017
     14          6           0       -2.736249    0.819476    0.000021
     15          6           0       -0.888200    2.467433    0.000022
     16          6           0       -3.658563    1.883597    0.000035
     17          1           0       -3.111122   -0.206677    0.000015
     18          6           0       -1.860897    3.500195    0.000030
     19          6           0       -3.225710    3.215559    0.000040
     20          1           0       -4.725833    1.657390    0.000040
     21          1           0       -1.484019    4.523964    0.000028
     22          1           0       -3.954292    4.026992    0.000049
     23          6           0       -0.386715    0.016645    0.000004
     24          8           0        0.357682    2.750721   -0.000006
     25          1           0        1.085652    1.373192    0.000057
 ---------------------------------------------------------------------

 SCF Done:  E(RwB97XD) =  -1028.80736896     A.U. after    1 cycles

 Excitation energies and oscillator strengths:

 Excited state symmetry could not be determined.
 Excited State   1:      Singlet-?Sym    2.9755 eV  416.69 nm  f=0.4450  <S**2>=0.000
      59 -> 60         0.69591
 This state for optimization and/or second-order correction.
 Total Energy, E(TD-HF/TD-DFT) =  -1028.69802204
 Copying the excited state density for this state as the 1-particle RhoCI density.

 Excited state symmetry could not be determined.
 Excited State   2:      Singlet-?Sym    3.9265 eV  315.77 nm  f=0.0000  <S**2>=0.000
      57 -> 60         0.68448
      57 -> 62         0.11453
      57 -> 64         0.11747

 Excited state symmetry could not be determined.
 Excited State   3:      Singlet-?Sym    4.3210 eV  286.93 nm  f=0.3877  <S**2>=0.000
      58 -> 60         0.67945

 Alpha  occ. eigenvalues --  -89.10377 -19.21998 -14.51736 -10.41699 -10.37315
 Alpha  occ. eigenvalues --  -10.36249 -10.36183 -10.33267 -10.32691 -10.32368
 Alpha  occ. eigenvalues --  -10.32255 -10.31672 -10.31264 -10.31011 -10.29399
 Alpha  occ. eigenvalues --  -10.28647  -8.12339  -6.07211  -6.06850  -6.06362
 Alpha  occ. eigenvalues --   -1.12516  -1.09520  -0.98054  -0.95277  -0.93117
 Alpha  occ. eigenvalues --   -0.89095  -0.86392  -0.83785  -0.81538  -0.75923
 Alpha  occ. eigenvalues --   -0.72306  -0.71887  -0.68595  -0.67694  -0.64672
 Alpha  occ. eigenvalues --   -0.60951  -0.59583  -0.56892  -0.55543  -0.55268
 Alpha  occ. eigenvalues --   -0.54804  -0.53713  -0.53028  -0.50719  -0.49416
 Alpha  occ. eigenvalues --   -0.48885  -0.48199  -0.46783  -0.45341  -0.45013
 Alpha  occ. eigenvalues --   -0.44218  -0.43111  -0.42024  -0.40421  -0.36751
 Alpha  occ. eigenvalues --   -0.33417  -0.32710  -0.31347  -0.26361
 Alpha virt. eigenvalues --   -0.02000   0.03920   0.05945   0.06393   0.08918
 Alpha virt. eigenvalues --    0.10591   0.13375   0.14734   0.16200   0.17460
 Alpha virt. eigenvalues --    0.18751   0.20327   0.20956   0.21460   0.23001

 Mulliken charges:
               1
     1  C    0.016517
     2  C   -0.234948
     3  C    0.267409
     4  C   -0.011551
     5  C    0.011535
     6  C   -0.000359
     7  H    0.025257
     8  H    0.030087
     9  H    0.026152
    10  H    0.025907
    11  N   -0.187757
    12  S    0.197318
    13  C   -0.105256
    14  C   -0.026550
    15  C    0.122242
    16  C   -0.032276
    17  H    0.008009
    18  C   -0.016123
    19  C    0.031562
    20  H    0.003279
    21  H    0.004445
    22  H    0.015901
    23  C    0.059233
    24  O   -0.414843
    25  H    0.184809
 Sum of Mulliken charges =  -0.00000

 Dipole moment (field-independent basis, Debye):
    X=              1.3439    Y=             -5.1502    Z=              0.0001  Tot=              5.3227
 Quadrupole moment (field-independent basis, Debye-Ang):
   XX=            -82.5470   YY=            -94.7076   ZZ=           -104.2654
   XY=             -6.8196   XZ=              0.0000   YZ=              0.0004

  Exact polarizability:     349.326    -125.648     303.575      -0.002       0.003      63.266
 Approx polarizability:     273.327     -35.692     265.662      -0.001       0.002      82.125

                      1                      2                      3
                      A                      A                      A
 Frequencies --     34.8214                58.2466               114.6410
 Red. masses --      6.1448                 5.7406                 5.6967
 Frc consts  --      0.0044                 0.0115                 0.0441
 IR Inten    --      1.4981                 0.9765                19.7377

                      4                      5                      6
                      A                      A                      A
 Frequencies --    115.6524               181.3765               219.3562
 Red. masses --      5.4282                 5.8304                 5.4439
 Frc consts  --      0.0428                 0.1130                 0.1543
 IR Inten    --      0.3373                 0.1556                 0.1775

                      7                      8                      9
                      A                      A                      A
 Frequencies --    261.5716               269.7504               306.1209
 Red. masses --      7.7231                 4.6595                 6.4582
 Frc consts  --      0.3113                 0.1998                 0.3566
 IR Inten    --     11.9145                 0.2324                26.7131

                     10                     11                     12
                      A                      A                      A
 Frequencies --    360.2767               398.5479               435.8542
 Red. masses --      5.0105                 9.6764                 3.3067
 Frc consts  --      0.3832                 0.9056                 0.3701
 IR Inten    --      0.8669                 3.4384                 4.0752

                     13                     14                     15
                      A                      A                      A
 Frequencies --    462.4442               505.2248               505.7416
 Red. masses --      4.6802                 3.1873                 8.8829
 Frc consts  --      0.5897                 0.4793                 1.3386
 IR Inten    --      1.7321                 0.5110                 8.2187

                     16                     17                     18
                      A                      A                      A
 Frequencies --    541.8207               557.0057               557.8274
 Red. masses --      8.4477                 5.7523                 3.8581
 Frc consts  --      1.4612                 1.0515                 0.7073
 IR Inten    --      4.3185                67.8214                 0.4894

                     19                     20                     21
                      A                      A                      A
 Frequencies --    572.3503               620.0108               694.3427
 Red. masses --      7.4768                 5.4324                 1.5714
 Frc consts  --      1.4431                 1.2304                 0.4464
 IR Inten    --     31.2602               130.7351                38.2695

                     22                     23                     24
                      A                      A                      A
 Frequencies --    700.2113               714.8582               742.6712
 Red. masses --      7.6116                 6.0972                 2.6947
 Frc consts  --      2.1988                 1.8358                 0.8757
 IR Inten    --      4.0472                 4.7516                12.9939

                     25                     26                     27
                      A                      A                      A
 Frequencies --    763.5609               768.5423               819.0780
 Red. masses --      1.7504                 1.6688                 6.2390
 Frc consts  --      0.6013                 0.5808                 2.4661
 IR Inten    --      1.5156                90.7376                 9.0344

                     28                     29                     30
                      A                      A                      A
 Frequencies --    832.8778               845.2281               868.2714
 Red. masses --      1.7175                 3.6714                 1.3832
 Frc consts  --      0.7020                 1.5453                 0.6144
 IR Inten    --      0.0172                57.4193                 0.8606

                     31                     32                     33
                      A                      A                      A
 Frequencies --    905.2373               950.0418               954.2581
 Red. masses --      1.4072                 5.5537                 1.3686
 Frc consts  --      0.6794                 2.9533                 0.7343
 IR Inten    --      6.1839                12.3712                 0.4202

                     34                     35                     36
                      A                      A                      A
 Frequencies --    957.6743              1004.1757              1047.6718
 Red. masses --      1.3491                 1.2959                 2.1305
 Frc consts  --      0.7290                 0.7699                 1.3778
 IR Inten    --      1.8569                 0.0114                 3.4532

                     37                     38                     39
                      A                      A                      A
 Frequencies --   1051.0548              1074.5659              1078.8796
 Red. masses --      2.1039                 1.0613                 4.2510
 Frc consts  --      1.3694                 0.7221                 2.9154
 IR Inten    --      8.2244                70.6961                14.5524

                     40                     41                     42
                      A                      A                      A
 Frequencies --   1120.4833              1151.8529              1164.4647
 Red. masses --      1.5053                 1.3676                 1.2168
 Frc consts  --      1.1135                 1.0691                 0.9721
 IR Inten    --     56.0049                45.1733                48.7394

                     43                     44                     45
                      A                      A                      A
 Frequencies --   1176.8436              1193.8069              1259.8693
 Red. masses --      1.2063                 1.6110                 1.8265
 Frc consts  --      0.9843                 1.3528                 1.7082
 IR Inten    --    143.3013               163.4440               100.8225

                     46                     47                     48
                      A                      A                      A
 Frequencies --   1266.4434              1309.7363              1343.9954
 Red. masses --      2.3542                 2.1064                 5.5661
 Frc consts  --      2.2247                 2.1289                 5.9238
 IR Inten    --     33.9449                34.3101                22.0510

                     49                     50                     51
                      A                      A                      A
 Frequencies --   1360.3093              1390.8263              1405.3175
 Red. masses --      6.4477                 2.8220                 2.1352
 Frc consts  --      7.0296                 3.2163                 2.4845
 IR Inten    --    176.2849                10.9007                 5.1222

                     52                     53                     54
                      A                      A                      A
 Frequencies --   1437.8786              1484.9058              1496.6422
 Red. masses --      3.3230                 2.8351                 3.3270
 Frc consts  --      4.0479                 3.6831                 4.3907
 IR Inten    --    530.7707                 1.7119                48.4458

                     55                     56                     57
                      A                      A                      A
 Frequencies --   1534.6325              1544.5970              1576.3662
 Red. masses --      4.0067                 5.6137                 4.2469
 Frc consts  --      5.5596                 7.8909                 6.2178
 IR Inten    --     65.5564               158.5511                58.5556

                     58                     59                     60
                      A                      A                      A
 Frequencies --   1621.5415              1636.0175              1663.3115
 Red. masses --      5.7942                 5.9926                 6.7350
 Frc consts  --      8.9764                 9.4502                10.9783
 IR Inten    --    296.4967               169.4736               136.6300

                     61                     62                     63
                      A                      A                      A
 Frequencies --   2477.1719              3197.2980              3212.1271
 Red. masses --      1.1057                 1.0884                 1.0862
 Frc consts  --      3.9976                 6.5557                 6.6030
 IR Inten    --   1253.3212                23.6180                 4.6235

                     64                     65                     66
                      A                      A                      A
 Frequencies --   3214.3494              3222.1709              3224.7350
 Red. masses --      1.0868                 1.0905                 1.0927
 Frc consts  --      6.6156                 6.6705                 6.6946
 IR Inten    --      1.9962                 3.6527                16.3941

                     67                     68                     69
                      A                      A                      A
 Frequencies --   3233.1106              3236.8119              3239.5075
 Red. masses --      1.0955                 1.0988                 1.0994
 Frc consts  --      6.7470                 6.7827                 6.7980
 IR Inten    --      8.7745                24.8990                12.0274

 - Thermochemistry -
 -------------------
 Temperature   298.150 Kelvin.  Pressure   1.00000 Atm.
 Atom     1 has atomic number  6 and mass  12.00000

 Molecular mass:   227.04049 amu.
 Principal axes and moments of inertia in atomic units:
                           1         2         3
     Eigenvalues --  1310.146816374.480917684.62772
           X           -0.70135   0.71281   0.00000
           Y            0.71281   0.70135  -0.00001
           Z            0.00001   0.00000   1.00000
 This molecule is an asymmetric top.
 Rotational symmetry number  1.
 Warning -- assumption of classical behavior for rotation
           may cause significant error
 Rotational temperatures (Kelvin)      0.06611     0.01359     0.01127
 Rotational constants (GHZ):           1.37751     0.28312     0.23485
 Zero-point vibrational energy     485976.7 (Joules/Mol)
                                  116.15123 (Kcal/Mol)
 Warning -- explicit consideration of  20 degrees of freedom as
           vibrations may cause significant error
 Vibrational temperatures:     50.10    83.80   164.94   166.40   260.96
          (Kelvin)            315.60   376.34   388.11   440.44   518.36
                              573.42   627.10   665.35   726.91   727.65
                              779.56   801.41   802.59   823.48   892.06
                              999.00  1007.45  1028.52  1068.54  1098.59
                             1105.76  1178.47  1198.33  1216.09  1249.25
                             1302.43  1366.90  1372.96  1377.88  1444.78
                             1507.37  1512.23  1546.06  1552.27  1612.13
                             1657.26  1675.41  1693.22  1717.62  1812.67
                             1822.13  1884.42  1933.71  1957.18  2001.09
                             2021.94  2068.79  2136.45  2153.33  2207.99
                             2222.33  2268.04  2333.04  2353.86  2393.13
                             3564.10  4600.20  4621.53  4624.73  4635.99
                             4639.67  4651.73  4657.05  4660.93

 Zero-point correction=                           0.185099 (Hartree/Particle)
 Thermal correction to Energy=                    0.197432
 Thermal correction to Enthalpy=                  0.198376
 Thermal correction to Gibbs Free Energy=         0.145528
 Sum of electronic and zero-point Energies=          -1028.512923
 Sum of electronic and thermal Energies=             -1028.500590
 Sum of electronic and thermal Enthalpies=           -1028.499646
 Sum of electronic and thermal Free Energies=        -1028.552494

                     E (Thermal)             CV                S
                      KCal/Mol        Cal/Mol-Kelvin    Cal/Mol-Kelvin
 Total                  123.891             49.379            111.229
 Electronic               0.000              0.000              0.000
 Translational            0.889              2.981             42.162
 Rotational               0.889              2.981             32.529
 Vibrational            122.113             43.417             36.539
 Vibration     1          0.594              1.983              5.534
 Vibration     2          0.596              1.974              4.516
 Vibration     3          0.608              1.937              3.189
 Vibration     4          0.608              1.936              3.172
 Vibration     5          0.630              1.865              2.314
 Vibration     6          0.647              1.812              1.964
 Vibration     7          0.669              1.743              1.651
 Vibration     8          0.674              1.729              1.598
 Vibration     9          0.697              1.662              1.383
 Vibration    10          0.735              1.554              1.121
 Vibration    11          0.765              1.473              0.968
 Vibration    12          0.796              1.392              0.840
 Vibration    13          0.820              1.333              0.759
 Vibration    14          0.860              1.238              0.645
 Vibration    15          0.861              1.237              0.644
 Vibration    16          0.897              1.158              0.561
 Vibration    17          0.913              1.124              0.530
 Vibration    18          0.913              1.123              0.528
 Vibration    19          0.929              1.091              0.500
 Vibration    20          0.980              0.990              0.416

 Optimization completed.
    -- Stationary point found.
 Normal termination of Gaussian 16 at Mon Jul 13 16:17:47 2020.
