 Gaussian 16, Revision C.01,
 Gaussian 16:  ES64L-G16RevC.01  3-Jul-2019

 ----------------------------------------------------------------------
 #p opt=addgic freq td wb97xd/cc-pvdz nosymm int=ultrafine scrf=(solven
 t=CarbonTetraChloride)
 ----------------------------------------------------------------------

 ------------------------------------------------
 NM 2D-scan of HBT TD-WB97XD pVDZ in CTC Relaxed.
 ------------------------------------------------
 Symbolic Z-matrix:
 Charge =  0 Multiplicity = 1

 SCF Done:  E(RwB97XD) =  -1028.79891819     A.U. after   15 cycles
 Total Energy, E(TD-HF/TD-DFT) =  -1028.68101114
 SCF Done:  E(RwB97XD) =  -1028.80077903     A.U. after   12 cycles
 Total Energy, E(TD-HF/TD-DFT) =  -1028.68230299
 SCF Done:  E(RwB97XD) =  -1028.80047175     A.U. after   11 cycles
 Total Energy, E(TD-HF/TD-DFT) =  -1028.68245645
 SCF Done:  E(RwB97XD) =  -1028.79924149     A.U. after   12 cycles
 Total Energy, E(TD-HF/TD-DFT) =  -1028.68274729
 SCF Done:  E(RwB97XD) =  -1028.79877809     A.U. after   11 cycles
 Total Energy, E(TD-HF/TD-DFT) =  -1028.68278761
 SCF Done:  E(RwB97XD) =  -1028.79845025     A.U. after   11 cycles
 Total Energy, E(TD-HF/TD-DFT) =  -1028.68280312
 SCF Done:  E(RwB97XD) =  -1028.79847175     A.U. after    9 cycles
 Total Energy, E(TD-HF/TD-DFT) =  -1028.68280362
 Optimization completed.
    -- Stationary point found.
 Normal termination of Gaussian 16 at Tue Jul 14 16:46:36 2020.

 ----------------------------------------------------------------------
 #P Geom=AllCheck Guess=TCheck SCRF=Check GenChk RwB97XD TD(FC,Read)/CC
 -pVDZ Freq
 ----------------------------------------------------------------------

 Structure from the checkpoint file:  "config_6_19.chk"
 ------------------------------------------------
 NM 2D-scan of HBT TD-WB97XD pVDZ in CTC Relaxed.
 ------------------------------------------------
 Charge =  0 Multiplicity = 1

                          Input orientation:
 ---------------------------------------------------------------------
 Center     Atomic      Atomic             Coordinates (Angstroms)
 Number     Number       Type             X           Y           Z
 ---------------------------------------------------------------------
      1          6           0        1.506660   -3.254015   -0.000066
      2          6           0        0.994035   -1.960769   -0.000073
      3          6           0        1.805246   -0.782701   -0.000033
      4          6           0        3.203512   -0.976747    0.000001
      5          6           0        3.712874   -2.273084    0.000007
      6          6           0        2.886145   -3.409939   -0.000022
      7          1           0        0.834737   -4.113294   -0.000091
      8          1           0        3.874175   -0.116824    0.000030
      9          1           0        4.796063   -2.408003    0.000039
     10          1           0        3.325601   -4.408027   -0.000010
     11          7           0        1.078477    0.393680   -0.000021
     12         16           0       -0.692452   -1.563634   -0.000122
     13          6           0       -1.291490    1.086644    0.000027
     14          6           0       -2.644462    0.710700    0.000091
     15          6           0       -0.928265    2.507043    0.000017
     16          6           0       -3.642642    1.684621    0.000073
     17          1           0       -2.925121   -0.343299    0.000147
     18          6           0       -1.972245    3.462767    0.000006
     19          6           0       -3.308704    3.051652    0.000023
     20          1           0       -4.689992    1.379253    0.000100
     21          1           0       -1.699926    4.518919   -0.000014
     22          1           0       -4.102888    3.798955    0.000004
     23          6           0       -0.258936    0.128573   -0.000045
     24          8           0        0.327457    2.811822    0.000028
     25          1           0        1.048909    1.627252    0.000015
 ---------------------------------------------------------------------

 SCF Done:  E(RwB97XD) =  -1028.79847175     A.U. after    1 cycles

 Excitation energies and oscillator strengths:

 Excited state symmetry could not be determined.
 Excited State   1:      Singlet-?Sym    3.1475 eV  393.91 nm  f=0.4624  <S**2>=0.000
      59 -> 60         0.69445
 This state for optimization and/or second-order correction.
 Total Energy, E(TD-HF/TD-DFT) =  -1028.68280362
 Copying the excited state density for this state as the 1-particle RhoCI density.

 Excited state symmetry could not be determined.
 Excited State   2:      Singlet-?Sym    4.3061 eV  287.92 nm  f=0.2697  <S**2>=0.000
      58 -> 60         0.67666

 Excited state symmetry could not be determined.
 Excited State   3:      Singlet-?Sym    4.4207 eV  280.46 nm  f=0.0000  <S**2>=0.000
      56 -> 60         0.68747
      56 -> 62         0.10284
      56 -> 64        -0.10782

 Alpha  occ. eigenvalues --  -89.09496 -19.23770 -14.50857 -10.40801 -10.37153
 Alpha  occ. eigenvalues --  -10.36763 -10.35517 -10.32729 -10.32513 -10.32050
 Alpha  occ. eigenvalues --  -10.31958 -10.31858 -10.31545 -10.31085 -10.29795
 Alpha  occ. eigenvalues --  -10.29438  -8.11618  -6.06462  -6.06112  -6.05657
 Alpha  occ. eigenvalues --   -1.12313  -1.09501  -0.97582  -0.95849  -0.93018
 Alpha  occ. eigenvalues --   -0.88942  -0.86188  -0.83622  -0.82099  -0.75745
 Alpha  occ. eigenvalues --   -0.71889  -0.71361  -0.68542  -0.67376  -0.63742
 Alpha  occ. eigenvalues --   -0.60981  -0.59414  -0.57517  -0.55271  -0.54902
 Alpha  occ. eigenvalues --   -0.54410  -0.53802  -0.52925  -0.50506  -0.49733
 Alpha  occ. eigenvalues --   -0.49266  -0.47387  -0.46546  -0.45424  -0.45112
 Alpha  occ. eigenvalues --   -0.44262  -0.43063  -0.42027  -0.40703  -0.36605
 Alpha  occ. eigenvalues --   -0.34425  -0.32902  -0.31273  -0.27208
 Alpha virt. eigenvalues --   -0.01870   0.04319   0.06025   0.07197   0.08349
 Alpha virt. eigenvalues --    0.10637   0.14507   0.14955   0.16910   0.17757
 Alpha virt. eigenvalues --    0.18654   0.20655   0.20716   0.21724   0.22470

 Mulliken charges:
               1
     1  C    0.023423
     2  C   -0.217497
     3  C    0.253993
     4  C   -0.019829
     5  C    0.005580
     6  C    0.001991
     7  H    0.022175
     8  H    0.026725
     9  H    0.023910
    10  H    0.024021
    11  N   -0.301596
    12  S    0.186089
    13  C   -0.094503
    14  C   -0.034493
    15  C    0.135752
    16  C   -0.023493
    17  H    0.021689
    18  C   -0.017397
    19  C    0.029245
    20  H    0.005335
    21  H    0.010073
    22  H    0.019121
    23  C    0.076235
    24  O   -0.405575
    25  H    0.249027
 Sum of Mulliken charges =  -0.00000

 Dipole moment (field-independent basis, Debye):
    X=              0.5491    Y=             -4.4137    Z=             -0.0000  Tot=              4.4477
 Quadrupole moment (field-independent basis, Debye-Ang):
   XX=            -82.5725   YY=            -93.6134   ZZ=           -104.2235
   XY=             -6.9207   XZ=              0.0001   YZ=             -0.0001

  Exact polarizability:     349.778    -132.552     311.849      -0.002       0.003      63.170
 Approx polarizability:     272.540     -34.303     262.176       0.001       0.001      82.180

 ******    1 imaginary frequencies (negative Signs) ******

                      1                      2                      3
                      A                      A                      A
 Frequencies --  -1290.1130                37.1320                58.0222
 Red. masses --      1.0704                 6.6095                 4.5091
 Frc consts  --      1.0496                 0.0054                 0.0089
 IR Inten    --   2153.2836                 1.4627                 0.0386

                      4                      5                      6
                      A                      A                      A
 Frequencies --    127.3303               153.9991               185.7511
 Red. masses --      5.7853                 5.7050                 6.9021
 Frc consts  --      0.0553                 0.0797                 0.1403
 IR Inten    --      0.3766                 0.9541                 0.4060

                      7                      8                      9
                      A                      A                      A
 Frequencies --    218.4715               271.0053               291.9729
 Red. masses --      5.5135                 4.6164                 7.4978
 Frc consts  --      0.1550                 0.1998                 0.3766
 IR Inten    --      0.0340                 0.0089                12.0982

                     10                     11                     12
                      A                      A                      A
 Frequencies --    365.5631               366.6462               419.6840
 Red. masses --      4.9443                 6.9890                10.2256
 Frc consts  --      0.3893                 0.5536                 1.0612
 IR Inten    --      0.4212                 7.3661                 5.1475

                     13                     14                     15
                      A                      A                      A
 Frequencies --    438.9271               466.2107               503.1874
 Red. masses --      3.2448                 4.6086                 3.1789
 Frc consts  --      0.3683                 0.5902                 0.4742
 IR Inten    --      3.5884                 0.9876                 0.3515

                     16                     17                     18
                      A                      A                      A
 Frequencies --    509.9861               547.3919               560.4898
 Red. masses --      8.8970                 8.7133                 3.8721
 Frc consts  --      1.3634                 1.5383                 0.7167
 IR Inten    --      4.0751                 2.3675                 0.2227

                     19                     20                     21
                      A                      A                      A
 Frequencies --    572.3366               588.5609               656.0796
 Red. masses --      7.4732                 6.7712                 6.7276
 Frc consts  --      1.4423                 1.3820                 1.7062
 IR Inten    --     26.7170                 1.9414                40.3381

                     22                     23                     24
                      A                      A                      A
 Frequencies --    700.2679               733.2483               743.3003
 Red. masses --      1.5379                 6.3977                 2.4249
 Frc consts  --      0.4443                 2.0266                 0.7893
 IR Inten    --     47.4392                 2.9221                21.4937

                     25                     26                     27
                      A                      A                      A
 Frequencies --    748.2378               755.0096               766.4792
 Red. masses --      8.3010                 1.7431                 1.7039
 Frc consts  --      2.7382                 0.5854                 0.5898
 IR Inten    --     37.1860                12.3280                70.7378

                     28                     29                     30
                      A                      A                      A
 Frequencies --    810.8468               837.0075               868.1042
 Red. masses --      1.9571                 6.4726                 1.3862
 Frc consts  --      0.7581                 2.6717                 0.6155
 IR Inten    --      0.8354                10.2705                 0.8889

                     31                     32                     33
                      A                      A                      A
 Frequencies --    903.2720               907.9803               954.9102
 Red. masses --      1.3840                 6.7190                 1.3767
 Frc consts  --      0.6653                 3.2637                 0.7396
 IR Inten    --      4.8027                44.4520                 0.3403

                     34                     35                     36
                      A                      A                      A
 Frequencies --    956.1586               997.7259              1002.2277
 Red. masses --      1.3521                 7.7846                 1.2999
 Frc consts  --      0.7283                 4.5657                 0.7693
 IR Inten    --      1.9209                30.1488                 0.0030

                     37                     38                     39
                      A                      A                      A
 Frequencies --   1049.2545              1051.4048              1104.2141
 Red. masses --      2.1001                 1.9987                 3.4258
 Frc consts  --      1.3622                 1.3018                 2.4610
 IR Inten    --      2.6637                13.3767                50.4377

                     40                     41                     42
                      A                      A                      A
 Frequencies --   1139.5122              1158.8539              1179.6893
 Red. masses --      1.4651                 1.4446                 1.2126
 Frc consts  --      1.1208                 1.1431                 0.9943
 IR Inten    --      2.7960                19.8876                 6.3691

                     43                     44                     45
                      A                      A                      A
 Frequencies --   1181.5164              1200.4449              1258.4265
 Red. masses --      1.3096                 1.0501                 2.3726
 Frc consts  --      1.0771                 0.8916                 2.2138
 IR Inten    --     64.6159                71.8503                48.7352

                     46                     47                     48
                      A                      A                      A
 Frequencies --   1280.8662              1302.3036              1321.2843
 Red. masses --      1.9614                 3.2390                 2.6079
 Frc consts  --      1.8959                 3.2366                 2.6824
 IR Inten    --    140.6208                18.1925                13.8177

                     49                     50                     51
                      A                      A                      A
 Frequencies --   1352.9563              1383.0364              1406.6927
 Red. masses --      6.2432                 2.6674                 3.9446
 Frc consts  --      6.7332                 3.0061                 4.5988
 IR Inten    --    215.7645               130.0321               253.0823

                     52                     53                     54
                      A                      A                      A
 Frequencies --   1459.5841              1472.9025              1500.0675
 Red. masses --      2.2191                 3.0255                 3.1166
 Frc consts  --      2.7854                 3.8672                 4.1319
 IR Inten    --    131.6404                22.9381                38.9238

                     55                     56                     57
                      A                      A                      A
 Frequencies --   1510.1429              1556.8155              1569.6690
 Red. masses --      4.7462                 4.5773                 4.9607
 Frc consts  --      6.3772                 6.5363                 7.2013
 IR Inten    --    320.2948                67.8858                21.3235

                     58                     59                     60
                      A                      A                      A
 Frequencies --   1618.1882              1632.4267              1656.6401
 Red. masses --      5.9469                 5.1985                 6.3443
 Frc consts  --      9.1749                 8.1620                10.2587
 IR Inten    --     38.7324               843.1088               111.9377

                     61                     62                     63
                      A                      A                      A
 Frequencies --   1906.8477              3206.5358              3212.4215
 Red. masses --      1.0992                 1.0862                 1.0855
 Frc consts  --      2.3549                 6.5799                 6.5999
 IR Inten    --    344.8140                 5.2770                11.0114

                     64                     65                     66
                      A                      A                      A
 Frequencies --   3216.0906              3220.3097              3226.5788
 Red. masses --      1.0902                 1.0883                 1.0952
 Frc consts  --      6.6440                 6.6497                 6.7178
 IR Inten    --      2.2567                24.9895                 8.7907

                     67                     68                     69
                      A                      A                      A
 Frequencies --   3229.6001              3234.5632              3239.3857
 Red. masses --      1.0943                 1.0996                 1.0985
 Frc consts  --      6.7249                 6.7781                 6.7920
 IR Inten    --     13.3345                20.7806                16.3460

 - Thermochemistry -
 -------------------
 Temperature   298.150 Kelvin.  Pressure   1.00000 Atm.
 Atom     1 has atomic number  6 and mass  12.00000

 Molecular mass:   227.04049 amu.
 Principal axes and moments of inertia in atomic units:
                           1         2         3
     Eigenvalues --  1279.849786299.951087579.80085
           X           -0.70361   0.71058  -0.00000
           Y            0.71058   0.70361  -0.00002
           Z            0.00001   0.00002   1.00000
 This molecule is an asymmetric top.
 Rotational symmetry number  1.
 Warning -- assumption of classical behavior for rotation
           may cause significant error
 Rotational temperatures (Kelvin)      0.06768     0.01375     0.01143
 Rotational constants (GHZ):           1.41012     0.28647     0.23810
    1 imaginary frequencies ignored.
 Zero-point vibrational energy     478881.6 (Joules/Mol)
                                  114.45545 (Kcal/Mol)
 Warning -- explicit consideration of  19 degrees of freedom as
           vibrations may cause significant error
 Vibrational temperatures:     53.42    83.48   183.20   221.57   267.25
          (Kelvin)            314.33   389.92   420.08   525.96   527.52
                              603.83   631.52   670.77   723.97   733.76
                              787.57   806.42   823.46   846.81   943.95
                             1007.53  1054.98  1069.44  1076.55  1086.29
                             1102.79  1166.63  1204.27  1249.01  1299.61
                             1306.38  1373.90  1375.70  1435.50  1441.98
                             1509.64  1512.74  1588.72  1639.50  1667.33
                             1697.31  1699.94  1727.17  1810.60  1842.88
                             1873.72  1901.03  1946.60  1989.88  2023.92
                             2100.02  2119.18  2158.26  2172.76  2239.91
                             2258.40  2328.21  2348.70  2383.54  2743.53
                             4613.49  4621.96  4627.24  4633.31  4642.33
                             4646.67  4653.81  4660.75

 Zero-point correction=                           0.182396 (Hartree/Particle)
 Thermal correction to Energy=                    0.194366
 Thermal correction to Enthalpy=                  0.195310
 Thermal correction to Gibbs Free Energy=         0.143365
 Sum of electronic and zero-point Energies=          -1028.500407
 Sum of electronic and thermal Energies=             -1028.488438
 Sum of electronic and thermal Enthalpies=           -1028.487494
 Sum of electronic and thermal Free Energies=        -1028.539438

                     E (Thermal)             CV                S
                      KCal/Mol        Cal/Mol-Kelvin    Cal/Mol-Kelvin
 Total                  121.966             48.325            109.327
 Electronic               0.000              0.000              0.000
 Translational            0.889              2.981             42.162
 Rotational               0.889              2.981             32.480
 Vibrational            120.189             42.363             34.685
 Vibration     1          0.594              1.982              5.407
 Vibration     2          0.596              1.974              4.523
 Vibration     3          0.611              1.926              2.986
 Vibration     4          0.620              1.898              2.622
 Vibration     5          0.632              1.859              2.270
 Vibration     6          0.646              1.813              1.972
 Vibration     7          0.675              1.727              1.590
 Vibration     8          0.687              1.689              1.462
 Vibration     9          0.739              1.543              1.098
 Vibration    10          0.740              1.541              1.094
 Vibration    11          0.782              1.427              0.893
 Vibration    12          0.799              1.385              0.830
 Vibration    13          0.824              1.325              0.748
 Vibration    14          0.858              1.243              0.650
 Vibration    15          0.865              1.228              0.634
 Vibration    16          0.903              1.145              0.550
 Vibration    17          0.916              1.117              0.523
 Vibration    18          0.929              1.091              0.500
 Vibration    19          0.946              1.056              0.470

 Optimization completed.
    -- Stationary point found.
 Normal termination of Gaussian 16 at Tue Jul 14 17:04:37 2020.
