 Gaussian 16, Revision C.01,
 Gaussian 16:  ES64L-G16RevC.01  3-Jul-2019

 ----------------------------------------------------------------------
 #p opt=addgic freq td wb97xd/cc-pvdz nosymm int=ultrafine scrf=(solven
 t=CarbonTetraChloride)
 ----------------------------------------------------------------------

 ------------------------------------------------
 NM 2D-scan of HBT TD-WB97XD pVDZ in CTC Relaxed.
 ------------------------------------------------
 Symbolic Z-matrix:
 Charge =  0 Multiplicity = 1

 SCF Done:  E(RwB97XD) =  -1028.80988788     A.U. after   15 cycles
 Total Energy, E(TD-HF/TD-DFT) =  -1028.69297528
 SCF Done:  E(RwB97XD) =  -1028.80376930     A.U. after   14 cycles
 Total Energy, E(TD-HF/TD-DFT) =  -1028.69231362
 SCF Done:  E(RwB97XD) =  -1028.80808013     A.U. after   11 cycles
 Total Energy, E(TD-HF/TD-DFT) =  -1028.69357626
 SCF Done:  E(RwB97XD) =  -1028.80810721     A.U. after   11 cycles
 Total Energy, E(TD-HF/TD-DFT) =  -1028.69358957
 SCF Done:  E(RwB97XD) =  -1028.80808830     A.U. after   10 cycles
 Total Energy, E(TD-HF/TD-DFT) =  -1028.69359275
 SCF Done:  E(RwB97XD) =  -1028.80809307     A.U. after    9 cycles
 Total Energy, E(TD-HF/TD-DFT) =  -1028.69359307
 SCF Done:  E(RwB97XD) =  -1028.80809447     A.U. after    8 cycles
 Total Energy, E(TD-HF/TD-DFT) =  -1028.69359330
 Optimization completed.
    -- Stationary point found.
 Normal termination of Gaussian 16 at Mon Jul 13 15:15:13 2020.

 ----------------------------------------------------------------------
 #P Geom=AllCheck Guess=TCheck SCRF=Check GenChk RwB97XD TD(FC,Read)/CC
 -pVDZ Freq
 ----------------------------------------------------------------------

 Structure from the checkpoint file:  "config_7_10.chk"
 ------------------------------------------------
 NM 2D-scan of HBT TD-WB97XD pVDZ in CTC Relaxed.
 ------------------------------------------------
 Charge =  0 Multiplicity = 1

                          Input orientation:
 ---------------------------------------------------------------------
 Center     Atomic      Atomic             Coordinates (Angstroms)
 Number     Number       Type             X           Y           Z
 ---------------------------------------------------------------------
      1          6           0        1.635823   -3.271718   -0.000192
      2          6           0        0.994361   -2.034967   -0.000083
      3          6           0        1.729078   -0.813440    0.000072
      4          6           0        3.135463   -0.858862    0.000136
      5          6           0        3.764031   -2.094709    0.000022
      6          6           0        3.029640   -3.293029   -0.000143
      7          1           0        1.061506   -4.199007   -0.000303
      8          1           0        3.705917    0.070412    0.000268
      9          1           0        4.854553   -2.136795    0.000066
     10          1           0        3.553505   -4.249689   -0.000224
     11          7           0        0.950352    0.304061    0.000170
     12         16           0       -0.730333   -1.713868   -0.000061
     13          6           0       -1.358343    1.045297    0.000055
     14          6           0       -2.739476    0.807488    0.000134
     15          6           0       -0.888284    2.450484   -0.000099
     16          6           0       -3.649681    1.874636    0.000129
     17          1           0       -3.115363   -0.217738    0.000226
     18          6           0       -1.845813    3.491959   -0.000122
     19          6           0       -3.209994    3.209483    0.000011
     20          1           0       -4.718999    1.657795    0.000210
     21          1           0       -1.465691    4.514251   -0.000265
     22          1           0       -3.937066    4.021990   -0.000008
     23          6           0       -0.379426    0.018844    0.000059
     24          8           0        0.370828    2.714126   -0.000377
     25          1           0        0.999568    1.489517    0.000414
 ---------------------------------------------------------------------

 SCF Done:  E(RwB97XD) =  -1028.80809447     A.U. after    1 cycles

 Excitation energies and oscillator strengths:

 Excited state symmetry could not be determined.
 Excited State   1:      Singlet-?Sym    3.1157 eV  397.93 nm  f=0.4633  <S**2>=0.000
      59 -> 60         0.69472
 This state for optimization and/or second-order correction.
 Total Energy, E(TD-HF/TD-DFT) =  -1028.69359328
 Copying the excited state density for this state as the 1-particle RhoCI density.

 Excited state symmetry could not be determined.
 Excited State   2:      Singlet-?Sym    4.3033 eV  288.12 nm  f=0.0000  <S**2>=0.000
      56 -> 60         0.68669
      56 -> 62         0.10464
      56 -> 64        -0.11248

 Excited state symmetry could not be determined.
 Excited State   3:      Singlet-?Sym    4.3407 eV  285.63 nm  f=0.3626  <S**2>=0.000
      58 -> 60         0.67481

 Alpha  occ. eigenvalues --  -89.10046 -19.23351 -14.50556 -10.41188 -10.36847
 Alpha  occ. eigenvalues --  -10.36709 -10.35839 -10.32979 -10.32384 -10.32104
 Alpha  occ. eigenvalues --  -10.32032 -10.31840 -10.31423 -10.31303 -10.29645
 Alpha  occ. eigenvalues --  -10.29082  -8.12024  -6.06887  -6.06534  -6.06057
 Alpha  occ. eigenvalues --   -1.12632  -1.09795  -0.97639  -0.95381  -0.92880
 Alpha  occ. eigenvalues --   -0.89007  -0.86048  -0.83754  -0.81911  -0.75863
 Alpha  occ. eigenvalues --   -0.71690  -0.71452  -0.68518  -0.67763  -0.64012
 Alpha  occ. eigenvalues --   -0.60914  -0.59414  -0.57306  -0.55261  -0.55056
 Alpha  occ. eigenvalues --   -0.54461  -0.53574  -0.52872  -0.50810  -0.49860
 Alpha  occ. eigenvalues --   -0.49182  -0.47697  -0.46563  -0.45321  -0.45147
 Alpha  occ. eigenvalues --   -0.44130  -0.43180  -0.41934  -0.40702  -0.36654
 Alpha  occ. eigenvalues --   -0.34017  -0.33068  -0.31269  -0.26942
 Alpha virt. eigenvalues --   -0.01895   0.04217   0.06233   0.06644   0.08476
 Alpha virt. eigenvalues --    0.10579   0.13747   0.14850   0.16279   0.17656
 Alpha virt. eigenvalues --    0.18775   0.20594   0.21206   0.21749   0.22827

 Mulliken charges:
               1
     1  C    0.017072
     2  C   -0.230710
     3  C    0.267972
     4  C   -0.013951
     5  C    0.010059
     6  C   -0.001166
     7  H    0.023374
     8  H    0.027301
     9  H    0.024350
    10  H    0.024513
    11  N   -0.257860
    12  S    0.190111
    13  C   -0.108363
    14  C   -0.025146
    15  C    0.127320
    16  C   -0.028684
    17  H    0.010013
    18  C   -0.011510
    19  C    0.030003
    20  H    0.004944
    21  H    0.008014
    22  H    0.017813
    23  C    0.067182
    24  O   -0.396053
    25  H    0.223403
 Sum of Mulliken charges =   0.00000

 Dipole moment (field-independent basis, Debye):
    X=              0.8250    Y=             -4.4161    Z=              0.0010  Tot=              4.4925
 Quadrupole moment (field-independent basis, Debye-Ang):
   XX=            -82.8762   YY=            -93.1707   ZZ=           -104.2759
   XY=             -6.9180   XZ=              0.0010   YZ=              0.0032

  Exact polarizability:     353.157    -132.352     311.007      -0.004       0.004      63.266
 Approx polarizability:     273.645     -35.173     264.169      -0.002       0.001      82.211

 ******    1 imaginary frequencies (negative Signs) ******

                      1                      2                      3
                      A                      A                      A
 Frequencies --   -871.7731                37.8049                70.2872
 Red. masses --      1.1583                 6.1128                 5.5555
 Frc consts  --      0.5186                 0.0051                 0.0162
 IR Inten    --   1919.9526                 1.4588                 0.4185

                      4                      5                      6
                      A                      A                      A
 Frequencies --    117.1023               138.6728               181.5584
 Red. masses --      5.5325                 5.6668                 6.1448
 Frc consts  --      0.0447                 0.0642                 0.1193
 IR Inten    --      0.1339                 0.3026                 0.3321

                      7                      8                      9
                      A                      A                      A
 Frequencies --    218.6012               269.8990               278.7127
 Red. masses --      5.4443                 4.6759                 7.2358
 Frc consts  --      0.1533                 0.2007                 0.3312
 IR Inten    --      0.1083                 0.1293                 9.5580

                     10                     11                     12
                      A                      A                      A
 Frequencies --    366.0985               380.8046               406.3260
 Red. masses --      5.0210                 6.3444                10.3046
 Frc consts  --      0.3965                 0.5421                 1.0024
 IR Inten    --      0.6112                29.5992                 4.9685

                     13                     14                     15
                      A                      A                      A
 Frequencies --    437.4754               468.6040               501.0740
 Red. masses --      3.2537                 4.7664                 3.1715
 Frc consts  --      0.3669                 0.6167                 0.4692
 IR Inten    --      4.4939                 0.7667                 0.4974

                     16                     17                     18
                      A                      A                      A
 Frequencies --    506.3801               544.7255               558.1420
 Red. masses --      8.8966                 8.6187                 3.8678
 Frc consts  --      1.3441                 1.5068                 0.7099
 IR Inten    --      2.4030                 0.9790                 0.3611

                     19                     20                     21
                      A                      A                      A
 Frequencies --    576.9563               589.7872               660.6615
 Red. masses --      7.6817                 6.7666                 6.6762
 Frc consts  --      1.5066                 1.3868                 1.7169
 IR Inten    --     33.7231                 2.4324                39.5250

                     22                     23                     24
                      A                      A                      A
 Frequencies --    695.9650               716.4841               742.3497
 Red. masses --      1.5884                 6.3849                 2.5206
 Frc consts  --      0.4533                 1.9312                 0.8184
 IR Inten    --     40.3679                 6.7418                15.0808

                     25                     26                     27
                      A                      A                      A
 Frequencies --    758.8674               763.8725               768.2123
 Red. masses --      7.0063                 1.8154                 1.7117
 Frc consts  --      2.3772                 0.6241                 0.5952
 IR Inten    --     39.6463                 3.2838                88.0676

                     28                     29                     30
                      A                      A                      A
 Frequencies --    825.1301               825.8161               867.0973
 Red. masses --      6.2308                 1.6866                 1.3887
 Frc consts  --      2.4994                 0.6777                 0.6152
 IR Inten    --     17.8888                 0.0020                 0.9560

                     31                     32                     33
                      A                      A                      A
 Frequencies --    905.7880               924.0870               955.7862
 Red. masses --      1.3889                 6.4321                 1.3758
 Frc consts  --      0.6714                 3.2361                 0.7405
 IR Inten    --      5.4960                39.9486                 0.9023

                     34                     35                     36
                      A                      A                      A
 Frequencies --    956.3407              1002.9183              1005.6912
 Red. masses --      1.3490                 1.2956                 6.8881
 Frc consts  --      0.7269                 0.7678                 4.1047
 IR Inten    --      1.4633                 0.0002               101.0097

                     37                     38                     39
                      A                      A                      A
 Frequencies --   1044.0427              1050.1689              1093.4535
 Red. masses --      2.1068                 2.0729                 4.0611
 Frc consts  --      1.3530                 1.3470                 2.8608
 IR Inten    --      1.8977                 2.7456                76.5864

                     40                     41                     42
                      A                      A                      A
 Frequencies --   1128.6774              1153.1600              1168.1878
 Red. masses --      1.4706                 1.3410                 1.1875
 Frc consts  --      1.1038                 1.0507                 0.9548
 IR Inten    --      8.7849                11.7384                98.2089

                     43                     44                     45
                      A                      A                      A
 Frequencies --   1180.2947              1196.5218              1256.0841
 Red. masses --      1.1673                 1.0534                 1.7945
 Frc consts  --      0.9581                 0.8885                 1.6681
 IR Inten    --     14.8940                67.8912                81.3002

                     46                     47                     48
                      A                      A                      A
 Frequencies --   1267.9213              1303.8881              1345.1139
 Red. masses --      2.4765                 2.3387                 4.6015
 Frc consts  --      2.3457                 2.3427                 4.9053
 IR Inten    --     29.1715                15.0183                77.5455

                     49                     50                     51
                      A                      A                      A
 Frequencies --   1359.7625              1385.9175              1405.6009
 Red. masses --      6.3269                 2.6867                 2.3410
 Frc consts  --      6.8923                 3.0405                 2.7250
 IR Inten    --    207.9888                27.9410                11.8645

                     52                     53                     54
                      A                      A                      A
 Frequencies --   1445.9673              1478.5605              1497.7523
 Red. masses --      2.9400                 3.6812                 4.1295
 Frc consts  --      3.6217                 4.7415                 5.4579
 IR Inten    --    564.5498                24.7015               179.5492

                     55                     56                     57
                      A                      A                      A
 Frequencies --   1517.1359              1542.8284              1567.4066
 Red. masses --      4.2660                 4.8333                 4.4380
 Frc consts  --      5.7852                 6.7784                 6.4239
 IR Inten    --    125.0738                63.2210                73.7262

                     58                     59                     60
                      A                      A                      A
 Frequencies --   1623.7738              1632.5214              1659.0007
 Red. masses --      5.9128                 5.7848                 6.4790
 Frc consts  --      9.1853                 9.0835                10.5063
 IR Inten    --      7.6435               733.0154               108.3360

                     61                     62                     63
                      A                      A                      A
 Frequencies --   1956.5566              3202.2667              3210.5098
 Red. masses --      1.1143                 1.0880                 1.0862
 Frc consts  --      2.5133                 6.5735                 6.5963
 IR Inten    --    449.8672                20.1463                 5.6412

                     64                     65                     66
                      A                      A                      A
 Frequencies --   3216.9278              3220.8397              3226.4093
 Red. masses --      1.0875                 1.0903                 1.0930
 Frc consts  --      6.6306                 6.6640                 6.7037
 IR Inten    --      2.5512                 3.3649                17.1179

                     67                     68                     69
                      A                      A                      A
 Frequencies --   3231.9867              3238.3145              3238.6746
 Red. masses --      1.0954                 1.0991                 1.0988
 Frc consts  --      6.7416                 6.7909                 6.7908
 IR Inten    --      9.3851                35.1041                 3.0863

 - Thermochemistry -
 -------------------
 Temperature   298.150 Kelvin.  Pressure   1.00000 Atm.
 Atom     1 has atomic number  6 and mass  12.00000

 Molecular mass:   227.04049 amu.
 Principal axes and moments of inertia in atomic units:
                           1         2         3
     Eigenvalues --  1307.730656328.825417636.55602
           X           -0.70252   0.71167   0.00002
           Y            0.71167   0.70252   0.00001
           Z            0.00000  -0.00002   1.00000
 This molecule is an asymmetric top.
 Rotational symmetry number  1.
 Warning -- assumption of classical behavior for rotation
           may cause significant error
 Rotational temperatures (Kelvin)      0.06623     0.01369     0.01134
 Rotational constants (GHZ):           1.38006     0.28516     0.23633
    1 imaginary frequencies ignored.
 Zero-point vibrational energy     478926.8 (Joules/Mol)
                                  114.46625 (Kcal/Mol)
 Warning -- explicit consideration of  19 degrees of freedom as
           vibrations may cause significant error
 Vibrational temperatures:     54.39   101.13   168.48   199.52   261.22
          (Kelvin)            314.52   388.32   401.01   526.73   547.89
                              584.61   629.43   674.22   720.93   728.57
                              783.74   803.04   830.11   848.57   950.54
                             1001.34  1030.86  1068.08  1091.84  1099.04
                             1105.29  1187.18  1188.17  1247.56  1303.23
                             1329.56  1375.16  1375.96  1442.98  1446.97
                             1502.14  1510.96  1573.24  1623.91  1659.14
                             1680.76  1698.18  1721.53  1807.22  1824.26
                             1876.00  1935.32  1956.40  1994.03  2022.35
                             2080.42  2127.32  2154.93  2182.82  2219.79
                             2255.15  2336.25  2348.83  2386.93  2815.05
                             4607.35  4619.21  4628.44  4634.07  4642.08
                             4650.11  4659.21  4659.73

 Zero-point correction=                           0.182414 (Hartree/Particle)
 Thermal correction to Energy=                    0.194425
 Thermal correction to Enthalpy=                  0.195369
 Thermal correction to Gibbs Free Energy=         0.143378
 Sum of electronic and zero-point Energies=          -1028.511180
 Sum of electronic and thermal Energies=             -1028.499168
 Sum of electronic and thermal Enthalpies=           -1028.498224
 Sum of electronic and thermal Free Energies=        -1028.550216

                     E (Thermal)             CV                S
                      KCal/Mol        Cal/Mol-Kelvin    Cal/Mol-Kelvin
 Total                  122.004             48.372            109.426
 Electronic               0.000              0.000              0.000
 Translational            0.889              2.981             42.162
 Rotational               0.889              2.981             32.513
 Vibrational            120.226             42.410             34.750
 Vibration     1          0.594              1.982              5.371
 Vibration     2          0.598              1.968              4.145
 Vibration     3          0.608              1.935              3.148
 Vibration     4          0.614              1.915              2.822
 Vibration     5          0.630              1.865              2.312
 Vibration     6          0.646              1.813              1.971
 Vibration     7          0.674              1.729              1.597
 Vibration     8          0.679              1.713              1.542
 Vibration     9          0.739              1.542              1.096
 Vibration    10          0.751              1.511              1.036
 Vibration    11          0.771              1.456              0.940
 Vibration    12          0.798              1.388              0.835
 Vibration    13          0.826              1.320              0.741
 Vibration    14          0.856              1.248              0.655
 Vibration    15          0.862              1.236              0.642
 Vibration    16          0.900              1.151              0.555
 Vibration    17          0.914              1.122              0.528
 Vibration    18          0.933              1.081              0.491
 Vibration    19          0.947              1.054              0.468

 Optimization completed.
    -- Stationary point found.
 Normal termination of Gaussian 16 at Mon Jul 13 15:33:00 2020.
