 Gaussian 16, Revision C.01,
 Gaussian 16:  ES64L-G16RevC.01  3-Jul-2019

 ----------------------------------------------------------------------
 #p opt=addgic freq td wb97xd/cc-pvdz nosymm int=ultrafine scrf=(solven
 t=CarbonTetraChloride)
 ----------------------------------------------------------------------

 ------------------------------------------------
 NM 2D-scan of HBT TD-WB97XD pVDZ in CTC Relaxed.
 ------------------------------------------------
 Symbolic Z-matrix:
 Charge =  0 Multiplicity = 1

 SCF Done:  E(RwB97XD) =  -1028.58567907     A.U. after   16 cycles
 Total Energy, E(TD-HF/TD-DFT) =  -1028.48103926
 SCF Done:  E(RwB97XD) =  -1028.74058538     A.U. after   14 cycles
 Total Energy, E(TD-HF/TD-DFT) =  -1028.63857570
 SCF Done:  E(RwB97XD) =  -1028.76709841     A.U. after   14 cycles
 Total Energy, E(TD-HF/TD-DFT) =  -1028.67008169
 SCF Done:  E(RwB97XD) =  -1028.78418787     A.U. after   14 cycles
 Total Energy, E(TD-HF/TD-DFT) =  -1028.68446046
 SCF Done:  E(RwB97XD) =  -1028.78363422     A.U. after   13 cycles
 Total Energy, E(TD-HF/TD-DFT) =  -1028.68466396
 SCF Done:  E(RwB97XD) =  -1028.78499424     A.U. after   12 cycles
 Total Energy, E(TD-HF/TD-DFT) =  -1028.68512460
 SCF Done:  E(RwB97XD) =  -1028.78516924     A.U. after   11 cycles
 Total Energy, E(TD-HF/TD-DFT) =  -1028.68513983
 SCF Done:  E(RwB97XD) =  -1028.78518873     A.U. after    9 cycles
 Total Energy, E(TD-HF/TD-DFT) =  -1028.68514101
 Optimization completed.
    -- Stationary point found.
 Normal termination of Gaussian 16 at Mon Jul 13 21:42:12 2020.

 ----------------------------------------------------------------------
 #P Geom=AllCheck Guess=TCheck SCRF=Check GenChk RwB97XD TD(FC,Read)/CC
 -pVDZ Freq
 ----------------------------------------------------------------------

 Structure from the checkpoint file:  "config_12_7.chk"
 ------------------------------------------------
 NM 2D-scan of HBT TD-WB97XD pVDZ in CTC Relaxed.
 ------------------------------------------------
 Charge =  0 Multiplicity = 1

                          Input orientation:
 ---------------------------------------------------------------------
 Center     Atomic      Atomic             Coordinates (Angstroms)
 Number     Number       Type             X           Y           Z
 ---------------------------------------------------------------------
      1          6           0        1.707936   -3.297136    0.000811
      2          6           0        1.028339   -2.085234    0.000319
      3          6           0        1.740129   -0.892828   -0.000478
      4          6           0        3.139409   -0.852106   -0.000797
      5          6           0        3.809974   -2.069688   -0.000304
      6          6           0        3.105543   -3.278090    0.000491
      7          1           0        1.166863   -4.243230    0.001418
      8          1           0        3.673499    0.099088   -0.001394
      9          1           0        4.900950   -2.078474   -0.000528
     10          1           0        3.651642   -4.221752    0.000860
     11          7           0        0.894952    0.171386   -0.000855
     12         16           0       -0.718867   -1.735715    0.000455
     13          6           0       -1.425405    1.079767   -0.000197
     14          6           0       -2.790074    0.888581   -0.000728
     15          6           0       -0.885645    2.463833    0.000679
     16          6           0       -3.715611    1.988715   -0.000474
     17          1           0       -3.197909   -0.125920   -0.001419
     18          6           0       -1.863903    3.523498    0.000873
     19          6           0       -3.252210    3.291725    0.000328
     20          1           0       -4.784813    1.771447   -0.000918
     21          1           0       -1.468177    4.541166    0.001650
     22          1           0       -3.952766    4.128371    0.000558
     23          6           0       -0.457945   -0.007575   -0.000299
     24          8           0        0.346039    2.643425    0.001423
     25          1           0        1.398181    1.020021   -0.001398
 ---------------------------------------------------------------------

 SCF Done:  E(RwB97XD) =  -1028.78518873     A.U. after    1 cycles

 Excitation energies and oscillator strengths:

 Excited state symmetry could not be determined.
 Excited State   1:      Singlet-?Sym    2.7224 eV  455.42 nm  f=0.4281  <S**2>=0.000
      59 -> 60         0.69702
 This state for optimization and/or second-order correction.
 Total Energy, E(TD-HF/TD-DFT) =  -1028.68514094
 Copying the excited state density for this state as the 1-particle RhoCI density.

 Excited state symmetry could not be determined.
 Excited State   2:      Singlet-?Sym    3.3439 eV  370.77 nm  f=0.0000  <S**2>=0.000
      58 -> 60         0.68413
      58 -> 62         0.11500
      58 -> 64         0.10439

 Excited state symmetry could not be determined.
 Excited State   3:      Singlet-?Sym    4.3184 eV  287.11 nm  f=0.4895  <S**2>=0.000
      57 -> 60         0.68222

 Alpha  occ. eigenvalues --  -89.10778 -19.20205 -14.52598 -10.42840 -10.37189
 Alpha  occ. eigenvalues --  -10.36303 -10.35431 -10.33693 -10.33374 -10.32932
 Alpha  occ. eigenvalues --  -10.32629 -10.31360 -10.31101 -10.30465 -10.28975
 Alpha  occ. eigenvalues --  -10.28033  -8.12741  -6.07630  -6.07234  -6.06758
 Alpha  occ. eigenvalues --   -1.13559  -1.09393  -0.98691  -0.95412  -0.93242
 Alpha  occ. eigenvalues --   -0.89141  -0.86724  -0.84231  -0.80540  -0.76073
 Alpha  occ. eigenvalues --   -0.74599  -0.71789  -0.69392  -0.67374  -0.64745
 Alpha  occ. eigenvalues --   -0.61037  -0.59860  -0.56512  -0.56297  -0.56017
 Alpha  occ. eigenvalues --   -0.55089  -0.53536  -0.53006  -0.50626  -0.48731
 Alpha  occ. eigenvalues --   -0.48717  -0.48168  -0.47037  -0.45591  -0.44818
 Alpha  occ. eigenvalues --   -0.44140  -0.42760  -0.42121  -0.39942  -0.36969
 Alpha  occ. eigenvalues --   -0.33876  -0.31610  -0.30695  -0.25294
 Alpha virt. eigenvalues --   -0.02280   0.03482   0.05817   0.06443   0.09773
 Alpha virt. eigenvalues --    0.10834   0.12169   0.14418   0.15994   0.16700
 Alpha virt. eigenvalues --    0.18193   0.19822   0.20886   0.21275   0.22832

 Mulliken charges:
               1
     1  C    0.012316
     2  C   -0.250531
     3  C    0.219214
     4  C   -0.012207
     5  C    0.014659
     6  C    0.002611
     7  H    0.026939
     8  H    0.035031
     9  H    0.029711
    10  H    0.028198
    11  N   -0.068791
    12  S    0.198873
    13  C   -0.091951
    14  C   -0.030247
    15  C    0.113320
    16  C   -0.041408
    17  H    0.001528
    18  C   -0.054864
    19  C    0.035333
    20  H    0.001154
    21  H   -0.002190
    22  H    0.013146
    23  C    0.086557
    24  O   -0.382844
    25  H    0.116444
 Sum of Mulliken charges =  -0.00000

 Dipole moment (field-independent basis, Debye):
    X=              2.6336    Y=             -6.0684    Z=             -0.0039  Tot=              6.6152
 Quadrupole moment (field-independent basis, Debye-Ang):
   XX=            -81.5814   YY=            -96.1198   ZZ=           -104.2052
   XY=             -6.1602   XZ=             -0.0049   YZ=             -0.0115

  Exact polarizability:     347.547    -118.562     290.887       0.008      -0.006      63.334
 Approx polarizability:     277.254     -41.080     265.735       0.003       0.000      82.067

 ******    1 imaginary frequencies (negative Signs) ******

                      1                      2                      3
                      A                      A                      A
 Frequencies --   -116.4042                12.0752                80.4686
 Red. masses --      4.3290                 5.5239                 5.1712
 Frc consts  --      0.0346                 0.0005                 0.0197
 IR Inten    --      7.8682                 0.0002                 1.8380

                      4                      5                      6
                      A                      A                      A
 Frequencies --    104.5962               159.0570               207.3936
 Red. masses --      5.7244                 3.7450                 4.6923
 Frc consts  --      0.0369                 0.0558                 0.1189
 IR Inten    --      6.7138                 4.5116                13.1310

                      7                      8                      9
                      A                      A                      A
 Frequencies --    253.4844               259.8287               302.8452
 Red. masses --      3.6045                 7.4734                 8.7410
 Frc consts  --      0.1365                 0.2973                 0.4723
 IR Inten    --      7.3460                 1.5806                 2.1757

                     10                     11                     12
                      A                      A                      A
 Frequencies --    336.3048               363.0798               369.3558
 Red. masses --      3.7785                 2.0440                 7.0286
 Frc consts  --      0.2518                 0.1588                 0.5650
 IR Inten    --      3.3968                34.6468                 8.2296

                     13                     14                     15
                      A                      A                      A
 Frequencies --    434.9439               448.9741               496.7345
 Red. masses --      4.1089                 2.5645                 7.9800
 Frc consts  --      0.4580                 0.3046                 1.1601
 IR Inten    --      6.7616                 1.9719                10.8741

                     16                     17                     18
                      A                      A                      A
 Frequencies --    515.2681               538.5275               547.8084
 Red. masses --      3.2387                 8.2125                 7.0959
 Frc consts  --      0.5066                 1.4033                 1.2546
 IR Inten    --      0.7875                 9.3581                51.3044

                     19                     20                     21
                      A                      A                      A
 Frequencies --    558.8522               565.5527               644.3167
 Red. masses --      3.7269                 7.3848                 6.3502
 Frc consts  --      0.6858                 1.3917                 1.5532
 IR Inten    --      0.0320                 5.1289                19.0431

                     22                     23                     24
                      A                      A                      A
 Frequencies --    686.3107               695.2688               733.4892
 Red. masses --      1.5358                 5.9657                 7.6169
 Frc consts  --      0.4262                 1.6991                 2.4144
 IR Inten    --     29.9869                 2.3489                 5.4151

                     25                     26                     27
                      A                      A                      A
 Frequencies --    743.2927               758.8109               767.8055
 Red. masses --      2.5633                 1.7040                 1.6472
 Frc consts  --      0.8344                 0.5781                 0.5721
 IR Inten    --     14.8148                12.0729                91.3949

                     28                     29                     30
                      A                      A                      A
 Frequencies --    812.0925               841.6644               863.0630
 Red. masses --      6.3182                 1.9176                 1.3785
 Frc consts  --      2.4550                 0.8004                 0.6050
 IR Inten    --     16.6935                 1.3185                 1.3516

                     31                     32                     33
                      A                      A                      A
 Frequencies --    901.1516               904.8981               953.6284
 Red. masses --      5.9637                 1.4350                 1.3570
 Frc consts  --      2.8534                 0.6923                 0.7271
 IR Inten    --      1.3332                 9.5414                 0.4996

                     34                     35                     36
                      A                      A                      A
 Frequencies --    957.8013               965.1607              1004.4737
 Red. masses --      1.3487                 4.9899                 1.2932
 Frc consts  --      0.7290                 2.7387                 0.7688
 IR Inten    --      1.6262                 1.7926                 0.0000

                     37                     38                     39
                      A                      A                      A
 Frequencies --   1030.1644              1057.5016              1082.5453
 Red. masses --      2.3158                 2.3475                 3.1613
 Frc consts  --      1.4480                 1.5467                 2.1827
 IR Inten    --      2.1911                14.2840                 5.2399

                     40                     41                     42
                      A                      A                      A
 Frequencies --   1094.4369              1151.4504              1153.9152
 Red. masses --      1.7810                 1.3147                 1.3924
 Frc consts  --      1.2569                 1.0270                 1.0924
 IR Inten    --     34.2844               141.8041                10.3738

                     43                     44                     45
                      A                      A                      A
 Frequencies --   1163.6004              1182.8942              1226.6478
 Red. masses --      1.2350                 1.1326                 3.1537
 Frc consts  --      0.9852                 0.9337                 2.7958
 IR Inten    --      4.6187                 5.4739                20.7539

                     46                     47                     48
                      A                      A                      A
 Frequencies --   1239.9941              1302.5135              1335.4240
 Red. masses --      2.4589                 1.5734                 3.0557
 Frc consts  --      2.2275                 1.5727                 3.2107
 IR Inten    --     37.6904                 6.8711                27.1436

                     49                     50                     51
                      A                      A                      A
 Frequencies --   1362.3072              1389.6866              1405.8419
 Red. masses --      2.5253                 2.2757                 5.9979
 Frc consts  --      2.7613                 2.5894                 6.9843
 IR Inten    --     29.1764                54.5912                64.0341

                     52                     53                     54
                      A                      A                      A
 Frequencies --   1448.9494              1464.3577              1513.6948
 Red. masses --      2.8471                 3.0569                 3.6553
 Frc consts  --      3.5217                 3.8621                 4.9346
 IR Inten    --     86.3391                 6.8577               105.2778

                     55                     56                     57
                      A                      A                      A
 Frequencies --   1528.5794              1554.7982              1619.4986
 Red. masses --      2.7534                 5.8270                 5.3417
 Frc consts  --      3.7905                 8.2993                 8.2546
 IR Inten    --      2.6187               182.1676                99.5726

                     58                     59                     60
                      A                      A                      A
 Frequencies --   1654.4485              1664.9111              1689.6779
 Red. masses --      9.4793                 6.9144                 7.3499
 Frc consts  --     15.2874                11.2924                12.3635
 IR Inten    --    147.5846               104.9096                33.0489

                     61                     62                     63
                      A                      A                      A
 Frequencies --   3185.0702              3205.5720              3213.5787
 Red. masses --      1.0896                 1.0861                 1.0866
 Frc consts  --      6.5124                 6.5756                 6.6115
 IR Inten    --     23.4767                 2.3428                 6.3871

                     64                     65                     66
                      A                      A                      A
 Frequencies --   3218.1958              3225.9434              3231.9086
 Red. masses --      1.0913                 1.0902                 1.0989
 Frc consts  --      6.6592                 6.6846                 6.7627
 IR Inten    --     12.3415                 1.8956                26.7486

                     67                     68                     69
                      A                      A                      A
 Frequencies --   3232.7633              3242.7193              3939.4299
 Red. masses --      1.0963                 1.0990                 1.0781
 Frc consts  --      6.7501                 6.8085                 9.8581
 IR Inten    --      5.6863                12.8970               263.3117

 - Thermochemistry -
 -------------------
 Temperature   298.150 Kelvin.  Pressure   1.00000 Atm.
 Atom     1 has atomic number  6 and mass  12.00000

 Molecular mass:   227.04049 amu.
 Principal axes and moments of inertia in atomic units:
                           1         2         3
     Eigenvalues --  1280.943616528.822227809.76506
           X           -0.70628   0.70793  -0.00002
           Y            0.70793   0.70628  -0.00005
           Z            0.00002   0.00005   1.00000
 This molecule is an asymmetric top.
 Rotational symmetry number  1.
 Warning -- assumption of classical behavior for rotation
           may cause significant error
 Rotational temperatures (Kelvin)      0.06762     0.01327     0.01109
 Rotational constants (GHZ):           1.40892     0.27643     0.23109
    1 imaginary frequencies ignored.
 Zero-point vibrational energy     489281.0 (Joules/Mol)
                                  116.94097 (Kcal/Mol)
 Warning -- explicit consideration of  19 degrees of freedom as
           vibrations may cause significant error
 Vibrational temperatures:     17.37   115.78   150.49   228.85   298.39
          (Kelvin)            364.71   373.84   435.73   483.87   522.39
                              531.42   625.79   645.97   714.69   741.36
                              774.82   788.17   804.06   813.70   927.03
                              987.45  1000.34  1055.33  1069.43  1091.76
                             1104.70  1168.42  1210.97  1241.76  1296.56
                             1301.95  1372.06  1378.06  1388.65  1445.21
                             1482.18  1521.51  1557.54  1574.65  1656.68
                             1660.23  1674.16  1701.92  1764.87  1784.07
                             1874.03  1921.38  1960.06  1999.45  2022.69
                             2084.72  2106.88  2177.87  2199.28  2237.01
                             2330.10  2380.38  2395.44  2431.07  4582.61
                             4612.10  4623.62  4630.27  4641.41  4650.00
                             4651.23  4665.55  5667.96

 Zero-point correction=                           0.186357 (Hartree/Particle)
 Thermal correction to Energy=                    0.198474
 Thermal correction to Enthalpy=                  0.199418
 Thermal correction to Gibbs Free Energy=         0.146445
 Sum of electronic and zero-point Energies=          -1028.498784
 Sum of electronic and thermal Energies=             -1028.486667
 Sum of electronic and thermal Enthalpies=           -1028.485723
 Sum of electronic and thermal Free Energies=        -1028.538696

                     E (Thermal)             CV                S
                      KCal/Mol        Cal/Mol-Kelvin    Cal/Mol-Kelvin
 Total                  124.544             48.876            111.493
 Electronic               0.000              0.000              0.000
 Translational            0.889              2.981             42.162
 Rotational               0.889              2.981             32.546
 Vibrational            122.767             42.914             36.785
 Vibration     1          0.593              1.987              7.636
 Vibration     2          0.600              1.962              3.879
 Vibration     3          0.605              1.946              3.367
 Vibration     4          0.621              1.892              2.561
 Vibration     5          0.641              1.829              2.066
 Vibration     6          0.665              1.757              1.706
 Vibration     7          0.668              1.746              1.663
 Vibration     8          0.694              1.668              1.401
 Vibration     9          0.717              1.603              1.230
 Vibration    10          0.737              1.548              1.109
 Vibration    11          0.742              1.535              1.082
 Vibration    12          0.796              1.394              0.843
 Vibration    13          0.808              1.363              0.799
 Vibration    14          0.852              1.257              0.666
 Vibration    15          0.870              1.216              0.621
 Vibration    16          0.894              1.165              0.568
 Vibration    17          0.903              1.144              0.549
 Vibration    18          0.914              1.120              0.526
 Vibration    19          0.921              1.106              0.513

                           ! Non-Optimized Parameters !
 Normal termination of Gaussian 16 at Mon Jul 13 21:59:55 2020.
