 Gaussian 16, Revision C.01,
 Gaussian 16:  ES64L-G16RevC.01  3-Jul-2019

 ----------------------------------------------------------------------
 #p opt=addgic freq td wb97xd/cc-pvdz nosymm int=ultrafine scrf=(solven
 t=CarbonTetraChloride)
 ----------------------------------------------------------------------

 ------------------------------------------------
 NM 2D-scan of HBT TD-WB97XD pVDZ in CTC Relaxed.
 ------------------------------------------------
 Symbolic Z-matrix:
 Charge =  0 Multiplicity = 1

 SCF Done:  E(RwB97XD) =  -1028.81452348     A.U. after   15 cycles
 Total Energy, E(TD-HF/TD-DFT) =  -1028.69190199
 Optimization completed.
    -- Stationary point found.
 Normal termination of Gaussian 16 at Mon Jul 13 14:35:58 2020.

 ----------------------------------------------------------------------
 #P Geom=AllCheck Guess=TCheck SCRF=Check GenChk RwB97XD TD(FC,Read)/CC
 -pVDZ Freq
 ----------------------------------------------------------------------

 Structure from the checkpoint file:  "config_6_7.chk"
 ------------------------------------------------
 NM 2D-scan of HBT TD-WB97XD pVDZ in CTC Relaxed.
 ------------------------------------------------
 Charge =  0 Multiplicity = 1

                          Input orientation:
 ---------------------------------------------------------------------
 Center     Atomic      Atomic             Coordinates (Angstroms)
 Number     Number       Type             X           Y           Z
 ---------------------------------------------------------------------
      1          6           0        1.676484   -3.265877   -0.000022
      2          6           0        1.000126   -2.048867   -0.000021
      3          6           0        1.704716   -0.810664   -0.000021
      4          6           0        3.116366   -0.816832   -0.000022
      5          6           0        3.777145   -2.033548   -0.000022
      6          6           0        3.071358   -3.250529   -0.000022
      7          1           0        1.129462   -4.209500   -0.000021
      8          1           0        3.658334    0.129488   -0.000022
      9          1           0        4.868539   -2.049394   -0.000023
     10          1           0        3.618852   -4.193992   -0.000022
     11          7           0        0.910204    0.279791   -0.000021
     12         16           0       -0.733873   -1.759046   -0.000020
     13          6           0       -1.382589    1.022163    0.000003
     14          6           0       -2.776229    0.836052   -0.000000
     15          6           0       -0.880512    2.416666    0.000032
     16          6           0       -3.646545    1.932299    0.000025
     17          1           0       -3.184375   -0.176320   -0.000023
     18          6           0       -1.795028    3.492542    0.000056
     19          6           0       -3.166793    3.257578    0.000054
     20          1           0       -4.722771    1.751599    0.000022
     21          1           0       -1.379315    4.500781    0.000079
     22          1           0       -3.868202    4.092131    0.000075
     23          6           0       -0.416365   -0.015898   -0.000016
     24          8           0        0.393800    2.643029    0.000037
     25          1           0        0.904815    1.610215    0.000011
 ---------------------------------------------------------------------

 SCF Done:  E(RwB97XD) =  -1028.81452348     A.U. after    1 cycles

 Excitation energies and oscillator strengths:

 Excited state symmetry could not be determined.
 Excited State   1:      Singlet-?Sym    3.3367 eV  371.58 nm  f=0.5364  <S**2>=0.000
      59 -> 60         0.69248
 This state for optimization and/or second-order correction.
 Total Energy, E(TD-HF/TD-DFT) =  -1028.69190199
 Copying the excited state density for this state as the 1-particle RhoCI density.

 Excited state symmetry could not be determined.
 Excited State   2:      Singlet-?Sym    4.3843 eV  282.79 nm  f=0.3487  <S**2>=0.000
      57 -> 60         0.14186
      58 -> 60         0.65965
      59 -> 64        -0.10502

 Excited state symmetry could not be determined.
 Excited State   3:      Singlet-?Sym    4.7158 eV  262.91 nm  f=0.0471  <S**2>=0.000
      55 -> 61        -0.11030
      57 -> 60         0.57931
      57 -> 62        -0.15270
      58 -> 60        -0.14269
      58 -> 61        -0.19020
      59 -> 61        -0.23498

 Alpha  occ. eigenvalues --  -89.09612 -19.25719 -14.48366 -10.40511 -10.37453
 Alpha  occ. eigenvalues --  -10.35809 -10.35287 -10.32600 -10.32069 -10.31995
 Alpha  occ. eigenvalues --  -10.31931 -10.31756 -10.31710 -10.31618 -10.30013
 Alpha  occ. eigenvalues --  -10.29698  -8.11567  -6.06425  -6.06074  -6.05615
 Alpha  occ. eigenvalues --   -1.14880  -1.09253  -0.97074  -0.95478  -0.92285
 Alpha  occ. eigenvalues --   -0.88904  -0.85397  -0.83961  -0.82322  -0.75906
 Alpha  occ. eigenvalues --   -0.71239  -0.70609  -0.68759  -0.68180  -0.63500
 Alpha  occ. eigenvalues --   -0.60752  -0.59118  -0.58123  -0.55552  -0.54419
 Alpha  occ. eigenvalues --   -0.54331  -0.53300  -0.52742  -0.51083  -0.49844
 Alpha  occ. eigenvalues --   -0.49807  -0.47256  -0.46235  -0.45570  -0.44907
 Alpha  occ. eigenvalues --   -0.44033  -0.42873  -0.42357  -0.40479  -0.36548
 Alpha  occ. eigenvalues --   -0.35753  -0.32601  -0.31206  -0.27649
 Alpha virt. eigenvalues --   -0.01760   0.04661   0.06753   0.07082   0.07804
 Alpha virt. eigenvalues --    0.10752   0.13706   0.15011   0.16187   0.17865
 Alpha virt. eigenvalues --    0.18754   0.20868   0.21625   0.22279   0.22541

 Mulliken charges:
               1
     1  C    0.014884
     2  C   -0.232466
     3  C    0.263739
     4  C   -0.015718
     5  C    0.009333
     6  C   -0.003437
     7  H    0.020694
     8  H    0.022813
     9  H    0.021843
    10  H    0.022577
    11  N   -0.325038
    12  S    0.174974
    13  C   -0.106732
    14  C   -0.020781
    15  C    0.114638
    16  C   -0.024037
    17  H    0.009599
    18  C   -0.005710
    19  C    0.027290
    20  H    0.008013
    21  H    0.013144
    22  H    0.020260
    23  C    0.077382
    24  O   -0.301956
    25  H    0.214693
 Sum of Mulliken charges =  -0.00000

 Dipole moment (field-independent basis, Debye):
    X=              0.2491    Y=             -3.1962    Z=             -0.0000  Tot=              3.2059
 Quadrupole moment (field-independent basis, Debye-Ang):
   XX=            -83.2452   YY=            -90.7975   ZZ=           -104.3114
   XY=             -6.9452   XZ=             -0.0001   YZ=              0.0001

  Exact polarizability:     372.730    -155.312     336.839      -0.002       0.003      63.338
 Approx polarizability:     275.645     -35.283     261.227      -0.001       0.002      82.346

 ******    1 imaginary frequencies (negative Signs) ******

                      1                      2                      3
                      A                      A                      A
 Frequencies --   -841.2069                37.7928                51.2100
 Red. masses --      1.1419                 5.9897                 7.0282
 Frc consts  --      0.4761                 0.0050                 0.0109
 IR Inten    --    861.7750                 0.5520                 1.0172

                      4                      5                      6
                      A                      A                      A
 Frequencies --    109.9876               141.8884               177.1426
 Red. masses --      4.7977                 5.7227                 5.9727
 Frc consts  --      0.0342                 0.0679                 0.1104
 IR Inten    --      0.0265                 6.2541                 0.7048

                      7                      8                      9
                      A                      A                      A
 Frequencies --    221.8584               271.0679               271.9782
 Red. masses --      5.3649                 4.7618                 7.4268
 Frc consts  --      0.1556                 0.2061                 0.3237
 IR Inten    --      0.0516                 0.1495                14.7024

                     10                     11                     12
                      A                      A                      A
 Frequencies --    376.3021               384.8848               411.7966
 Red. masses --      4.8684                 5.9097                11.1127
 Frc consts  --      0.4062                 0.5158                 1.1103
 IR Inten    --      0.3310                 2.5880                 5.7203

                     13                     14                     15
                      A                      A                      A
 Frequencies --    438.0681               479.2785               497.0578
 Red. masses --      3.2342                 4.7827                 3.1676
 Frc consts  --      0.3657                 0.6473                 0.4611
 IR Inten    --      4.7140                 0.0248                 0.3218

                     16                     17                     18
                      A                      A                      A
 Frequencies --    505.4903               538.5159               557.0165
 Red. masses --      8.8330                 8.3232                 3.9065
 Frc consts  --      1.3298                 1.4221                 0.7141
 IR Inten    --      0.6403                10.8937                 0.2204

                     19                     20                     21
                      A                      A                      A
 Frequencies --    578.7872               622.5823               696.5475
 Red. masses --      7.5328                 7.1636                 6.7524
 Frc consts  --      1.4868                 1.6360                 1.9302
 IR Inten    --      0.3442                 7.9331                73.9187

                     22                     23                     24
                      A                      A                      A
 Frequencies --    699.0432               730.1090               741.0748
 Red. masses --      1.6407                 6.0701                 2.1587
 Frc consts  --      0.4724                 1.9064                 0.6985
 IR Inten    --     42.2347               147.4563                20.2971

                     25                     26                     27
                      A                      A                      A
 Frequencies --    744.5547               761.5553               768.8687
 Red. masses --      9.5700                 1.9419                 1.8233
 Frc consts  --      3.1257                 0.6636                 0.6351
 IR Inten    --     21.3067                23.6905                64.2346

                     28                     29                     30
                      A                      A                      A
 Frequencies --    820.9438               822.5316               863.4746
 Red. masses --      1.6344                 6.2735                 1.4022
 Frc consts  --      0.6490                 2.5007                 0.6160
 IR Inten    --      0.0190                 4.3986                 0.9763

                     31                     32                     33
                      A                      A                      A
 Frequencies --    908.9258               915.5622               954.9053
 Red. masses --      1.3694                 6.7508                 1.3444
 Frc consts  --      0.6666                 3.3341                 0.7223
 IR Inten    --      5.2481                15.2916                 1.8216

                     34                     35                     36
                      A                      A                      A
 Frequencies --    958.4613               987.8862              1001.0029
 Red. masses --      1.3809                 7.4132                 1.2945
 Frc consts  --      0.7474                 4.2626                 0.7642
 IR Inten    --      0.5045                 7.7310                 0.0019

                     37                     38                     39
                      A                      A                      A
 Frequencies --   1038.6270              1048.5622              1085.2375
 Red. masses --      2.1519                 2.0582                 4.5249
 Frc consts  --      1.3677                 1.3333                 3.1398
 IR Inten    --      0.2895                 2.2506                63.5788

                     40                     41                     42
                      A                      A                      A
 Frequencies --   1131.9258              1150.8145              1171.3329
 Red. masses --      1.4314                 1.3347                 1.1548
 Frc consts  --      1.0805                 1.0414                 0.9335
 IR Inten    --     49.5957                17.1999                86.7214

                     43                     44                     45
                      A                      A                      A
 Frequencies --   1179.1925              1222.5901              1251.7200
 Red. masses --      1.1623                 1.0529                 1.8274
 Frc consts  --      0.9522                 0.9273                 1.6869
 IR Inten    --     34.8820                64.2864               100.3249

                     46                     47                     48
                      A                      A                      A
 Frequencies --   1263.2320              1294.4606              1358.4919
 Red. masses --      3.0384                 2.0636                 3.5130
 Frc consts  --      2.8567                 2.0373                 3.8198
 IR Inten    --     36.9471                12.9148               168.9567

                     49                     50                     51
                      A                      A                      A
 Frequencies --   1370.8756              1397.0735              1404.5358
 Red. masses --      5.7177                 2.6960                 2.3078
 Frc consts  --      6.3309                 3.1003                 2.6823
 IR Inten    --    245.2684                48.2373                 6.2935

                     52                     53                     54
                      A                      A                      A
 Frequencies --   1446.2817              1479.9280              1513.2434
 Red. masses --      3.0995                 3.3089                 4.8389
 Frc consts  --      3.8199                 4.2699                 6.5285
 IR Inten    --    328.7266               142.7969               301.8817

                     55                     56                     57
                      A                      A                      A
 Frequencies --   1526.0904              1542.3449              1564.5385
 Red. masses --      4.7205                 4.8477                 4.5952
 Frc consts  --      6.4774                 6.7943                 6.6271
 IR Inten    --     97.1584                87.9887               408.4117

                     58                     59                     60
                      A                      A                      A
 Frequencies --   1620.2110              1646.4169              1655.0487
 Red. masses --      6.0305                 6.0861                 6.2526
 Frc consts  --      9.3271                 9.7201                10.0909
 IR Inten    --    137.8039              1048.6808                15.6683

                     61                     62                     63
                      A                      A                      A
 Frequencies --   1831.4575              3204.5387              3207.8124
 Red. masses --      1.0901                 1.0877                 1.0864
 Frc consts  --      2.1544                 6.5808                 6.5865
 IR Inten    --     57.9514                13.1724                 8.4495

                     64                     65                     66
                      A                      A                      A
 Frequencies --   3217.3672              3219.4266              3226.0860
 Red. masses --      1.0882                 1.0900                 1.0932
 Frc consts  --      6.6368                 6.6565                 6.7037
 IR Inten    --      2.4825                 3.1159                16.3290

                     67                     68                     69
                      A                      A                      A
 Frequencies --   3230.8422              3237.0633              3238.3415
 Red. masses --      1.0953                 1.0991                 1.0986
 Frc consts  --      6.7360                 6.7858                 6.7880
 IR Inten    --     10.4442                33.0233                13.3513

 - Thermochemistry -
 -------------------
 Temperature   298.150 Kelvin.  Pressure   1.00000 Atm.
 Atom     1 has atomic number  6 and mass  12.00000

 Molecular mass:   227.04049 amu.
 Principal axes and moments of inertia in atomic units:
                           1         2         3
     Eigenvalues --  1313.273146312.541327625.81446
           X           -0.70351   0.71069   0.00000
           Y            0.71069   0.70351  -0.00001
           Z            0.00001   0.00001   1.00000
 This molecule is an asymmetric top.
 Rotational symmetry number  1.
 Warning -- assumption of classical behavior for rotation
           may cause significant error
 Rotational temperatures (Kelvin)      0.06595     0.01372     0.01136
 Rotational constants (GHZ):           1.37423     0.28590     0.23666
    1 imaginary frequencies ignored.
 Zero-point vibrational energy     478649.0 (Joules/Mol)
                                  114.39986 (Kcal/Mol)
 Warning -- explicit consideration of  18 degrees of freedom as
           vibrations may cause significant error
 Vibrational temperatures:     54.38    73.68   158.25   204.15   254.87
          (Kelvin)            319.20   390.01   391.32   541.41   553.76
                              592.48   630.28   689.57   715.16   727.29
                              774.80   801.42   832.75   895.76  1002.18
                             1005.77  1050.46  1066.24  1071.25  1095.71
                             1106.23  1181.16  1183.44  1242.35  1307.74
                             1317.29  1373.90  1379.01  1421.35  1440.22
                             1494.35  1508.65  1561.41  1628.59  1655.77
                             1685.29  1696.59  1759.03  1800.95  1817.51
                             1862.44  1954.57  1972.38  2010.08  2020.81
                             2080.88  2129.29  2177.22  2195.70  2219.09
                             2251.02  2331.12  2368.83  2381.25  2635.06
                             4610.62  4615.33  4629.07  4632.04  4641.62
                             4648.46  4657.41  4659.25

 Zero-point correction=                           0.182308 (Hartree/Particle)
 Thermal correction to Energy=                    0.194326
 Thermal correction to Enthalpy=                  0.195271
 Thermal correction to Gibbs Free Energy=         0.143001
 Sum of electronic and zero-point Energies=          -1028.509594
 Sum of electronic and thermal Energies=             -1028.497576
 Sum of electronic and thermal Enthalpies=           -1028.496631
 Sum of electronic and thermal Free Energies=        -1028.548901

                     E (Thermal)             CV                S
                      KCal/Mol        Cal/Mol-Kelvin    Cal/Mol-Kelvin
 Total                  121.942             48.247            110.011
 Electronic               0.000              0.000              0.000
 Translational            0.889              2.981             42.162
 Rotational               0.889              2.981             32.514
 Vibrational            120.164             42.285             35.336
 Vibration     1          0.594              1.982              5.372
 Vibration     2          0.595              1.977              4.770
 Vibration     3          0.606              1.941              3.269
 Vibration     4          0.615              1.911              2.778
 Vibration     5          0.628              1.870              2.358
 Vibration     6          0.648              1.808              1.944
 Vibration     7          0.675              1.727              1.589
 Vibration     8          0.675              1.725              1.584
 Vibration     9          0.747              1.521              1.054
 Vibration    10          0.754              1.502              1.020
 Vibration    11          0.776              1.445              0.920
 Vibration    12          0.798              1.387              0.833
 Vibration    13          0.836              1.296              0.712
 Vibration    14          0.853              1.257              0.666
 Vibration    15          0.861              1.238              0.645
 Vibration    16          0.894              1.165              0.568
 Vibration    17          0.913              1.124              0.530
 Vibration    18          0.935              1.077              0.488

 Optimization completed.
    -- Stationary point found.
 Normal termination of Gaussian 16 at Mon Jul 13 14:53:28 2020.
