 Gaussian 16, Revision C.01,
 Gaussian 16:  ES64L-G16RevC.01  3-Jul-2019

 ----------------------------------------------------------------------
 #p opt=addgic freq td wb97xd/cc-pvdz nosymm int=ultrafine scrf=(solven
 t=CarbonTetraChloride)
 ----------------------------------------------------------------------

 ------------------------------------------------
 NM 2D-scan of HBT TD-WB97XD pVDZ in CTC Relaxed.
 ------------------------------------------------
 Symbolic Z-matrix:
 Charge =  0 Multiplicity = 1

 SCF Done:  E(RwB97XD) =  -1028.73482054     A.U. after   16 cycles
 Total Energy, E(TD-HF/TD-DFT) =  -1028.62881788
 SCF Done:  E(RwB97XD) =  -1028.78710934     A.U. after   14 cycles
 Total Energy, E(TD-HF/TD-DFT) =  -1028.68503719
 SCF Done:  E(RwB97XD) =  -1028.79551261     A.U. after   13 cycles
 Total Energy, E(TD-HF/TD-DFT) =  -1028.69173738
 SCF Done:  E(RwB97XD) =  -1028.79433765     A.U. after   11 cycles
 Total Energy, E(TD-HF/TD-DFT) =  -1028.69187726
 SCF Done:  E(RwB97XD) =  -1028.79487494     A.U. after   11 cycles
 Total Energy, E(TD-HF/TD-DFT) =  -1028.69199376
 SCF Done:  E(RwB97XD) =  -1028.79483917     A.U. after    9 cycles
 Total Energy, E(TD-HF/TD-DFT) =  -1028.69199625
 Optimization completed.
    -- Stationary point found.
 Normal termination of Gaussian 16 at Mon Jul 13 19:27:24 2020.

 ----------------------------------------------------------------------
 #P Geom=AllCheck Guess=TCheck SCRF=Check GenChk RwB97XD TD(FC,Read)/CC
 -pVDZ Freq
 ----------------------------------------------------------------------

 Structure from the checkpoint file:  "config_11_4.chk"
 ------------------------------------------------
 NM 2D-scan of HBT TD-WB97XD pVDZ in CTC Relaxed.
 ------------------------------------------------
 Charge =  0 Multiplicity = 1

                          Input orientation:
 ---------------------------------------------------------------------
 Center     Atomic      Atomic             Coordinates (Angstroms)
 Number     Number       Type             X           Y           Z
 ---------------------------------------------------------------------
      1          6           0        1.743393   -3.289892    0.000115
      2          6           0        1.026304   -2.097582    0.000035
      3          6           0        1.709940   -0.879976   -0.000102
      4          6           0        3.108209   -0.803310   -0.000154
      5          6           0        3.812307   -1.999392   -0.000072
      6          6           0        3.140498   -3.228279    0.000059
      7          1           0        1.232405   -4.252872    0.000218
      8          1           0        3.610387    0.164625   -0.000252
      9          1           0        4.903130   -1.979601   -0.000108
     10          1           0        3.713131   -4.156255    0.000120
     11          7           0        0.849696    0.163773   -0.000166
     12         16           0       -0.731706   -1.797475    0.000072
     13          6           0       -1.430750    1.054076   -0.000025
     14          6           0       -2.806586    0.910925   -0.000130
     15          6           0       -0.862872    2.435890    0.000132
     16          6           0       -3.692047    2.035509   -0.000057
     17          1           0       -3.245694   -0.090114   -0.000280
     18          6           0       -1.804440    3.520655    0.000200
     19          6           0       -3.193087    3.329822    0.000115
     20          1           0       -4.767713    1.852984   -0.000135
     21          1           0       -1.370838    4.522468    0.000350
     22          1           0       -3.870034    4.185307    0.000181
     23          6           0       -0.492460   -0.053948   -0.000059
     24          8           0        0.373927    2.630954    0.000244
     25          1           0        1.226487    1.092328   -0.000227
 ---------------------------------------------------------------------

 SCF Done:  E(RwB97XD) =  -1028.79483917     A.U. after    1 cycles

 Excitation energies and oscillator strengths:

 Excited state symmetry could not be determined.
 Excited State   1:      Singlet-?Sym    2.7985 eV  443.04 nm  f=0.4297  <S**2>=0.000
      59 -> 60         0.69637
 This state for optimization and/or second-order correction.
 Total Energy, E(TD-HF/TD-DFT) =  -1028.69199628
 Copying the excited state density for this state as the 1-particle RhoCI density.

 Excited state symmetry could not be determined.
 Excited State   2:      Singlet-?Sym    3.5136 eV  352.87 nm  f=0.0000  <S**2>=0.000
      58 -> 60         0.68364
      58 -> 62         0.11731
      58 -> 64         0.11043

 Excited state symmetry could not be determined.
 Excited State   3:      Singlet-?Sym    4.3353 eV  285.99 nm  f=0.4872  <S**2>=0.000
      57 -> 60         0.68107

 Alpha  occ. eigenvalues --  -89.10851 -19.20752 -14.52123 -10.42607 -10.37170
 Alpha  occ. eigenvalues --  -10.36369 -10.35793 -10.33654 -10.33166 -10.32799
 Alpha  occ. eigenvalues --  -10.32559 -10.31438 -10.31361 -10.30538 -10.29049
 Alpha  occ. eigenvalues --  -10.28132  -8.12770  -6.07661  -6.07272  -6.06786
 Alpha  occ. eigenvalues --   -1.13473  -1.09588  -0.98565  -0.95095  -0.93221
 Alpha  occ. eigenvalues --   -0.89201  -0.86597  -0.84200  -0.80746  -0.76091
 Alpha  occ. eigenvalues --   -0.73980  -0.71767  -0.69257  -0.67462  -0.64898
 Alpha  occ. eigenvalues --   -0.60983  -0.59837  -0.56584  -0.56183  -0.55861
 Alpha  occ. eigenvalues --   -0.55035  -0.53568  -0.53059  -0.50808  -0.48920
 Alpha  occ. eigenvalues --   -0.48743  -0.48198  -0.46990  -0.45563  -0.44776
 Alpha  occ. eigenvalues --   -0.44351  -0.42822  -0.42069  -0.40128  -0.36920
 Alpha  occ. eigenvalues --   -0.33808  -0.31552  -0.31257  -0.25560
 Alpha virt. eigenvalues --   -0.02202   0.03566   0.05934   0.06340   0.09525
 Alpha virt. eigenvalues --    0.10698   0.11816   0.14505   0.16052   0.17054
 Alpha virt. eigenvalues --    0.18671   0.19910   0.20974   0.21322   0.22986

 Mulliken charges:
               1
     1  C    0.011894
     2  C   -0.252493
     3  C    0.243590
     4  C   -0.010348
     5  C    0.015283
     6  C    0.000888
     7  H    0.027236
     8  H    0.034740
     9  H    0.029059
    10  H    0.027764
    11  N   -0.082244
    12  S    0.198246
    13  C   -0.110638
    14  C   -0.023855
    15  C    0.118314
    16  C   -0.040652
    17  H    0.000426
    18  C   -0.039668
    19  C    0.034925
    20  H    0.001799
    21  H   -0.000821
    22  H    0.013387
    23  C    0.075062
    24  O   -0.394133
    25  H    0.122240
 Sum of Mulliken charges =  -0.00000

 Dipole moment (field-independent basis, Debye):
    X=              2.2588    Y=             -5.7873    Z=             -0.0006  Tot=              6.2125
 Quadrupole moment (field-independent basis, Debye-Ang):
   XX=            -82.1528   YY=            -95.4409   ZZ=           -104.2456
   XY=             -6.4363   XZ=             -0.0008   YZ=             -0.0017

  Exact polarizability:     348.844    -121.015     295.564      -0.000       0.001      63.358
 Approx polarizability:     276.235     -39.650     266.497      -0.000       0.002      82.121

 ******    1 imaginary frequencies (negative Signs) ******

                      1                      2                      3
                      A                      A                      A
 Frequencies --   -101.1338                45.7635                98.3657
 Red. masses --      6.9970                 6.4711                 4.7583
 Frc consts  --      0.0422                 0.0080                 0.0271
 IR Inten    --      2.1106                 1.5228                 0.0389

                      4                      5                      6
                      A                      A                      A
 Frequencies --    112.0852               171.0441               227.4145
 Red. masses --      5.7548                 5.0001                 5.5246
 Frc consts  --      0.0426                 0.0862                 0.1683
 IR Inten    --      7.3371                 0.0107                 0.6644

                      7                      8                      9
                      A                      A                      A
 Frequencies --    262.8805               269.3024               319.7613
 Red. masses --      7.5577                 4.4862                 7.7913
 Frc consts  --      0.3077                 0.1917                 0.4694
 IR Inten    --      1.1182                 1.8869                 2.6183

                     10                     11                     12
                      A                      A                      A
 Frequencies --    345.5924               375.0590               426.7426
 Red. masses --      4.6100                 8.0440                 3.4975
 Frc consts  --      0.3244                 0.6667                 0.3753
 IR Inten    --      0.9826                 7.5924                 5.2562

                     13                     14                     15
                      A                      A                      A
 Frequencies --    444.9367               498.4892               510.8993
 Red. masses --      4.4213                 8.1540                 3.1963
 Frc consts  --      0.5157                 1.1938                 0.4915
 IR Inten    --      4.1265                10.5127                 0.3841

                     16                     17                     18
                      A                      A                      A
 Frequencies --    538.3476               553.4754               560.4698
 Red. masses --      8.7396                 3.6072                 7.0103
 Frc consts  --      1.4923                 0.6511                 1.2974
 IR Inten    --     12.2788                 3.2187                36.2200

                     19                     20                     21
                      A                      A                      A
 Frequencies --    567.8011               642.9195               659.6214
 Red. masses --      7.3955                 6.2191                 1.1708
 Frc consts  --      1.4048                 1.5146                 0.3002
 IR Inten    --     12.6597                39.6007                63.6993

                     22                     23                     24
                      A                      A                      A
 Frequencies --    692.4462               696.3255               730.9217
 Red. masses --      1.4519                 6.2599                 8.0519
 Frc consts  --      0.4102                 1.7883                 2.5345
 IR Inten    --      8.5570                 1.3129                 3.8186

                     25                     26                     27
                      A                      A                      A
 Frequencies --    742.5647               761.3332               768.8462
 Red. masses --      2.5473                 1.7151                 1.6883
 Frc consts  --      0.8276                 0.5857                 0.5880
 IR Inten    --     15.0230                 2.8519               112.0376

                     28                     29                     30
                      A                      A                      A
 Frequencies --    808.5632               843.1999               863.1685
 Red. masses --      6.4726                 1.8189                 1.3859
 Frc consts  --      2.4932                 0.7620                 0.6084
 IR Inten    --     18.7696                 1.0543                 2.0772

                     31                     32                     33
                      A                      A                      A
 Frequencies --    898.7447               906.8159               953.8645
 Red. masses --      5.5239                 1.4331                 1.3596
 Frc consts  --      2.6289                 0.6943                 0.7288
 IR Inten    --      0.7020                 9.1538                 0.7217

                     34                     35                     36
                      A                      A                      A
 Frequencies --    956.9446               959.1373              1003.5735
 Red. masses --      1.3488                 5.1623                 1.2937
 Frc consts  --      0.7277                 2.7981                 0.7677
 IR Inten    --      1.7308                 1.0689                 0.0012

                     37                     38                     39
                      A                      A                      A
 Frequencies --   1040.3053              1053.9689              1079.7907
 Red. masses --      2.3139                 2.3010                 3.6791
 Frc consts  --      1.4754                 1.5060                 2.5274
 IR Inten    --      1.3322                11.4435                 0.7160

                     40                     41                     42
                      A                      A                      A
 Frequencies --   1102.0134              1151.1191              1159.0305
 Red. masses --      1.6554                 1.3237                 1.1879
 Frc consts  --      1.1845                 1.0334                 0.9402
 IR Inten    --     40.6790                 4.1849                79.0336

                     43                     44                     45
                      A                      A                      A
 Frequencies --   1179.2885              1194.7475              1241.8774
 Red. masses --      1.1451                 1.7111                 2.4110
 Frc consts  --      0.9382                 1.4390                 2.1908
 IR Inten    --     38.0982                80.2626                15.4500

                     46                     47                     48
                      A                      A                      A
 Frequencies --   1267.8574              1297.0508              1335.3988
 Red. masses --      2.2357                 1.5737                 3.5673
 Frc consts  --      2.1174                 1.5599                 3.7481
 IR Inten    --     91.0285                12.4685                34.9967

                     49                     50                     51
                      A                      A                      A
 Frequencies --   1368.2757              1390.5409              1402.5224
 Red. masses --      2.6358                 2.2905                 4.5871
 Frc consts  --      2.9074                 2.6095                 5.3163
 IR Inten    --     61.2770                32.4050                60.4294

                     52                     53                     54
                      A                      A                      A
 Frequencies --   1446.5404              1472.5011              1519.8929
 Red. masses --      3.0527                 2.8594                 2.9643
 Frc consts  --      3.7636                 3.6529                 4.0346
 IR Inten    --    170.0409                 6.6348                47.0616

                     55                     56                     57
                      A                      A                      A
 Frequencies --   1525.2439              1570.7856              1604.6195
 Red. masses --      3.5213                 5.9837                 5.1789
 Frc consts  --      4.8265                 8.6987                 7.8566
 IR Inten    --     48.8317               175.0351               122.1609

                     58                     59                     60
                      A                      A                      A
 Frequencies --   1638.6349              1665.0013              1678.1767
 Red. masses --      7.8644                 7.0034                 6.9356
 Frc consts  --     12.4416                11.4390                11.5083
 IR Inten    --    141.8066                42.7743               135.2666

                     61                     62                     63
                      A                      A                      A
 Frequencies --   3187.6973              3207.7635              3213.6740
 Red. masses --      1.0894                 1.0862                 1.0864
 Frc consts  --      6.5221                 6.5849                 6.6106
 IR Inten    --     21.4196                 1.7091                 6.0895

                     64                     65                     66
                      A                      A                      A
 Frequencies --   3220.4355              3224.8474              3232.7514
 Red. masses --      1.0916                 1.0900                 1.0963
 Frc consts  --      6.6702                 6.6789                 6.7503
 IR Inten    --     12.7931                 2.3143                 6.8922

                     67                     68                     69
                      A                      A                      A
 Frequencies --   3232.9327              3241.2776              3690.5932
 Red. masses --      1.0990                 1.0993                 1.0810
 Frc consts  --      6.7674                 6.8044                 8.6751
 IR Inten    --     25.2742                13.9086               593.7832

 - Thermochemistry -
 -------------------
 Temperature   298.150 Kelvin.  Pressure   1.00000 Atm.
 Atom     1 has atomic number  6 and mass  12.00000

 Molecular mass:   227.04049 amu.
 Principal axes and moments of inertia in atomic units:
                           1         2         3
     Eigenvalues --  1306.211946474.521697780.73361
           X           -0.70401   0.71019   0.00000
           Y            0.71019   0.70401  -0.00002
           Z            0.00001   0.00001   1.00000
 This molecule is an asymmetric top.
 Rotational symmetry number  1.
 Warning -- assumption of classical behavior for rotation
           may cause significant error
 Rotational temperatures (Kelvin)      0.06631     0.01338     0.01113
 Rotational constants (GHZ):           1.38166     0.27875     0.23195
    1 imaginary frequencies ignored.
 Zero-point vibrational energy     490795.4 (Joules/Mol)
                                  117.30291 (Kcal/Mol)
 Warning -- explicit consideration of  18 degrees of freedom as
           vibrations may cause significant error
 Vibrational temperatures:     65.84   141.53   161.27   246.09   327.20
          (Kelvin)            378.23   387.47   460.07   497.23   539.63
                              613.99   640.16   717.21   735.07   774.56
                              796.33   806.39   816.94   925.02   949.05
                              996.28  1001.86  1051.63  1068.38  1095.39
                             1106.20  1163.34  1213.18  1241.91  1293.09
                             1304.71  1372.40  1376.83  1379.98  1443.92
                             1496.77  1516.43  1553.58  1585.55  1656.20
                             1667.59  1696.73  1718.98  1786.78  1824.16
                             1866.17  1921.34  1968.64  2000.68  2017.92
                             2081.25  2118.60  2186.79  2194.49  2260.01
                             2308.69  2357.63  2395.57  2414.52  4586.39
                             4615.26  4623.76  4633.49  4639.84  4651.21
                             4651.47  4663.48  5309.94

 Zero-point correction=                           0.186934 (Hartree/Particle)
 Thermal correction to Energy=                    0.198599
 Thermal correction to Enthalpy=                  0.199543
 Thermal correction to Gibbs Free Energy=         0.148704
 Sum of electronic and zero-point Energies=          -1028.505062
 Sum of electronic and thermal Energies=             -1028.493397
 Sum of electronic and thermal Enthalpies=           -1028.492453
 Sum of electronic and thermal Free Energies=        -1028.543293

                     E (Thermal)             CV                S
                      KCal/Mol        Cal/Mol-Kelvin    Cal/Mol-Kelvin
 Total                  124.623             48.028            107.001
 Electronic               0.000              0.000              0.000
 Translational            0.889              2.981             42.162
 Rotational               0.889              2.981             32.553
 Vibrational            122.845             42.067             32.285
 Vibration     1          0.595              1.979              4.993
 Vibration     2          0.604              1.950              3.486
 Vibration     3          0.607              1.939              3.232
 Vibration     4          0.626              1.878              2.424
 Vibration     5          0.651              1.799              1.899
 Vibration     6          0.670              1.741              1.643
 Vibration     7          0.674              1.730              1.601
 Vibration     8          0.706              1.636              1.311
 Vibration     9          0.724              1.584              1.186
 Vibration    10          0.746              1.523              1.059
 Vibration    11          0.788              1.412              0.869
 Vibration    12          0.804              1.372              0.811
 Vibration    13          0.854              1.253              0.662
 Vibration    14          0.866              1.226              0.631
 Vibration    15          0.893              1.165              0.569
 Vibration    16          0.909              1.132              0.537
 Vibration    17          0.916              1.117              0.523
 Vibration    18          0.924              1.101              0.508

 Optimization completed.
    -- Stationary point found.
 Normal termination of Gaussian 16 at Mon Jul 13 19:46:01 2020.
