 Gaussian 16, Revision C.01,
 Gaussian 16:  ES64L-G16RevC.01  3-Jul-2019

 ----------------------------------------------------------------------
 #p opt=addgic freq td wb97xd/cc-pvdz nosymm int=ultrafine scrf=(solven
 t=CarbonTetraChloride)
 ----------------------------------------------------------------------

 ------------------------------------------------
 NM 2D-scan of HBT TD-WB97XD pVDZ in CTC Relaxed.
 ------------------------------------------------
 Symbolic Z-matrix:
 Charge =  0 Multiplicity = 1

 SCF Done:  E(RwB97XD) =  -1028.70148021     A.U. after   16 cycles
 Total Energy, E(TD-HF/TD-DFT) =  -1028.59548822
 SCF Done:  E(RwB97XD) =  -1028.78003576     A.U. after   14 cycles
 Total Energy, E(TD-HF/TD-DFT) =  -1028.67780508
 SCF Done:  E(RwB97XD) =  -1028.79156470     A.U. after   13 cycles
 Total Energy, E(TD-HF/TD-DFT) =  -1028.69102907
 SCF Done:  E(RwB97XD) =  -1028.79705449     A.U. after   13 cycles
 Total Energy, E(TD-HF/TD-DFT) =  -1028.69385647
 SCF Done:  E(RwB97XD) =  -1028.79642450     A.U. after   11 cycles
 Total Energy, E(TD-HF/TD-DFT) =  -1028.69453283
 SCF Done:  E(RwB97XD) =  -1028.79637978     A.U. after   10 cycles
 Total Energy, E(TD-HF/TD-DFT) =  -1028.69454287
 Optimization completed.
    -- Stationary point found.
 Normal termination of Gaussian 16 at Mon Jul 13 20:02:58 2020.

 ----------------------------------------------------------------------
 #P Geom=AllCheck Guess=TCheck SCRF=Check GenChk RwB97XD TD(FC,Read)/CC
 -pVDZ Freq
 ----------------------------------------------------------------------

 Structure from the checkpoint file:  "config_11_9.chk"
 ------------------------------------------------
 NM 2D-scan of HBT TD-WB97XD pVDZ in CTC Relaxed.
 ------------------------------------------------
 Charge =  0 Multiplicity = 1

                          Input orientation:
 ---------------------------------------------------------------------
 Center     Atomic      Atomic             Coordinates (Angstroms)
 Number     Number       Type             X           Y           Z
 ---------------------------------------------------------------------
      1          6           0        1.674366   -3.293826    0.000067
      2          6           0        1.019275   -2.067875    0.000021
      3          6           0        1.750089   -0.877838   -0.000065
      4          6           0        3.150546   -0.872964   -0.000101
      5          6           0        3.796277   -2.103734   -0.000052
      6          6           0        3.070779   -3.301289    0.000028
      7          1           0        1.113102   -4.228409    0.000131
      8          1           0        3.703911    0.066764   -0.000164
      9          1           0        4.886873   -2.133684   -0.000079
     10          1           0        3.599989   -4.254606    0.000063
     11          7           0        0.923884    0.201568   -0.000108
     12         16           0       -0.718787   -1.712679    0.000050
     13          6           0       -1.397741    1.082467   -0.000012
     14          6           0       -2.762525    0.860569   -0.000079
     15          6           0       -0.891933    2.478240    0.000094
     16          6           0       -3.702628    1.937827   -0.000030
     17          1           0       -3.147515   -0.162681   -0.000178
     18          6           0       -1.885012    3.517358    0.000141
     19          6           0       -3.264561    3.253682    0.000084
     20          1           0       -4.768279    1.703781   -0.000080
     21          1           0       -1.507662    4.541890    0.000244
     22          1           0       -3.983542    4.074330    0.000128
     23          6           0       -0.425774    0.011410   -0.000039
     24          8           0        0.339465    2.699935    0.000169
     25          1           0        1.341974    1.107751   -0.000150
 ---------------------------------------------------------------------

 SCF Done:  E(RwB97XD) =  -1028.79637978     A.U. after    1 cycles

 Excitation energies and oscillator strengths:

 Excited state symmetry could not be determined.
 Excited State   1:      Singlet-?Sym    2.7711 eV  447.41 nm  f=0.4350  <S**2>=0.000
      59 -> 60         0.69702
 This state for optimization and/or second-order correction.
 Total Energy, E(TD-HF/TD-DFT) =  -1028.69454286
 Copying the excited state density for this state as the 1-particle RhoCI density.

 Excited state symmetry could not be determined.
 Excited State   2:      Singlet-?Sym    3.4341 eV  361.04 nm  f=0.0000  <S**2>=0.000
      58 -> 60         0.68373
      58 -> 62         0.11618
      58 -> 64         0.10837

 Excited state symmetry could not be determined.
 Excited State   3:      Singlet-?Sym    4.3175 eV  287.17 nm  f=0.4623  <S**2>=0.000
      57 -> 60         0.68208

 Alpha  occ. eigenvalues --  -89.10682 -19.20446 -14.52611 -10.42550 -10.37326
 Alpha  occ. eigenvalues --  -10.36291 -10.35547 -10.33598 -10.33265 -10.32832
 Alpha  occ. eigenvalues --  -10.32556 -10.31400 -10.31057 -10.30566 -10.29042
 Alpha  occ. eigenvalues --  -10.28135  -8.12659  -6.07542  -6.07155  -6.06677
 Alpha  occ. eigenvalues --   -1.13393  -1.09285  -0.98613  -0.95396  -0.93269
 Alpha  occ. eigenvalues --   -0.89140  -0.86739  -0.84116  -0.80751  -0.75997
 Alpha  occ. eigenvalues --   -0.74193  -0.71956  -0.69261  -0.67492  -0.64955
 Alpha  occ. eigenvalues --   -0.61043  -0.59814  -0.56534  -0.56226  -0.55957
 Alpha  occ. eigenvalues --   -0.55072  -0.53645  -0.53073  -0.50622  -0.48775
 Alpha  occ. eigenvalues --   -0.48720  -0.48297  -0.47038  -0.45573  -0.44834
 Alpha  occ. eigenvalues --   -0.44200  -0.42834  -0.42168  -0.39993  -0.36930
 Alpha  occ. eigenvalues --   -0.33815  -0.31553  -0.30980  -0.25470
 Alpha virt. eigenvalues --   -0.02200   0.03555   0.05788   0.06458   0.09626
 Alpha virt. eigenvalues --    0.10814   0.12690   0.14497   0.16061   0.16900
 Alpha virt. eigenvalues --    0.18313   0.19874   0.20886   0.21283   0.22844

 Mulliken charges:
               1
     1  C    0.014664
     2  C   -0.247652
     3  C    0.232890
     4  C   -0.010158
     5  C    0.014003
     6  C    0.002187
     7  H    0.026478
     8  H    0.033329
     9  H    0.029083
    10  H    0.027753
    11  N   -0.087268
    12  S    0.199916
    13  C   -0.090387
    14  C   -0.030547
    15  C    0.111839
    16  C   -0.039256
    17  H    0.003481
    18  C   -0.046144
    19  C    0.034667
    20  H    0.001285
    21  H   -0.001064
    22  H    0.013607
    23  C    0.077127
    24  O   -0.390831
    25  H    0.120999
 Sum of Mulliken charges =  -0.00000

 Dipole moment (field-independent basis, Debye):
    X=              2.3927    Y=             -5.9828    Z=             -0.0004  Tot=              6.4436
 Quadrupole moment (field-independent basis, Debye-Ang):
   XX=            -81.7682   YY=            -96.2071   ZZ=           -104.1897
   XY=             -6.2541   XZ=             -0.0006   YZ=             -0.0011

  Exact polarizability:     348.094    -120.064     293.610      -0.001       0.002      63.295
 Approx polarizability:     275.738     -39.566     265.288      -0.001       0.002      82.031

 ******    1 imaginary frequencies (negative Signs) ******

                      1                      2                      3
                      A                      A                      A
 Frequencies --    -81.2665                47.7284               102.6313
 Red. masses --      5.9402                 6.5232                 5.1115
 Frc consts  --      0.0231                 0.0088                 0.0317
 IR Inten    --      2.3274                 1.4025                 0.0953

                      4                      5                      6
                      A                      A                      A
 Frequencies --    108.3328               174.9603               226.8768
 Red. masses --      5.7334                 5.1442                 5.6297
 Frc consts  --      0.0396                 0.0928                 0.1707
 IR Inten    --      7.7866                 0.0001                 1.0315

                      7                      8                      9
                      A                      A                      A
 Frequencies --    263.5895               270.2902               301.3042
 Red. masses --      7.6471                 4.3644                 8.0164
 Frc consts  --      0.3130                 0.1879                 0.4288
 IR Inten    --      1.6893                 2.6315                 2.5978

                     10                     11                     12
                      A                      A                      A
 Frequencies --    342.9380               374.3461               423.6034
 Red. masses --      4.4526                 7.3630                 3.5468
 Frc consts  --      0.3085                 0.6079                 0.3750
 IR Inten    --      1.0434                 8.8986                 6.8409

                     13                     14                     15
                      A                      A                      A
 Frequencies --    443.8556               498.8057               513.3862
 Red. masses --      4.2701                 8.1314                 3.1964
 Frc consts  --      0.4956                 1.1920                 0.4964
 IR Inten    --      5.2488                12.2076                 0.1524

                     16                     17                     18
                      A                      A                      A
 Frequencies --    540.2486               549.9056               552.0316
 Red. masses --      8.5536                 6.7697                 2.7843
 Frc consts  --      1.4709                 1.2061                 0.4999
 IR Inten    --     11.5957                43.5620                12.9139

                     19                     20                     21
                      A                      A                      A
 Frequencies --    566.6963               588.4033               640.2419
 Red. masses --      7.3024                 1.2556                 6.1609
 Frc consts  --      1.3817                 0.2561                 1.4879
 IR Inten    --      7.6274                49.4510                27.7750

                     22                     23                     24
                      A                      A                      A
 Frequencies --    689.1214               702.8401               734.6965
 Red. masses --      1.5261                 5.9647                 7.7933
 Frc consts  --      0.4270                 1.7360                 2.4785
 IR Inten    --     26.2472                 2.1857                 4.8871

                     25                     26                     27
                      A                      A                      A
 Frequencies --    744.5701               760.3735               768.3546
 Red. masses --      2.6565                 1.7150                 1.6367
 Frc consts  --      0.8677                 0.5842                 0.5693
 IR Inten    --     15.1426                 8.7407                96.0480

                     28                     29                     30
                      A                      A                      A
 Frequencies --    815.2115               840.5291               866.3315
 Red. masses --      6.3372                 1.8829                 1.3765
 Frc consts  --      2.4814                 0.7838                 0.6087
 IR Inten    --     17.0935                 1.0256                 1.4388

                     31                     32                     33
                      A                      A                      A
 Frequencies --    892.9862               903.7890               953.1368
 Red. masses --      5.1804                 1.4335                 1.3600
 Frc consts  --      2.4339                 0.6899                 0.7279
 IR Inten    --      0.6070                 9.0871                 0.6011

                     34                     35                     36
                      A                      A                      A
 Frequencies --    957.9466               958.2344              1004.5802
 Red. masses --      4.6595                 1.3490                 1.2938
 Frc consts  --      2.5193                 0.7298                 0.7693
 IR Inten    --      0.9273                 1.6727                 0.0032

                     37                     38                     39
                      A                      A                      A
 Frequencies --   1042.1611              1054.4619              1084.5670
 Red. masses --      2.2540                 2.1742                 3.8575
 Frc consts  --      1.4423                 1.4244                 2.6734
 IR Inten    --      0.5685                 9.0680                 0.9188

                     40                     41                     42
                      A                      A                      A
 Frequencies --   1098.3626              1151.8777              1154.3988
 Red. masses --      1.6761                 1.2959                 1.3120
 Frc consts  --      1.1913                 1.0131                 1.0301
 IR Inten    --     49.9105                10.9592               131.1262

                     43                     44                     45
                      A                      A                      A
 Frequencies --   1167.8636              1183.0017              1241.6821
 Red. masses --      1.3431                 1.1633                 2.4420
 Frc consts  --      1.0793                 0.9592                 2.2182
 IR Inten    --     29.6607                 3.2460                19.5714

                     46                     47                     48
                      A                      A                      A
 Frequencies --   1254.6041              1298.0732              1337.1894
 Red. masses --      2.6420                 1.5916                 4.1263
 Frc consts  --      2.4502                 1.5801                 4.3471
 IR Inten    --     49.6800                 5.4562                19.8435

                     49                     50                     51
                      A                      A                      A
 Frequencies --   1365.3504              1396.6251              1402.3033
 Red. masses --      2.7210                 2.3202                 4.7992
 Frc consts  --      2.9886                 2.6665                 5.5604
 IR Inten    --     60.5791                30.1013                61.8298

                     52                     53                     54
                      A                      A                      A
 Frequencies --   1444.2756              1471.0168              1517.8312
 Red. masses --      2.8935                 3.1490                 3.1580
 Frc consts  --      3.5562                 4.0148                 4.2866
 IR Inten    --    138.1411                 4.0602                70.2180

                     55                     56                     57
                      A                      A                      A
 Frequencies --   1521.9904              1557.0720              1606.3350
 Red. masses --      3.3327                 5.6684                 5.2377
 Frc consts  --      4.5485                 8.0971                 7.9628
 IR Inten    --     25.4663               185.3740               116.0527

                     58                     59                     60
                      A                      A                      A
 Frequencies --   1638.4495              1666.0922              1676.0672
 Red. masses --      8.1945                 7.0015                 7.1567
 Frc consts  --     12.9610                11.4509                11.8453
 IR Inten    --    144.1238                58.3176                93.8402

                     61                     62                     63
                      A                      A                      A
 Frequencies --   3188.7281              3208.0125              3214.2996
 Red. masses --      1.0891                 1.0861                 1.0864
 Frc consts  --      6.5244                 6.5857                 6.6131
 IR Inten    --     24.2870                 2.1112                 5.3494

                     64                     65                     66
                      A                      A                      A
 Frequencies --   3219.5678              3225.4742              3232.8537
 Red. masses --      1.0915                 1.0901                 1.0990
 Frc consts  --      6.6658                 6.6822                 6.7675
 IR Inten    --     14.0218                 2.6819                27.0285

                     67                     68                     69
                      A                      A                      A
 Frequencies --   3233.7692              3241.8002              3772.2375
 Red. masses --      1.0960                 1.0994                 1.0803
 Frc consts  --      6.7530                 6.8076                 9.0573
 IR Inten    --      6.4054                12.8133               386.3208

 - Thermochemistry -
 -------------------
 Temperature   298.150 Kelvin.  Pressure   1.00000 Atm.
 Atom     1 has atomic number  6 and mass  12.00000

 Molecular mass:   227.04049 amu.
 Principal axes and moments of inertia in atomic units:
                           1         2         3
     Eigenvalues --  1285.149096499.304107784.45319
           X           -0.70489   0.70932   0.00000
           Y            0.70932   0.70489  -0.00001
           Z            0.00001   0.00001   1.00000
 This molecule is an asymmetric top.
 Rotational symmetry number  1.
 Warning -- assumption of classical behavior for rotation
           may cause significant error
 Rotational temperatures (Kelvin)      0.06740     0.01333     0.01113
 Rotational constants (GHZ):           1.40430     0.27768     0.23184
    1 imaginary frequencies ignored.
 Zero-point vibrational energy     490416.7 (Joules/Mol)
                                  117.21241 (Kcal/Mol)
 Warning -- explicit consideration of  19 degrees of freedom as
           vibrations may cause significant error
 Vibrational temperatures:     68.67   147.66   155.87   251.73   326.43
          (Kelvin)            379.25   388.89   433.51   493.41   538.60
                              609.47   638.61   717.67   738.65   777.30
                              791.19   794.25   815.35   846.58   921.17
                              991.49  1011.23  1057.06  1071.27  1094.01
                             1105.49  1172.91  1209.33  1246.46  1284.81
                             1300.35  1371.35  1378.27  1378.69  1445.37
                             1499.44  1517.14  1560.45  1580.30  1657.30
                             1660.92  1680.30  1702.08  1786.50  1805.10
                             1867.64  1923.92  1964.43  2009.43  2017.60
                             2077.99  2116.47  2183.82  2189.80  2240.28
                             2311.16  2357.36  2397.14  2411.49  4587.87
                             4615.61  4624.66  4632.24  4640.74  4651.36
                             4652.67  4664.23  5427.41

 Zero-point correction=                           0.186790 (Hartree/Particle)
 Thermal correction to Energy=                    0.198514
 Thermal correction to Enthalpy=                  0.199458
 Thermal correction to Gibbs Free Energy=         0.148573
 Sum of electronic and zero-point Energies=          -1028.507753
 Sum of electronic and thermal Energies=             -1028.496029
 Sum of electronic and thermal Enthalpies=           -1028.495085
 Sum of electronic and thermal Free Energies=        -1028.545970

                     E (Thermal)             CV                S
                      KCal/Mol        Cal/Mol-Kelvin    Cal/Mol-Kelvin
 Total                  124.569             48.256            107.096
 Electronic               0.000              0.000              0.000
 Translational            0.889              2.981             42.162
 Rotational               0.889              2.981             32.542
 Vibrational            122.792             42.294             32.393
 Vibration     1          0.595              1.978              4.909
 Vibration     2          0.605              1.947              3.404
 Vibration     3          0.606              1.943              3.299
 Vibration     4          0.627              1.873              2.382
 Vibration     5          0.651              1.800              1.904
 Vibration     6          0.670              1.740              1.638
 Vibration     7          0.674              1.728              1.594
 Vibration     8          0.693              1.671              1.410
 Vibration     9          0.722              1.590              1.198
 Vibration    10          0.745              1.525              1.062
 Vibration    11          0.786              1.419              0.880
 Vibration    12          0.803              1.374              0.815
 Vibration    13          0.854              1.253              0.661
 Vibration    14          0.868              1.220              0.625
 Vibration    15          0.895              1.161              0.565
 Vibration    16          0.905              1.140              0.544
 Vibration    17          0.907              1.135              0.540
 Vibration    18          0.923              1.103              0.511
 Vibration    19          0.946              1.057              0.470

 Optimization completed.
    -- Stationary point found.
 Normal termination of Gaussian 16 at Mon Jul 13 20:20:34 2020.
