 Gaussian 16, Revision C.01,
 Gaussian 16:  ES64L-G16RevC.01  3-Jul-2019

 ----------------------------------------------------------------------
 #p opt=addgic freq td wb97xd/cc-pvdz nosymm int=ultrafine scrf=(solven
 t=CarbonTetraChloride)
 ----------------------------------------------------------------------

 ------------------------------------------------
 NM 2D-scan of HBT TD-WB97XD pVDZ in CTC Relaxed.
 ------------------------------------------------
 Symbolic Z-matrix:
 Charge =  0 Multiplicity = 1

 SCF Done:  E(RwB97XD) =  -1028.74987888     A.U. after   16 cycles
 Total Energy, E(TD-HF/TD-DFT) =  -1028.64289187
 SCF Done:  E(RwB97XD) =  -1028.79339005     A.U. after   14 cycles
 Total Energy, E(TD-HF/TD-DFT) =  -1028.69116106
 SCF Done:  E(RwB97XD) =  -1028.80206091     A.U. after   13 cycles
 Total Energy, E(TD-HF/TD-DFT) =  -1028.69914165
 SCF Done:  E(RwB97XD) =  -1028.80246515     A.U. after   12 cycles
 Total Energy, E(TD-HF/TD-DFT) =  -1028.69957888
 SCF Done:  E(RwB97XD) =  -1028.80242191     A.U. after   10 cycles
 Total Energy, E(TD-HF/TD-DFT) =  -1028.69959326
 SCF Done:  E(RwB97XD) =  -1028.80236219     A.U. after    9 cycles
 Total Energy, E(TD-HF/TD-DFT) =  -1028.69959484
 Optimization completed.
    -- Stationary point found.
 Normal termination of Gaussian 16 at Mon Jul 13 16:48:26 2020.

 ----------------------------------------------------------------------
 #P Geom=AllCheck Guess=TCheck SCRF=Check GenChk RwB97XD TD(FC,Read)/CC
 -pVDZ Freq
 ----------------------------------------------------------------------

 Structure from the checkpoint file:  "config_10_14.chk"
 ------------------------------------------------
 NM 2D-scan of HBT TD-WB97XD pVDZ in CTC Relaxed.
 ------------------------------------------------
 Charge =  0 Multiplicity = 1

                          Input orientation:
 ---------------------------------------------------------------------
 Center     Atomic      Atomic             Coordinates (Angstroms)
 Number     Number       Type             X           Y           Z
 ---------------------------------------------------------------------
      1          6           0        1.600505   -3.291205    0.000007
      2          6           0        1.008720   -2.033595   -0.000001
      3          6           0        1.783949   -0.861798   -0.000028
      4          6           0        3.183752   -0.937131   -0.000046
      5          6           0        3.768514   -2.199514   -0.000038
      6          6           0        2.992624   -3.366113   -0.000012
      7          1           0        0.989858   -4.194480    0.000028
      8          1           0        3.788455   -0.029862   -0.000066
      9          1           0        4.856695   -2.278892   -0.000052
     10          1           0        3.479362   -4.341854   -0.000007
     11          7           0        0.997616    0.255623   -0.000036
     12         16           0       -0.707378   -1.640415    0.000020
     13          6           0       -1.350886    1.103186    0.000010
     14          6           0       -2.705666    0.804982   -0.000015
     15          6           0       -0.917460    2.517458    0.000057
     16          6           0       -3.692526    1.828321    0.000010
     17          1           0       -3.037703   -0.236360   -0.000057
     18          6           0       -1.955155    3.505471    0.000069
     19          6           0       -3.316972    3.166733    0.000050
     20          1           0       -4.746138    1.545391   -0.000007
     21          1           0       -1.633319    4.548617    0.000105
     22          1           0       -4.076657    3.949829    0.000067
     23          6           0       -0.353127    0.068745   -0.000006
     24          8           0        0.308426    2.799193    0.000072
     25          1           0        1.353312    1.204787   -0.000034
 ---------------------------------------------------------------------

 SCF Done:  E(RwB97XD) =  -1028.80236219     A.U. after    1 cycles

 Excitation energies and oscillator strengths:

 Excited state symmetry could not be determined.
 Excited State   1:      Singlet-?Sym    2.7964 eV  443.36 nm  f=0.4403  <S**2>=0.000
      59 -> 60         0.69726
 This state for optimization and/or second-order correction.
 Total Energy, E(TD-HF/TD-DFT) =  -1028.69959487
 Copying the excited state density for this state as the 1-particle RhoCI density.

 Excited state symmetry could not be determined.
 Excited State   2:      Singlet-?Sym    3.4757 eV  356.72 nm  f=0.0000  <S**2>=0.000
      58 -> 60         0.68356
      58 -> 62         0.11666
      58 -> 64         0.10987

 Excited state symmetry could not be determined.
 Excited State   3:      Singlet-?Sym    4.2950 eV  288.67 nm  f=0.4103  <S**2>=0.000
      57 -> 60         0.68299

 Alpha  occ. eigenvalues --  -89.10458 -19.20527 -14.52935 -10.42284 -10.37598
 Alpha  occ. eigenvalues --  -10.36237 -10.35531 -10.33475 -10.33230 -10.32746
 Alpha  occ. eigenvalues --  -10.32496 -10.31417 -10.30894 -10.30669 -10.29101
 Alpha  occ. eigenvalues --  -10.28231  -8.12483  -6.07358  -6.06978  -6.06503
 Alpha  occ. eigenvalues --   -1.13126  -1.08989  -0.98562  -0.95566  -0.93291
 Alpha  occ. eigenvalues --   -0.89102  -0.86828  -0.83912  -0.80960  -0.75920
 Alpha  occ. eigenvalues --   -0.73826  -0.72162  -0.69072  -0.67588  -0.65127
 Alpha  occ. eigenvalues --   -0.61056  -0.59751  -0.56565  -0.56132  -0.55909
 Alpha  occ. eigenvalues --   -0.55072  -0.53798  -0.53070  -0.50471  -0.48716
 Alpha  occ. eigenvalues --   -0.48701  -0.48455  -0.47039  -0.45560  -0.44870
 Alpha  occ. eigenvalues --   -0.44125  -0.42880  -0.42243  -0.39959  -0.36886
 Alpha  occ. eigenvalues --   -0.33759  -0.31486  -0.31107  -0.25592
 Alpha virt. eigenvalues --   -0.02139   0.03622   0.05648   0.06587   0.09532
 Alpha virt. eigenvalues --    0.10837   0.13515   0.14615   0.16137   0.17060
 Alpha virt. eigenvalues --    0.18169   0.19899   0.20776   0.21249   0.22694

 Mulliken charges:
               1
     1  C    0.018573
     2  C   -0.240412
     3  C    0.240312
     4  C   -0.009927
     5  C    0.011939
     6  C    0.002885
     7  H    0.025788
     8  H    0.031853
     9  H    0.028492
    10  H    0.027430
    11  N   -0.113849
    12  S    0.200594
    13  C   -0.077748
    14  C   -0.036020
    15  C    0.106908
    16  C   -0.035992
    17  H    0.008637
    18  C   -0.041453
    19  C    0.033921
    20  H    0.001133
    21  H    0.000012
    22  H    0.014051
    23  C    0.068933
    24  O   -0.395963
    25  H    0.129906
 Sum of Mulliken charges =  -0.00000

 Dipole moment (field-independent basis, Debye):
    X=              2.2526    Y=             -6.0218    Z=             -0.0002  Tot=              6.4293
 Quadrupole moment (field-independent basis, Debye-Ang):
   XX=            -81.6577   YY=            -96.8091   ZZ=           -104.1668
   XY=             -6.2167   XZ=             -0.0003   YZ=             -0.0003

  Exact polarizability:     347.345    -120.217     294.676      -0.002       0.002      63.236
 Approx polarizability:     274.196     -37.938     264.608      -0.001       0.001      81.974

 ******    1 imaginary frequencies (negative Signs) ******

                      1                      2                      3
                      A                      A                      A
 Frequencies --    -48.1788                46.3889               108.1152
 Red. masses --      5.3490                 6.3692                 5.7639
 Frc consts  --      0.0073                 0.0081                 0.0397
 IR Inten    --      1.7842                 1.3306                 8.6341

                      4                      5                      6
                      A                      A                      A
 Frequencies --    109.7066               178.8747               226.1748
 Red. masses --      5.5574                 5.4736                 5.5379
 Frc consts  --      0.0394                 0.1032                 0.1669
 IR Inten    --      0.7326                 0.0352                 0.3571

                      7                      8                      9
                      A                      A                      A
 Frequencies --    263.5788               273.3957               290.0577
 Red. masses --      8.1986                 4.5219                 7.6331
 Frc consts  --      0.3356                 0.1991                 0.3784
 IR Inten    --      2.3687                 1.0443                 2.3689

                     10                     11                     12
                      A                      A                      A
 Frequencies --    346.5467               385.1458               428.8410
 Red. masses --      4.5844                 7.6954                 3.6275
 Frc consts  --      0.3244                 0.6726                 0.3930
 IR Inten    --      1.0606                 7.7640                 3.0762

                     13                     14                     15
                      A                      A                      A
 Frequencies --    448.2676               503.3736               513.1172
 Red. masses --      4.2399                 8.4624                 3.2168
 Frc consts  --      0.5020                 1.2633                 0.4990
 IR Inten    --      4.5348                11.3302                 0.3112

                     16                     17                     18
                      A                      A                      A
 Frequencies --    542.1199               545.6153               558.4388
 Red. masses --      8.2118                 6.6985                 3.8017
 Frc consts  --      1.4219                 1.1749                 0.6985
 IR Inten    --      6.6435                44.1113                 1.1539

                     19                     20                     21
                      A                      A                      A
 Frequencies --    567.2814               636.7959               686.7709
 Red. masses --      7.2686                 6.1982                 1.3862
 Frc consts  --      1.3782                 1.4809                 0.3852
 IR Inten    --      9.1191                28.6698                77.0925

                     22                     23                     24
                      A                      A                      A
 Frequencies --    706.1844               713.9575               734.1607
 Red. masses --      1.1617                 5.9771                 7.8566
 Frc consts  --      0.3413                 1.7951                 2.4950
 IR Inten    --      7.3037                 2.1808                 5.1296

                     25                     26                     27
                      A                      A                      A
 Frequencies --    745.6601               759.8535               767.1559
 Red. masses --      2.4798                 1.7150                 1.6819
 Frc consts  --      0.8124                 0.5834                 0.5832
 IR Inten    --     25.5480                10.1643                96.2434

                     28                     29                     30
                      A                      A                      A
 Frequencies --    821.2016               836.3432               867.0862
 Red. masses --      6.3282                 1.9300                 1.3817
 Frc consts  --      2.5144                 0.7954                 0.6121
 IR Inten    --     17.7449                 1.2108                 1.2542

                     31                     32                     33
                      A                      A                      A
 Frequencies --    880.4421               900.9560               952.6769
 Red. masses --      4.7982                 1.4401                 1.3604
 Frc consts  --      2.1914                 0.6888                 0.7275
 IR Inten    --      1.5230                 8.7473                 0.5182

                     34                     35                     36
                      A                      A                      A
 Frequencies --    957.5537               960.0894              1003.7922
 Red. masses --      1.3521                 5.0233                 1.2972
 Frc consts  --      0.7305                 2.7281                 0.7701
 IR Inten    --      1.6989                 0.3464                 0.0076

                     37                     38                     39
                      A                      A                      A
 Frequencies --   1050.0393              1055.2390              1089.2504
 Red. masses --      2.1726                 2.1420                 3.9088
 Frc consts  --      1.4113                 1.4053                 2.7325
 IR Inten    --      0.8849                 8.6806                 1.1238

                     40                     41                     42
                      A                      A                      A
 Frequencies --   1106.8617              1154.0039              1160.8336
 Red. masses --      1.6323                 1.3032                 1.2548
 Frc consts  --      1.1782                 1.0225                 0.9963
 IR Inten    --     33.7039                19.4136                63.7656

                     43                     44                     45
                      A                      A                      A
 Frequencies --   1177.3134              1192.5635              1250.8117
 Red. masses --      1.1689                 1.5396                 2.1889
 Frc consts  --      0.9546                 1.2901                 2.0177
 IR Inten    --     40.9062                38.6309                25.0824

                     46                     47                     48
                      A                      A                      A
 Frequencies --   1266.9794              1297.7256              1338.9213
 Red. masses --      2.3116                 1.7121                 4.9842
 Frc consts  --      2.1862                 1.6988                 5.2645
 IR Inten    --     55.2844                 1.7047                 5.7482

                     49                     50                     51
                      A                      A                      A
 Frequencies --   1364.5646              1397.0577              1404.2560
 Red. masses --      3.3432                 3.7313                 2.4001
 Frc consts  --      3.6678                 4.2908                 2.7885
 IR Inten    --    119.3794                21.8162                16.8476

                     52                     53                     54
                      A                      A                      A
 Frequencies --   1439.1447              1476.6191              1510.6790
 Red. masses --      2.8168                 3.1344                 2.9619
 Frc consts  --      3.4373                 4.0266                 3.9826
 IR Inten    --    197.5047                 1.4524                37.2523

                     55                     56                     57
                      A                      A                      A
 Frequencies --   1523.6266              1553.6165              1592.8501
 Red. masses --      3.8530                 4.9672                 5.0713
 Frc consts  --      5.2699                 7.0640                 7.5809
 IR Inten    --     44.6805               204.1459               114.6559

                     58                     59                     60
                      A                      A                      A
 Frequencies --   1624.9739              1659.1351              1668.5220
 Red. masses --      7.0355                 6.7878                 6.9299
 Frc consts  --     10.9455                11.0089                11.3669
 IR Inten    --    152.1962                12.7997               145.9380

                     61                     62                     63
                      A                      A                      A
 Frequencies --   3193.5099              3210.1140              3213.2737
 Red. masses --      1.0886                 1.0864                 1.0862
 Frc consts  --      6.5415                 6.5961                 6.6076
 IR Inten    --     26.2713                 2.7182                 3.9683

                     64                     65                     66
                      A                      A                      A
 Frequencies --   3221.2304              3223.7350              3233.1548
 Red. masses --      1.0919                 1.0903                 1.0956
 Frc consts  --      6.6756                 6.6760                 6.7479
 IR Inten    --     15.2026                 3.4679                 7.0711

                     67                     68                     69
                      A                      A                      A
 Frequencies --   3234.4531              3239.9033              3571.2123
 Red. masses --      1.0990                 1.0996                 1.0828
 Frc consts  --      6.7739                 6.8008                 8.1363
 IR Inten    --     28.2790                11.8926               452.7898

 - Thermochemistry -
 -------------------
 Temperature   298.150 Kelvin.  Pressure   1.00000 Atm.
 Atom     1 has atomic number  6 and mass  12.00000

 Molecular mass:   227.04049 amu.
 Principal axes and moments of inertia in atomic units:
                           1         2         3
     Eigenvalues --  1279.195316483.936417763.13172
           X           -0.70357   0.71063   0.00000
           Y            0.71063   0.70357  -0.00001
           Z            0.00001   0.00000   1.00000
 This molecule is an asymmetric top.
 Rotational symmetry number  1.
 Warning -- assumption of classical behavior for rotation
           may cause significant error
 Rotational temperatures (Kelvin)      0.06771     0.01336     0.01116
 Rotational constants (GHZ):           1.41084     0.27834     0.23248
    1 imaginary frequencies ignored.
 Zero-point vibrational energy     490241.0 (Joules/Mol)
                                  117.17041 (Kcal/Mol)
 Warning -- explicit consideration of  18 degrees of freedom as
           vibrations may cause significant error
 Vibrational temperatures:     66.74   155.55   157.84   257.36   325.42
          (Kelvin)            379.23   393.36   417.33   498.60   554.14
                              617.01   644.96   724.24   738.26   779.99
                              785.02   803.47   816.19   916.21   988.11
                             1016.04  1027.23  1056.29  1072.84  1093.26
                             1103.77  1181.53  1203.31  1247.54  1266.76
                             1296.27  1370.69  1377.71  1381.35  1444.23
                             1510.77  1518.25  1567.19  1592.53  1660.35
                             1670.18  1693.89  1715.83  1799.64  1822.90
                             1867.14  1926.41  1963.30  2010.05  2020.41
                             2070.61  2124.53  2173.53  2192.16  2235.31
                             2291.76  2337.98  2387.13  2400.63  4594.75
                             4618.64  4623.18  4634.63  4638.24  4651.79
                             4653.66  4661.50  5138.18

 Zero-point correction=                           0.186723 (Hartree/Particle)
 Thermal correction to Energy=                    0.198351
 Thermal correction to Enthalpy=                  0.199296
 Thermal correction to Gibbs Free Energy=         0.148583
 Sum of electronic and zero-point Energies=          -1028.512872
 Sum of electronic and thermal Energies=             -1028.501244
 Sum of electronic and thermal Enthalpies=           -1028.500299
 Sum of electronic and thermal Free Energies=        -1028.551012

                     E (Thermal)             CV                S
                      KCal/Mol        Cal/Mol-Kelvin    Cal/Mol-Kelvin
 Total                  124.467             47.919            106.734
 Electronic               0.000              0.000              0.000
 Translational            0.889              2.981             42.162
 Rotational               0.889              2.981             32.532
 Vibrational            122.690             41.957             32.040
 Vibration     1          0.595              1.979              4.966
 Vibration     2          0.606              1.943              3.302
 Vibration     3          0.606              1.941              3.274
 Vibration     4          0.629              1.868              2.340
 Vibration     5          0.650              1.801              1.909
 Vibration     6          0.670              1.740              1.638
 Vibration     7          0.676              1.722              1.575
 Vibration     8          0.686              1.692              1.474
 Vibration     9          0.725              1.582              1.182
 Vibration    10          0.754              1.502              1.019
 Vibration    11          0.790              1.407              0.862
 Vibration    12          0.807              1.365              0.801
 Vibration    13          0.859              1.243              0.650
 Vibration    14          0.868              1.221              0.626
 Vibration    15          0.897              1.157              0.561
 Vibration    16          0.901              1.149              0.553
 Vibration    17          0.914              1.121              0.527
 Vibration    18          0.923              1.102              0.509

 Optimization completed.
    -- Stationary point found.
 Normal termination of Gaussian 16 at Mon Jul 13 17:06:46 2020.
