 Gaussian 16, Revision C.01,
 Gaussian 16:  ES64L-G16RevC.01  3-Jul-2019

 ----------------------------------------------------------------------
 #p opt=addgic freq td wb97xd/cc-pvdz nosymm int=ultrafine scrf=(solven
 t=CarbonTetraChloride)
 ----------------------------------------------------------------------

 ------------------------------------------------
 NM 2D-scan of HBT TD-WB97XD pVDZ in CTC Relaxed.
 ------------------------------------------------
 Symbolic Z-matrix:
 Charge =  0 Multiplicity = 1

 SCF Done:  E(RwB97XD) =  -1028.80933051     A.U. after   15 cycles
 Total Energy, E(TD-HF/TD-DFT) =  -1028.68897703
 SCF Done:  E(RwB97XD) =  -1028.80960749     A.U. after   10 cycles
 Total Energy, E(TD-HF/TD-DFT) =  -1028.68909425
 SCF Done:  E(RwB97XD) =  -1028.80948891     A.U. after   10 cycles
 Total Energy, E(TD-HF/TD-DFT) =  -1028.68910784
 SCF Done:  E(RwB97XD) =  -1028.80916878     A.U. after   11 cycles
 Total Energy, E(TD-HF/TD-DFT) =  -1028.68912456
 Optimization completed.
    -- Stationary point found.
 Normal termination of Gaussian 16 at Mon Jul 13 14:49:14 2020.

 ----------------------------------------------------------------------
 #P Geom=AllCheck Guess=TCheck SCRF=Check GenChk RwB97XD TD(FC,Read)/CC
 -pVDZ Freq
 ----------------------------------------------------------------------

 Structure from the checkpoint file:  "config_6_14.chk"
 ------------------------------------------------
 NM 2D-scan of HBT TD-WB97XD pVDZ in CTC Relaxed.
 ------------------------------------------------
 Charge =  0 Multiplicity = 1

                          Input orientation:
 ---------------------------------------------------------------------
 Center     Atomic      Atomic             Coordinates (Angstroms)
 Number     Number       Type             X           Y           Z
 ---------------------------------------------------------------------
      1          6           0        1.576185   -3.255488   -0.000033
      2          6           0        0.999087   -1.990431   -0.000030
      3          6           0        1.766805   -0.787567   -0.000020
      4          6           0        3.173550   -0.907646   -0.000018
      5          6           0        3.743319   -2.175489   -0.000021
      6          6           0        2.963879   -3.345310   -0.000027
      7          1           0        0.951274   -4.149473   -0.000038
      8          1           0        3.795979   -0.012221   -0.000011
      9          1           0        4.831314   -2.263437   -0.000017
     10          1           0        3.446724   -4.323198   -0.000028
     11          7           0        1.006595    0.348387   -0.000016
     12         16           0       -0.708792   -1.640271   -0.000036
     13          6           0       -1.331842    1.057640    0.000020
     14          6           0       -2.702612    0.758913    0.000037
     15          6           0       -0.904686    2.464784    0.000035
     16          6           0       -3.648172    1.788042    0.000038
     17          1           0       -3.034901   -0.280572    0.000043
     18          6           0       -1.894601    3.475490    0.000030
     19          6           0       -3.250223    3.138784    0.000029
     20          1           0       -4.709909    1.536671    0.000043
     21          1           0       -1.562350    4.514287    0.000034
     22          1           0       -4.005509    3.925114    0.000026
     23          6           0       -0.326045    0.068167   -0.000014
     24          8           0        0.362276    2.719902    0.000053
     25          1           0        0.966440    1.629099    0.000024
 ---------------------------------------------------------------------

 SCF Done:  E(RwB97XD) =  -1028.80916878     A.U. after    1 cycles

 Excitation energies and oscillator strengths:

 Excited state symmetry could not be determined.
 Excited State   1:      Singlet-?Sym    3.2666 eV  379.55 nm  f=0.4998  <S**2>=0.000
      59 -> 60         0.69335
 This state for optimization and/or second-order correction.
 Total Energy, E(TD-HF/TD-DFT) =  -1028.68912458
 Copying the excited state density for this state as the 1-particle RhoCI density.

 Excited state symmetry could not be determined.
 Excited State   2:      Singlet-?Sym    4.3594 eV  284.41 nm  f=0.3081  <S**2>=0.000
      57 -> 60         0.11798
      58 -> 60         0.66704

 Excited state symmetry could not be determined.
 Excited State   3:      Singlet-?Sym    4.6576 eV  266.20 nm  f=0.0000  <S**2>=0.000
      56 -> 60         0.68871
      56 -> 64        -0.10112

 Alpha  occ. eigenvalues --  -89.09494 -19.24841 -14.49475 -10.40531 -10.37140
 Alpha  occ. eigenvalues --  -10.36451 -10.35317 -10.32600 -10.32221 -10.31972
 Alpha  occ. eigenvalues --  -10.31879 -10.31802 -10.31620 -10.31432 -10.29930
 Alpha  occ. eigenvalues --  -10.29644  -8.11558  -6.06404  -6.06056  -6.05606
 Alpha  occ. eigenvalues --   -1.13630  -1.09413  -0.97302  -0.95700  -0.92729
 Alpha  occ. eigenvalues --   -0.88920  -0.85796  -0.83798  -0.82253  -0.75833
 Alpha  occ. eigenvalues --   -0.71496  -0.71041  -0.68666  -0.67733  -0.63606
 Alpha  occ. eigenvalues --   -0.60880  -0.59287  -0.57858  -0.55469  -0.54660
 Alpha  occ. eigenvalues --   -0.54349  -0.53525  -0.52883  -0.50803  -0.49827
 Alpha  occ. eigenvalues --   -0.49573  -0.47040  -0.46391  -0.45607  -0.44999
 Alpha  occ. eigenvalues --   -0.44246  -0.42999  -0.42190  -0.40657  -0.36570
 Alpha  occ. eigenvalues --   -0.35246  -0.32676  -0.31265  -0.27516
 Alpha virt. eigenvalues --   -0.01782   0.04525   0.06431   0.07196   0.08040
 Alpha virt. eigenvalues --    0.10704   0.14452   0.14975   0.16689   0.17836
 Alpha virt. eigenvalues --    0.18699   0.20835   0.21398   0.22047   0.22616

 Mulliken charges:
               1
     1  C    0.020889
     2  C   -0.225675
     3  C    0.257721
     4  C   -0.018279
     5  C    0.006928
     6  C   -0.000278
     7  H    0.020847
     8  H    0.024597
     9  H    0.022794
    10  H    0.023061
    11  N   -0.317756
    12  S    0.181233
    13  C   -0.097578
    14  C   -0.028794
    15  C    0.127485
    16  C   -0.023139
    17  H    0.015896
    18  C   -0.013469
    19  C    0.028053
    20  H    0.006648
    21  H    0.011885
    22  H    0.019967
    23  C    0.076699
    24  O   -0.356045
    25  H    0.236310
 Sum of Mulliken charges =  -0.00000

 Dipole moment (field-independent basis, Debye):
    X=              0.3235    Y=             -3.7754    Z=             -0.0001  Tot=              3.7892
 Quadrupole moment (field-independent basis, Debye-Ang):
   XX=            -82.9770   YY=            -92.0260   ZZ=           -104.2291
   XY=             -6.9730   XZ=             -0.0001   YZ=             -0.0001

  Exact polarizability:     360.290    -143.502     322.997      -0.002       0.003      63.222
 Approx polarizability:     273.666     -34.731     260.706      -0.000       0.001      82.248

 ******    1 imaginary frequencies (negative Signs) ******

                      1                      2                      3
                      A                      A                      A
 Frequencies --  -1347.7608                44.7166                62.2082
 Red. masses --      1.0621                 6.1304                 5.3104
 Frc consts  --      1.1367                 0.0072                 0.0121
 IR Inten    --   1745.5843                 1.4092                 0.1306

                      4                      5                      6
                      A                      A                      A
 Frequencies --    116.6709               141.4872               179.1826
 Red. masses --      5.7186                 5.6677                 6.3315
 Frc consts  --      0.0459                 0.0668                 0.1198
 IR Inten    --      0.0406                 2.8288                 0.6855

                      7                      8                      9
                      A                      A                      A
 Frequencies --    220.3654               272.1126               277.8583
 Red. masses --      5.4003                 4.6782                 7.3808
 Frc consts  --      0.1545                 0.2041                 0.3357
 IR Inten    --      0.0496                 0.0580                12.3477

                     10                     11                     12
                      A                      A                      A
 Frequencies --    369.6924               374.2066               415.7453
 Red. masses --      4.8871                 6.4051                11.3971
 Frc consts  --      0.3935                 0.5284                 1.1606
 IR Inten    --      0.2892                 4.1471                 4.5776

                     13                     14                     15
                      A                      A                      A
 Frequencies --    439.0022               471.6340               500.4366
 Red. masses --      3.2171                 4.8017                 3.1686
 Frc consts  --      0.3653                 0.6293                 0.4675
 IR Inten    --      4.2521                 0.3283                 0.4082

                     16                     17                     18
                      A                      A                      A
 Frequencies --    507.5624               544.4189               559.4580
 Red. masses --      8.8354                 8.5094                 3.8779
 Frc consts  --      1.3411                 1.4860                 0.7151
 IR Inten    --      2.4401                 5.2800                 0.2408

                     19                     20                     21
                      A                      A                      A
 Frequencies --    575.8791               601.9612               662.1817
 Red. masses --      7.6415                 6.9793                 6.7902
 Frc consts  --      1.4931                 1.4900                 1.7542
 IR Inten    --      9.3383                 9.7721                88.4885

                     22                     23                     24
                      A                      A                      A
 Frequencies --    699.3847               726.0742               742.6181
 Red. masses --      1.5878                 6.4031                 2.1805
 Frc consts  --      0.4576                 1.9889                 0.7085
 IR Inten    --     44.9019                 8.4000                22.6540

                     25                     26                     27
                      A                      A                      A
 Frequencies --    750.7146               758.8098               766.7810
 Red. masses --      9.0577                 1.8374                 1.8355
 Frc consts  --      3.0076                 0.6233                 0.6358
 IR Inten    --     28.4239                17.0667                67.7698

                     28                     29                     30
                      A                      A                      A
 Frequencies --    813.8153               832.0179               865.2704
 Red. masses --      1.7671                 6.2318                 1.3964
 Frc consts  --      0.6895                 2.5417                 0.6160
 IR Inten    --      0.0863                 6.9869                 0.9867

                     31                     32                     33
                      A                      A                      A
 Frequencies --    905.2380               912.8648               954.4121
 Red. masses --      1.3735                 6.8174                 1.3497
 Frc consts  --      0.6632                 3.3472                 0.7244
 IR Inten    --      4.8089                29.4738                 2.0093

                     34                     35                     36
                      A                      A                      A
 Frequencies --    957.2251               994.1096              1000.6579
 Red. masses --      1.3816                 7.6706                 1.2977
 Frc consts  --      0.7459                 4.4663                 0.7656
 IR Inten    --      0.3024                13.1375                 0.0012

                     37                     38                     39
                      A                      A                      A
 Frequencies --   1040.6748              1049.5857              1093.9581
 Red. masses --      2.0746                 2.0594                 3.8308
 Frc consts  --      1.3238                 1.3367                 2.7011
 IR Inten    --      3.1729                 2.3638                65.6510

                     40                     41                     42
                      A                      A                      A
 Frequencies --   1132.6453              1153.6300              1170.7268
 Red. masses --      1.4608                 1.3790                 1.1640
 Frc consts  --      1.1042                 1.0813                 0.9400
 IR Inten    --     24.1276                24.3734                70.1630

                     43                     44                     45
                      A                      A                      A
 Frequencies --   1177.7152              1232.4948              1251.2851
 Red. masses --      1.1855                 1.0497                 1.8337
 Frc consts  --      0.9688                 0.9395                 1.6915
 IR Inten    --     22.7890                67.3886                92.5208

                     46                     47                     48
                      A                      A                      A
 Frequencies --   1267.1125              1300.5968              1343.3616
 Red. masses --      2.4944                 2.4265                 3.9113
 Frc consts  --      2.3596                 2.4184                 4.1587
 IR Inten    --     27.5899                13.7002                38.9399

                     49                     50                     51
                      A                      A                      A
 Frequencies --   1363.9096              1385.4917              1404.3786
 Red. masses --      5.9887                 2.5309                 2.8167
 Frc consts  --      6.5638                 2.8624                 3.2731
 IR Inten    --    291.2383                53.3823                38.9943

                     52                     53                     54
                      A                      A                      A
 Frequencies --   1443.2343              1476.0449              1505.3843
 Red. masses --      3.0186                 3.2149                 3.4912
 Frc consts  --      3.7045                 4.1269                 4.6614
 IR Inten    --    366.2824                34.7283                24.3714

                     55                     56                     57
                      A                      A                      A
 Frequencies --   1518.8910              1549.0638              1569.8558
 Red. masses --      4.8401                 4.9663                 5.1012
 Frc consts  --      6.5790                 7.0214                 7.4071
 IR Inten    --    398.7164                64.2784               168.6066

                     58                     59                     60
                      A                      A                      A
 Frequencies --   1620.1272              1635.9576              1654.7081
 Red. masses --      6.0216                 6.1490                 6.3867
 Frc consts  --      9.3124                 9.6962                10.3032
 IR Inten    --     73.8143              1002.1725               113.9655

                     61                     62                     63
                      A                      A                      A
 Frequencies --   1848.2425              3207.2108              3210.1627
 Red. masses --      1.0983                 1.0861                 1.0866
 Frc consts  --      2.2105                 6.5821                 6.5972
 IR Inten    --    167.9383                 6.5786                15.1000

                     64                     65                     66
                      A                      A                      A
 Frequencies --   3216.9699              3220.6496              3227.9301
 Red. masses --      1.0902                 1.0888                 1.0952
 Frc consts  --      6.6476                 6.6538                 6.7232
 IR Inten    --      2.5382                 7.9212                 9.9042

                     67                     68                     69
                      A                      A                      A
 Frequencies --   3228.7424              3235.2578              3240.6516
 Red. masses --      1.0938                 1.0994                 1.0982
 Frc consts  --      6.7181                 6.7799                 6.7951
 IR Inten    --     14.5293                24.6595                18.5189

 - Thermochemistry -
 -------------------
 Temperature   298.150 Kelvin.  Pressure   1.00000 Atm.
 Atom     1 has atomic number  6 and mass  12.00000

 Molecular mass:   227.04049 amu.
 Principal axes and moments of inertia in atomic units:
                           1         2         3
     Eigenvalues --  1287.219346298.832777586.05211
           X           -0.70488   0.70932   0.00000
           Y            0.70932   0.70488  -0.00001
           Z            0.00001   0.00001   1.00000
 This molecule is an asymmetric top.
 Rotational symmetry number  1.
 Warning -- assumption of classical behavior for rotation
           may cause significant error
 Rotational temperatures (Kelvin)      0.06729     0.01375     0.01142
 Rotational constants (GHZ):           1.40205     0.28652     0.23790
    1 imaginary frequencies ignored.
 Zero-point vibrational energy     478466.9 (Joules/Mol)
                                  114.35634 (Kcal/Mol)
 Warning -- explicit consideration of  19 degrees of freedom as
           vibrations may cause significant error
 Vibrational temperatures:     64.34    89.50   167.86   203.57   257.80
          (Kelvin)            317.06   391.51   399.78   531.90   538.40
                              598.16   631.63   678.58   720.02   730.27
                              783.30   804.94   828.56   866.09   952.73
                             1006.26  1044.66  1068.46  1080.11  1091.76
                             1103.23  1170.90  1197.09  1244.93  1302.44
                             1313.41  1373.19  1377.23  1430.30  1439.72
                             1497.30  1510.12  1573.96  1629.62  1659.82
                             1684.41  1694.47  1773.29  1800.32  1823.09
                             1871.27  1932.80  1962.36  1993.41  2020.59
                             2076.49  2123.70  2165.91  2185.35  2228.76
                             2258.67  2331.00  2353.78  2380.76  2659.21
                             4614.46  4618.71  4628.50  4633.80  4644.27
                             4645.44  4654.81  4662.57

 Zero-point correction=                           0.182238 (Hartree/Particle)
 Thermal correction to Energy=                    0.194234
 Thermal correction to Enthalpy=                  0.195178
 Thermal correction to Gibbs Free Energy=         0.143280
 Sum of electronic and zero-point Energies=          -1028.506886
 Sum of electronic and thermal Energies=             -1028.494891
 Sum of electronic and thermal Enthalpies=           -1028.493947
 Sum of electronic and thermal Free Energies=        -1028.545845

                     E (Thermal)             CV                S
                      KCal/Mol        Cal/Mol-Kelvin    Cal/Mol-Kelvin
 Total                  121.884             48.345            109.229
 Electronic               0.000              0.000              0.000
 Translational            0.889              2.981             42.162
 Rotational               0.889              2.981             32.486
 Vibrational            120.106             42.383             34.580
 Vibration     1          0.595              1.980              5.038
 Vibration     2          0.597              1.972              4.386
 Vibration     3          0.608              1.936              3.155
 Vibration     4          0.615              1.912              2.784
 Vibration     5          0.629              1.868              2.337
 Vibration     6          0.647              1.810              1.956
 Vibration     7          0.675              1.725              1.583
 Vibration     8          0.679              1.714              1.547
 Vibration     9          0.742              1.534              1.081
 Vibration    10          0.745              1.525              1.062
 Vibration    11          0.779              1.436              0.907
 Vibration    12          0.799              1.385              0.830
 Vibration    13          0.829              1.313              0.733
 Vibration    14          0.856              1.249              0.657
 Vibration    15          0.863              1.233              0.639
 Vibration    16          0.900              1.152              0.556
 Vibration    17          0.915              1.119              0.525
 Vibration    18          0.932              1.083              0.493
 Vibration    19          0.960              1.028              0.446

                           ! Non-Optimized Parameters !
 Normal termination of Gaussian 16 at Mon Jul 13 15:07:38 2020.
