 Gaussian 16, Revision C.01,
 Gaussian 16:  ES64L-G16RevC.01  3-Jul-2019

 ----------------------------------------------------------------------
 #p opt=addgic freq td wb97xd/cc-pvdz nosymm int=ultrafine scrf=(solven
 t=CarbonTetraChloride)
 ----------------------------------------------------------------------

 ------------------------------------------------
 NM 2D-scan of HBT TD-WB97XD pVDZ in CTC Relaxed.
 ------------------------------------------------
 Symbolic Z-matrix:
 Charge =  0 Multiplicity = 1

 SCF Done:  E(RwB97XD) =  -1028.61448921     A.U. after   16 cycles
 Total Energy, E(TD-HF/TD-DFT) =  -1028.50990157
 SCF Done:  E(RwB97XD) =  -1028.74993707     A.U. after   14 cycles
 Total Energy, E(TD-HF/TD-DFT) =  -1028.64790784
 SCF Done:  E(RwB97XD) =  -1028.76357266     A.U. after   14 cycles
 Total Energy, E(TD-HF/TD-DFT) =  -1028.66642807
 SCF Done:  E(RwB97XD) =  -1028.78377537     A.U. after   14 cycles
 Total Energy, E(TD-HF/TD-DFT) =  -1028.68317662
 SCF Done:  E(RwB97XD) =  -1028.78234250     A.U. after   13 cycles
 Total Energy, E(TD-HF/TD-DFT) =  -1028.68321543
 SCF Done:  E(RwB97XD) =  -1028.78417667     A.U. after   12 cycles
 Total Energy, E(TD-HF/TD-DFT) =  -1028.68402718
 SCF Done:  E(RwB97XD) =  -1028.78443996     A.U. after   11 cycles
 Total Energy, E(TD-HF/TD-DFT) =  -1028.68404530
 SCF Done:  E(RwB97XD) =  -1028.78444706     A.U. after    9 cycles
 Total Energy, E(TD-HF/TD-DFT) =  -1028.68404730
 Optimization completed.
    -- Stationary point found.
 Normal termination of Gaussian 16 at Tue Jul 14 11:49:22 2020.

 ----------------------------------------------------------------------
 #P Geom=AllCheck Guess=TCheck SCRF=Check GenChk RwB97XD TD(FC,Read)/CC
 -pVDZ Freq
 ----------------------------------------------------------------------

 Structure from the checkpoint file:  "config_12_5_fixed.chk"
 ------------------------------------------------
 NM 2D-scan of HBT TD-WB97XD pVDZ in CTC Relaxed.
 ------------------------------------------------
 Charge =  0 Multiplicity = 1

                          Input orientation:
 ---------------------------------------------------------------------
 Center     Atomic      Atomic             Coordinates (Angstroms)
 Number     Number       Type             X           Y           Z
 ---------------------------------------------------------------------
      1          6           0        1.735889   -3.295600    0.000029
      2          6           0        1.031768   -2.097208   -0.000003
      3          6           0        1.724552   -0.893918   -0.000051
      4          6           0        3.122678   -0.824440   -0.000052
      5          6           0        3.816404   -2.028160   -0.000016
      6          6           0        3.133603   -3.249063    0.000021
      7          1           0        1.214754   -4.252812    0.000057
      8          1           0        3.636547    0.137701   -0.000083
      9          1           0        4.907347   -2.017108   -0.000017
     10          1           0        3.696953   -4.182559    0.000044
     11          7           0        0.864934    0.155296   -0.000100
     12         16           0       -0.723811   -1.769795   -0.000011
     13          6           0       -1.438384    1.068951   -0.000009
     14          6           0       -2.807320    0.909339   -0.000048
     15          6           0       -0.873909    2.447219    0.000066
     16          6           0       -3.711490    2.027991    0.000017
     17          1           0       -3.236529   -0.096215   -0.000138
     18          6           0       -1.832163    3.524742    0.000117
     19          6           0       -3.223907    3.322209    0.000104
     20          1           0       -4.784573    1.830938   -0.000010
     21          1           0       -1.413981    4.533355    0.000188
     22          1           0       -3.907478    4.172721    0.000154
     23          6           0       -0.485164   -0.034037   -0.000083
     24          8           0        0.359257    2.616682    0.000057
     25          1           0        1.350962    1.014100   -0.000161
 ---------------------------------------------------------------------

 SCF Done:  E(RwB97XD) =  -1028.78444706     A.U. after    1 cycles

 Excitation energies and oscillator strengths:

 Excited state symmetry could not be determined.
 Excited State   1:      Singlet-?Sym    2.7320 eV  453.82 nm  f=0.4262  <S**2>=0.000
      59 -> 60         0.69678
 This state for optimization and/or second-order correction.
 Total Energy, E(TD-HF/TD-DFT) =  -1028.68404726
 Copying the excited state density for this state as the 1-particle RhoCI density.

 Excited state symmetry could not be determined.
 Excited State   2:      Singlet-?Sym    3.3692 eV  367.99 nm  f=0.0000  <S**2>=0.000
      58 -> 60         0.68405
      58 -> 62         0.11560
      58 -> 64         0.10514

 Excited state symmetry could not be determined.
 Excited State   3:      Singlet-?Sym    4.3255 eV  286.64 nm  f=0.4995  <S**2>=0.000
      57 -> 60         0.68187

 Alpha  occ. eigenvalues --  -89.10847 -19.20314 -14.52422 -10.42868 -10.37142
 Alpha  occ. eigenvalues --  -10.36340 -10.35527 -10.33720 -10.33344 -10.32925
 Alpha  occ. eigenvalues --  -10.32636 -10.31370 -10.31222 -10.30451 -10.28977
 Alpha  occ. eigenvalues --  -10.28026  -8.12787  -6.07679  -6.07282  -6.06803
 Alpha  occ. eigenvalues --   -1.13602  -1.09504  -0.98684  -0.95289  -0.93228
 Alpha  occ. eigenvalues --   -0.89171  -0.86679  -0.84266  -0.80533  -0.76107
 Alpha  occ. eigenvalues --   -0.74536  -0.71721  -0.69390  -0.67359  -0.64744
 Alpha  occ. eigenvalues --   -0.61016  -0.59876  -0.56527  -0.56291  -0.55996
 Alpha  occ. eigenvalues --   -0.55083  -0.53516  -0.52996  -0.50695  -0.48773
 Alpha  occ. eigenvalues --   -0.48723  -0.48139  -0.47019  -0.45594  -0.44794
 Alpha  occ. eigenvalues --   -0.44203  -0.42754  -0.42083  -0.39992  -0.36970
 Alpha  occ. eigenvalues --   -0.33880  -0.31614  -0.30784  -0.25322
 Alpha virt. eigenvalues --   -0.02283   0.03481   0.05868   0.06400   0.09741
 Alpha virt. eigenvalues --    0.10790   0.11792   0.14423   0.16008   0.16778
 Alpha virt. eigenvalues --    0.18324   0.19826   0.20909   0.21285   0.22893

 Mulliken charges:
               1
     1  C    0.011257
     2  C   -0.252767
     3  C    0.223948
     4  C   -0.012223
     5  C    0.015147
     6  C    0.002133
     7  H    0.027285
     8  H    0.035671
     9  H    0.029741
    10  H    0.028233
    11  N   -0.065320
    12  S    0.198019
    13  C   -0.100220
    14  C   -0.027503
    15  C    0.116086
    16  C   -0.041960
    17  H    0.000342
    18  C   -0.052518
    19  C    0.035549
    20  H    0.001351
    21  H   -0.002159
    22  H    0.013034
    23  C    0.085517
    24  O   -0.384290
    25  H    0.115646
 Sum of Mulliken charges =  -0.00000

 Dipole moment (field-independent basis, Debye):
    X=              2.5857    Y=             -6.0006    Z=             -0.0003  Tot=              6.5339
 Quadrupole moment (field-independent basis, Debye-Ang):
   XX=            -81.7321   YY=            -95.8446   ZZ=           -104.2278
   XY=             -6.2355   XZ=             -0.0003   YZ=             -0.0004

  Exact polarizability:     347.940    -118.994     291.713      -0.001       0.003      63.359
 Approx polarizability:     277.418     -41.155     266.243      -0.001       0.002      82.098

 ******    1 imaginary frequencies (negative Signs) ******

                      1                      2                      3
                      A                      A                      A
 Frequencies --   -120.7655                16.9063                81.1932
 Red. masses --      5.0401                 5.5892                 5.0290
 Frc consts  --      0.0433                 0.0009                 0.0195
 IR Inten    --      6.0974                 0.0468                 1.2424

                      4                      5                      6
                      A                      A                      A
 Frequencies --    105.1116               157.5552               213.0062
 Red. masses --      5.7395                 3.8876                 4.9856
 Frc consts  --      0.0374                 0.0569                 0.1333
 IR Inten    --      7.3031                 3.0277                10.0070

                      7                      8                      9
                      A                      A                      A
 Frequencies --    254.9553               260.3733               307.7042
 Red. masses --      3.6734                 7.4995                 8.4118
 Frc consts  --      0.1407                 0.2996                 0.4692
 IR Inten    --      6.7956                 1.5457                 2.2324

                     10                     11                     12
                      A                      A                      A
 Frequencies --    337.4408               367.5218               379.3313
 Red. masses --      4.0176                 7.1707                 1.9691
 Frc consts  --      0.2695                 0.5707                 0.1669
 IR Inten    --      2.1930                 8.7030                37.1012

                     13                     14                     15
                      A                      A                      A
 Frequencies --    435.2205               453.4518               495.3020
 Red. masses --      4.1271                 2.2584                 7.9505
 Frc consts  --      0.4606                 0.2736                 1.1492
 IR Inten    --      6.9435                 5.2808                11.3173

                     16                     17                     18
                      A                      A                      A
 Frequencies --    514.3427               537.8072               550.6362
 Red. masses --      3.2331                 8.3702                 7.0610
 Frc consts  --      0.5039                 1.4264                 1.2614
 IR Inten    --      0.9361                10.8804                49.3275

                     19                     20                     21
                      A                      A                      A
 Frequencies --    559.0434               565.8272               643.7293
 Red. masses --      3.6651                 7.3918                 6.2586
 Frc consts  --      0.6749                 1.3943                 1.5280
 IR Inten    --      0.1534                 6.5466                23.2126

                     22                     23                     24
                      A                      A                      A
 Frequencies --    685.6937               692.2458               732.6347
 Red. masses --      1.5461                 6.0401                 7.7279
 Frc consts  --      0.4283                 1.7054                 2.4439
 IR Inten    --     28.9302                 1.9001                 4.9486

                     25                     26                     27
                      A                      A                      A
 Frequencies --    742.2938               758.8161               767.2553
 Red. masses --      2.4964                 1.7040                 1.6731
 Frc consts  --      0.8104                 0.5781                 0.5803
 IR Inten    --     15.2922                10.4746                93.6481

                     28                     29                     30
                      A                      A                      A
 Frequencies --    809.3791               842.4002               861.3113
 Red. masses --      6.4099                 1.9001                 1.3832
 Frc consts  --      2.4740                 0.7944                 0.6046
 IR Inten    --     17.3357                 1.3454                 1.4341

                     31                     32                     33
                      A                      A                      A
 Frequencies --    902.0058               905.7215               953.9124
 Red. masses --      5.9076                 1.4367                 1.3564
 Frc consts  --      2.8319                 0.6944                 0.7272
 IR Inten    --      0.7363                 9.4237                 0.5045

                     34                     35                     36
                      A                      A                      A
 Frequencies --    957.0220               961.4246              1003.8332
 Red. masses --      1.3491                 4.8159                 1.2934
 Frc consts  --      0.7280                 2.6228                 0.7679
 IR Inten    --      1.6406                 1.4982                 0.0001

                     37                     38                     39
                      A                      A                      A
 Frequencies --   1031.7805              1056.1937              1080.7689
 Red. masses --      2.3658                 2.3852                 3.3201
 Frc consts  --      1.4839                 1.5677                 2.2849
 IR Inten    --      3.1816                14.4730                 1.8672

                     40                     41                     42
                      A                      A                      A
 Frequencies --   1094.3260              1147.8376              1152.5634
 Red. masses --      1.7354                 1.4299                 1.3227
 Frc consts  --      1.2245                 1.1100                 1.0353
 IR Inten    --     44.9397               167.3371                 5.5417

                     43                     44                     45
                      A                      A                      A
 Frequencies --   1163.0945              1181.7018              1228.3766
 Red. masses --      1.2180                 1.1313                 3.3197
 Frc consts  --      0.9708                 0.9308                 2.9513
 IR Inten    --      1.0782                 5.8200                21.0427

                     46                     47                     48
                      A                      A                      A
 Frequencies --   1241.5028              1300.0702              1335.2657
 Red. masses --      2.3775                 1.5774                 3.0297
 Frc consts  --      2.1591                 1.5709                 3.1826
 IR Inten    --     40.8066                 7.6946                29.0602

                     49                     50                     51
                      A                      A                      A
 Frequencies --   1362.5405              1389.8406              1405.8254
 Red. masses --      2.4582                 2.2035                 5.8555
 Frc consts  --      2.6888                 2.5078                 6.8183
 IR Inten    --     33.2631                43.8725                68.5766

                     52                     53                     54
                      A                      A                      A
 Frequencies --   1450.0800              1464.4858              1515.3435
 Red. masses --      2.8818                 3.0026                 3.6287
 Frc consts  --      3.5703                 3.7942                 4.9094
 IR Inten    --     92.0779                 6.6036               105.7861

                     55                     56                     57
                      A                      A                      A
 Frequencies --   1527.2855              1559.9751              1619.5659
 Red. masses --      2.7762                 6.1199                 5.2721
 Frc consts  --      3.8155                 8.7747                 8.1476
 IR Inten    --      3.2082               175.9046               107.5708

                     58                     59                     60
                      A                      A                      A
 Frequencies --   1655.1867              1664.7620              1689.6791
 Red. masses --      9.3626                 6.9541                 7.3667
 Frc consts  --     15.1126                11.3552                12.3917
 IR Inten    --    142.4098               109.8382                36.0096

                     61                     62                     63
                      A                      A                      A
 Frequencies --   3185.2179              3205.3233              3213.6453
 Red. masses --      1.0896                 1.0862                 1.0866
 Frc consts  --      6.5133                 6.5750                 6.6116
 IR Inten    --     22.6748                 2.3220                 6.4486

                     64                     65                     66
                      A                      A                      A
 Frequencies --   3218.2364              3225.9435              3232.2376
 Red. masses --      1.0915                 1.0902                 1.0988
 Frc consts  --      6.6603                 6.6843                 6.7636
 IR Inten    --     11.5515                 1.7352                26.7522

                     67                     68                     69
                      A                      A                      A
 Frequencies --   3232.7799              3242.6745              3918.5466
 Red. masses --      1.0963                 1.0989                 1.0789
 Frc consts  --      6.7503                 6.8079                 9.7603
 IR Inten    --      5.8316                13.3519               310.3439

 - Thermochemistry -
 -------------------
 Temperature   298.150 Kelvin.  Pressure   1.00000 Atm.
 Atom     1 has atomic number  6 and mass  12.00000

 Molecular mass:   227.04049 amu.
 Principal axes and moments of inertia in atomic units:
                           1         2         3
     Eigenvalues --  1289.396216520.188587809.58479
           X           -0.70590   0.70831   0.00000
           Y            0.70831   0.70590  -0.00001
           Z            0.00001   0.00001   1.00000
 This molecule is an asymmetric top.
 Rotational symmetry number  1.
 Warning -- assumption of classical behavior for rotation
           may cause significant error
 Rotational temperatures (Kelvin)      0.06717     0.01328     0.01109
 Rotational constants (GHZ):           1.39968     0.27679     0.23109
    1 imaginary frequencies ignored.
 Zero-point vibrational energy     489303.0 (Joules/Mol)
                                  116.94621 (Kcal/Mol)
 Warning -- explicit consideration of  19 degrees of freedom as
           vibrations may cause significant error
 Vibrational temperatures:     24.32   116.82   151.23   226.69   306.47
          (Kelvin)            366.82   374.62   442.72   485.50   528.78
                              545.77   626.19   652.42   712.63   740.02
                              773.78   792.24   804.34   814.10   926.18
                              986.56   995.99  1054.10  1068.00  1091.77
                             1103.91  1164.52  1212.03  1239.23  1297.79
                             1303.13  1372.47  1376.94  1383.28  1444.29
                             1484.50  1519.63  1554.99  1574.49  1651.48
                             1658.28  1673.43  1700.21  1767.36  1786.25
                             1870.51  1921.15  1960.39  1999.67  2022.67
                             2086.34  2107.07  2180.24  2197.42  2244.46
                             2330.19  2381.44  2395.22  2431.07  4582.82
                             4611.75  4623.72  4630.32  4641.41  4650.47
                             4651.25  4665.49  5637.91

 Zero-point correction=                           0.186366 (Hartree/Particle)
 Thermal correction to Energy=                    0.198439
 Thermal correction to Enthalpy=                  0.199383
 Thermal correction to Gibbs Free Energy=         0.146802
 Sum of electronic and zero-point Energies=          -1028.497682
 Sum of electronic and thermal Energies=             -1028.485609
 Sum of electronic and thermal Enthalpies=           -1028.484664
 Sum of electronic and thermal Free Energies=        -1028.537245

                     E (Thermal)             CV                S
                      KCal/Mol        Cal/Mol-Kelvin    Cal/Mol-Kelvin
 Total                  124.522             48.838            110.666
 Electronic               0.000              0.000              0.000
 Translational            0.889              2.981             42.162
 Rotational               0.889              2.981             32.551
 Vibrational            122.745             42.876             35.952
 Vibration     1          0.593              1.986              6.968
 Vibration     2          0.600              1.962              3.862
 Vibration     3          0.605              1.945              3.357
 Vibration     4          0.621              1.894              2.579
 Vibration     5          0.644              1.821              2.018
 Vibration     6          0.665              1.754              1.696
 Vibration     7          0.668              1.745              1.659
 Vibration     8          0.698              1.659              1.375
 Vibration     9          0.718              1.601              1.224
 Vibration    10          0.740              1.539              1.090
 Vibration    11          0.749              1.514              1.042
 Vibration    12          0.796              1.393              0.842
 Vibration    13          0.812              1.353              0.785
 Vibration    14          0.851              1.260              0.670
 Vibration    15          0.869              1.218              0.623
 Vibration    16          0.893              1.166              0.570
 Vibration    17          0.906              1.138              0.543
 Vibration    18          0.915              1.120              0.526
 Vibration    19          0.922              1.105              0.512

 Optimization completed.
    -- Stationary point found.
 Normal termination of Gaussian 16 at Tue Jul 14 12:06:59 2020.
