 Gaussian 16, Revision C.01,
 Gaussian 16:  ES64L-G16RevC.01  3-Jul-2019

 ----------------------------------------------------------------------
 #p opt=addgic freq td wb97xd/cc-pvdz nosymm int=ultrafine scrf=(solven
 t=CarbonTetraChloride)
 ----------------------------------------------------------------------

 ------------------------------------------------
 NM 2D-scan of HBT TD-WB97XD pVDZ in CTC Relaxed.
 ------------------------------------------------
 Symbolic Z-matrix:
 Charge =  0 Multiplicity = 1

 SCF Done:  E(RwB97XD) =  -1028.61155947     A.U. after   16 cycles
 Total Energy, E(TD-HF/TD-DFT) =  -1028.50658870
 SCF Done:  E(RwB97XD) =  -1028.74554464     A.U. after   14 cycles
 Total Energy, E(TD-HF/TD-DFT) =  -1028.64399255
 SCF Done:  E(RwB97XD) =  -1028.77403799     A.U. after   15 cycles
 Total Energy, E(TD-HF/TD-DFT) =  -1028.67848317
 SCF Done:  E(RwB97XD) =  -1028.79051626     A.U. after   14 cycles
 Total Energy, E(TD-HF/TD-DFT) =  -1028.69162162
 SCF Done:  E(RwB97XD) =  -1028.79221880     A.U. after   13 cycles
 Total Energy, E(TD-HF/TD-DFT) =  -1028.69311812
 SCF Done:  E(RwB97XD) =  -1028.79309709     A.U. after   12 cycles
 Total Energy, E(TD-HF/TD-DFT) =  -1028.69337740
 SCF Done:  E(RwB97XD) =  -1028.79326363     A.U. after   11 cycles
 Total Energy, E(TD-HF/TD-DFT) =  -1028.69339188
 Optimization completed.
    -- Stationary point found.
 Normal termination of Gaussian 16 at Tue Jul 14 13:39:11 2020.

 ----------------------------------------------------------------------
 #P Geom=AllCheck Guess=TCheck SCRF=Check GenChk RwB97XD TD(FC,Read)/CC
 -pVDZ Freq
 ----------------------------------------------------------------------

 Structure from the checkpoint file:  "config_11_17.chk"
 ------------------------------------------------
 NM 2D-scan of HBT TD-WB97XD pVDZ in CTC Relaxed.
 ------------------------------------------------
 Charge =  0 Multiplicity = 1

                          Input orientation:
 ---------------------------------------------------------------------
 Center     Atomic      Atomic             Coordinates (Angstroms)
 Number     Number       Type             X           Y           Z
 ---------------------------------------------------------------------
      1          6           0        1.565556   -3.294359    0.000035
      2          6           0        1.012767   -2.021240    0.000014
      3          6           0        1.813716   -0.876321   -0.000038
      4          6           0        3.211162   -0.986735   -0.000067
      5          6           0        3.760853   -2.267381   -0.000045
      6          6           0        2.954287   -3.411233    0.000004
      7          1           0        0.926723   -4.177635    0.000073
      8          1           0        3.844966   -0.098961   -0.000105
      9          1           0        4.846622   -2.375002   -0.000068
     10          1           0        3.413185   -4.400236    0.000019
     11          7           0        1.041632    0.256556   -0.000058
     12         16           0       -0.690167   -1.582195    0.000040
     13          6           0       -1.343994    1.129211    0.000003
     14          6           0       -2.683412    0.786609   -0.000035
     15          6           0       -0.943013    2.545905    0.000068
     16          6           0       -3.708875    1.780017   -0.000008
     17          1           0       -2.985090   -0.263892   -0.000090
     18          6           0       -2.017379    3.503930    0.000088
     19          6           0       -3.373557    3.124882    0.000052
     20          1           0       -4.751864    1.459985   -0.000036
     21          1           0       -1.734696    4.558689    0.000149
     22          1           0       -4.155760    3.885924    0.000073
     23          6           0       -0.318878    0.112599   -0.000012
     24          8           0        0.276244    2.823636    0.000121
     25          1           0        1.526320    1.127023   -0.000083
 ---------------------------------------------------------------------

 SCF Done:  E(RwB97XD) =  -1028.79326363     A.U. after    1 cycles

 Excitation energies and oscillator strengths:

 Excited state symmetry could not be determined.
 Excited State   1:      Singlet-?Sym    2.7176 eV  456.22 nm  f=0.4387  <S**2>=0.000
      59 -> 60         0.69779
 This state for optimization and/or second-order correction.
 Total Energy, E(TD-HF/TD-DFT) =  -1028.69339187
 Copying the excited state density for this state as the 1-particle RhoCI density.

 Excited state symmetry could not be determined.
 Excited State   2:      Singlet-?Sym    3.3223 eV  373.19 nm  f=0.0000  <S**2>=0.000
      58 -> 60         0.68408
      58 -> 62         0.11420
      58 -> 64         0.10346

 Excited state symmetry could not be determined.
 Excited State   3:      Singlet-?Sym    4.2656 eV  290.66 nm  f=0.4039  <S**2>=0.000
      57 -> 60         0.68445

 Alpha  occ. eigenvalues --  -89.10382 -19.20045 -14.53351 -10.42577 -10.37591
 Alpha  occ. eigenvalues --  -10.36148 -10.35228 -10.33510 -10.33446 -10.32881
 Alpha  occ. eigenvalues --  -10.32573 -10.31333 -10.30744 -10.30584 -10.29023
 Alpha  occ. eigenvalues --  -10.28144  -8.12450  -6.07324  -6.06935  -6.06471
 Alpha  occ. eigenvalues --   -1.13264  -1.08877  -0.98687  -0.95856  -0.93289
 Alpha  occ. eigenvalues --   -0.89046  -0.86939  -0.83943  -0.80749  -0.75858
 Alpha  occ. eigenvalues --   -0.74494  -0.72185  -0.69310  -0.67528  -0.64998
 Alpha  occ. eigenvalues --   -0.61092  -0.59758  -0.56519  -0.56262  -0.56107
 Alpha  occ. eigenvalues --   -0.55117  -0.53792  -0.53049  -0.50319  -0.48683
 Alpha  occ. eigenvalues --   -0.48668  -0.48286  -0.47098  -0.45613  -0.44893
 Alpha  occ. eigenvalues --   -0.43954  -0.42774  -0.42296  -0.39802  -0.36931
 Alpha  occ. eigenvalues --   -0.33841  -0.31523  -0.30607  -0.25330
 Alpha virt. eigenvalues --   -0.02238   0.03544   0.05548   0.06766   0.09732
 Alpha virt. eigenvalues --    0.10940   0.13702   0.14552   0.15988   0.16709
 Alpha virt. eigenvalues --    0.17809   0.19764   0.20731   0.21204   0.22589

 Mulliken charges:
               1
     1  C    0.019210
     2  C   -0.237000
     3  C    0.214286
     4  C   -0.010883
     5  C    0.011393
     6  C    0.004560
     7  H    0.025388
     8  H    0.031955
     9  H    0.029196
    10  H    0.027883
    11  N   -0.103038
    12  S    0.199799
    13  C   -0.062541
    14  C   -0.042296
    15  C    0.099359
    16  C   -0.036779
    17  H    0.011153
    18  C   -0.055473
    19  C    0.034803
    20  H    0.000453
    21  H   -0.001118
    22  H    0.013724
    23  C    0.083954
    24  O   -0.381951
    25  H    0.123965
 Sum of Mulliken charges =  -0.00000

 Dipole moment (field-independent basis, Debye):
    X=              2.6459    Y=             -6.3019    Z=             -0.0003  Tot=              6.8349
 Quadrupole moment (field-independent basis, Debye-Ang):
   XX=            -81.0611   YY=            -97.6203   ZZ=           -104.1270
   XY=             -5.8365   XZ=             -0.0005   YZ=             -0.0008

  Exact polarizability:     345.840    -117.569     290.324      -0.001       0.001      63.239
 Approx polarizability:     275.317     -39.193     264.193      -0.001       0.001      81.947

 ******    1 imaginary frequencies (negative Signs) ******

                      1                      2                      3
                      A                      A                      A
 Frequencies --    -73.1651                50.9660               102.6463
 Red. masses --      4.7777                 6.3691                 5.6983
 Frc consts  --      0.0151                 0.0097                 0.0354
 IR Inten    --      2.8823                 0.8257                 0.3113

                      4                      5                      6
                      A                      A                      A
 Frequencies --    103.2982               177.7881               224.8181
 Red. masses --      5.7884                 5.3522                 5.7074
 Frc consts  --      0.0364                 0.0997                 0.1700
 IR Inten    --      7.3652                 0.0039                 2.3292

                      7                      8                      9
                      A                      A                      A
 Frequencies --    258.4583               268.9610               280.2615
 Red. masses --      8.7229                 3.8784                 7.4185
 Frc consts  --      0.3433                 0.1653                 0.3433
 IR Inten    --      2.0414                 5.0797                 1.6167

                     10                     11                     12
                      A                      A                      A
 Frequencies --    339.1849               378.4443               410.6887
 Red. masses --      4.2039                 6.9453                 2.9958
 Frc consts  --      0.2850                 0.5861                 0.2977
 IR Inten    --      1.6622                 8.0561                19.6041

                     13                     14                     15
                      A                      A                      A
 Frequencies --    441.7343               485.8109               502.1448
 Red. masses --      3.8454                 1.2778                 8.2303
 Frc consts  --      0.4421                 0.1777                 1.2227
 IR Inten    --      8.3644                47.2962                13.2015

                     16                     17                     18
                      A                      A                      A
 Frequencies --    516.1039               535.9945               543.2828
 Red. masses --      3.2296                 6.1293                 8.8155
 Frc consts  --      0.5068                 1.0375                 1.5330
 IR Inten    --      1.3849                30.5909                20.5171

                     19                     20                     21
                      A                      A                      A
 Frequencies --    560.4097               565.9873               638.9295
 Red. masses --      3.7791                 7.3097                 6.3324
 Frc consts  --      0.6993                 1.3796                 1.5231
 IR Inten    --      0.0088                 6.3705                13.5612

                     22                     23                     24
                      A                      A                      A
 Frequencies --    691.7755               712.2717               739.1222
 Red. masses --      1.4916                 5.6152                 7.4653
 Frc consts  --      0.4206                 1.6785                 2.4029
 IR Inten    --     32.9645                 1.6594                 5.7658

                     25                     26                     27
                      A                      A                      A
 Frequencies --    744.9510               756.6430               766.5465
 Red. masses --      2.3620                 1.6699                 1.7496
 Frc consts  --      0.7723                 0.5633                 0.6057
 IR Inten    --     24.3314                11.3159                79.2377

                     28                     29                     30
                      A                      A                      A
 Frequencies --    823.3943               835.7546               866.3214
 Red. masses --      6.2243                 2.0640                 1.3833
 Frc consts  --      2.4863                 0.8494                 0.6117
 IR Inten    --     15.7898                 1.4862                 1.1250

                     31                     32                     33
                      A                      A                      A
 Frequencies --    885.7907               898.6055               952.4423
 Red. masses --      5.2400                 1.4554                 1.3573
 Frc consts  --      2.4224                 0.6924                 0.7254
 IR Inten    --      1.7036                 9.1918                 0.2991

                     34                     35                     36
                      A                      A                      A
 Frequencies --    957.5763               963.0542              1003.1388
 Red. masses --      1.3537                 4.5971                 1.2982
 Frc consts  --      0.7314                 2.5121                 0.7697
 IR Inten    --      1.7950                 0.8538                 0.0026

                     37                     38                     39
                      A                      A                      A
 Frequencies --   1046.4218              1055.2796              1092.0266
 Red. masses --      2.2154                 2.1307                 3.3408
 Frc consts  --      1.4293                 1.3980                 2.3473
 IR Inten    --      0.7558                 7.5463                 5.2889

                     40                     41                     42
                      A                      A                      A
 Frequencies --   1099.1136              1150.2752              1154.2747
 Red. masses --      1.7927                 1.3441                 1.3943
 Frc consts  --      1.2760                 1.0478                 1.0945
 IR Inten    --     33.8441                96.8387                 5.9799

                     43                     44                     45
                      A                      A                      A
 Frequencies --   1166.7736              1179.9683              1234.8146
 Red. masses --      1.2544                 1.1587                 3.1052
 Frc consts  --      1.0062                 0.9505                 2.7896
 IR Inten    --      4.6670                 7.2208                23.1012

                     46                     47                     48
                      A                      A                      A
 Frequencies --   1247.9050              1299.2145              1333.8767
 Red. masses --      2.2083                 1.6014                 4.0369
 Frc consts  --      2.0262                 1.5926                 4.2319
 IR Inten    --     31.8905                 2.3153                 4.3581

                     49                     50                     51
                      A                      A                      A
 Frequencies --   1357.8167              1398.9366              1408.2848
 Red. masses --      2.7078                 5.2006                 2.4411
 Frc consts  --      2.9414                 5.9966                 2.8525
 IR Inten    --     70.0046                60.2047                35.6622

                     52                     53                     54
                      A                      A                      A
 Frequencies --   1440.4870              1467.7464              1515.6408
 Red. masses --      2.7250                 3.5146                 3.3475
 Frc consts  --      3.3315                 4.4609                 4.5307
 IR Inten    --    114.4404                 5.3450                85.1329

                     55                     56                     57
                      A                      A                      A
 Frequencies --   1518.5796              1539.5803              1608.8260
 Red. masses --      3.1399                 4.8297                 5.1830
 Frc consts  --      4.2663                 6.7449                 7.9041
 IR Inten    --      5.3177               192.6293                99.1954

                     58                     59                     60
                      A                      A                      A
 Frequencies --   1634.0476              1666.6717              1672.4979
 Red. masses --      8.4327                 6.9168                 7.2233
 Frc consts  --     13.2662                11.3202                11.9047
 IR Inten    --    157.0121                82.0269                43.0530

                     61                     62                     63
                      A                      A                      A
 Frequencies --   3193.1493              3207.1427              3211.2506
 Red. masses --      1.0887                 1.0865                 1.0864
 Frc consts  --      6.5404                 6.5845                 6.6006
 IR Inten    --     28.4302                 4.1014                 4.3335

                     64                     65                     66
                      A                      A                      A
 Frequencies --   3219.1607              3221.9970              3229.3177
 Red. masses --      1.0915                 1.0902                 1.0959
 Frc consts  --      6.6646                 6.6679                 6.7337
 IR Inten    --     14.1930                 1.8247                 7.1837

                     67                     68                     69
                      A                      A                      A
 Frequencies --   3233.3505              3239.0573              3829.5998
 Red. masses --      1.0989                 1.0995                 1.0795
 Frc consts  --      6.7689                 6.7962                 9.3281
 IR Inten    --     28.1662                12.4794               220.5759

 - Thermochemistry -
 -------------------
 Temperature   298.150 Kelvin.  Pressure   1.00000 Atm.
 Atom     1 has atomic number  6 and mass  12.00000

 Molecular mass:   227.04049 amu.
 Principal axes and moments of inertia in atomic units:
                           1         2         3
     Eigenvalues --  1259.238046535.590927794.82896
           X           -0.70508   0.70913   0.00000
           Y            0.70913   0.70508  -0.00001
           Z            0.00001   0.00000   1.00000
 This molecule is an asymmetric top.
 Rotational symmetry number  1.
 Warning -- assumption of classical behavior for rotation
           may cause significant error
 Rotational temperatures (Kelvin)      0.06878     0.01325     0.01111
 Rotational constants (GHZ):           1.43320     0.27614     0.23153
    1 imaginary frequencies ignored.
 Zero-point vibrational energy     489609.9 (Joules/Mol)
                                  117.01958 (Kcal/Mol)
 Warning -- explicit consideration of  19 degrees of freedom as
           vibrations may cause significant error
 Vibrational temperatures:     73.33   147.69   148.62   255.80   323.46
          (Kelvin)            371.86   386.97   403.23   488.01   544.50
                              590.89   635.56   698.97   722.47   742.56
                              771.18   781.66   806.30   814.33   919.28
                              995.31  1024.80  1063.43  1071.82  1088.64
                             1102.89  1184.68  1202.46  1246.44  1274.46
                             1292.89  1370.35  1377.74  1385.62  1443.29
                             1505.57  1518.31  1571.18  1581.38  1654.99
                             1660.74  1678.73  1697.71  1776.62  1795.46
                             1869.28  1919.15  1953.60  2012.76  2026.21
                             2072.54  2111.76  2180.67  2184.90  2215.11
                             2314.74  2351.03  2397.97  2406.35  4594.23
                             4614.36  4620.27  4631.65  4635.74  4646.27
                             4652.07  4660.28  5509.94

 Zero-point correction=                           0.186483 (Hartree/Particle)
 Thermal correction to Energy=                    0.198321
 Thermal correction to Enthalpy=                  0.199265
 Thermal correction to Gibbs Free Energy=         0.148208
 Sum of electronic and zero-point Energies=          -1028.506909
 Sum of electronic and thermal Energies=             -1028.495071
 Sum of electronic and thermal Enthalpies=           -1028.494127
 Sum of electronic and thermal Free Energies=        -1028.545184

                     E (Thermal)             CV                S
                      KCal/Mol        Cal/Mol-Kelvin    Cal/Mol-Kelvin
 Total                  124.448             48.557            107.459
 Electronic               0.000              0.000              0.000
 Translational            0.889              2.981             42.162
 Rotational               0.889              2.981             32.528
 Vibrational            122.671             42.595             32.768
 Vibration     1          0.595              1.977              4.780
 Vibration     2          0.605              1.947              3.403
 Vibration     3          0.605              1.947              3.391
 Vibration     4          0.628              1.870              2.352
 Vibration     5          0.649              1.803              1.920
 Vibration     6          0.667              1.748              1.672
 Vibration     7          0.673              1.730              1.603
 Vibration     8          0.680              1.710              1.532
 Vibration     9          0.719              1.597              1.216
 Vibration    10          0.749              1.516              1.045
 Vibration    11          0.775              1.447              0.924
 Vibration    12          0.801              1.379              0.821
 Vibration    13          0.842              1.282              0.695
 Vibration    14          0.857              1.245              0.653
 Vibration    15          0.871              1.214              0.619
 Vibration    16          0.891              1.170              0.574
 Vibration    17          0.898              1.154              0.558
 Vibration    18          0.916              1.117              0.523
 Vibration    19          0.922              1.105              0.512

 Optimization completed.
    -- Stationary point found.
 Normal termination of Gaussian 16 at Tue Jul 14 13:57:14 2020.
