 Gaussian 16, Revision C.01,
 Gaussian 16:  ES64L-G16RevC.01  3-Jul-2019

 ----------------------------------------------------------------------
 #p opt=addgic freq td wb97xd/cc-pvdz nosymm int=ultrafine scrf=(solven
 t=CarbonTetraChloride)
 ----------------------------------------------------------------------

 ------------------------------------------------
 NM 2D-scan of HBT TD-WB97XD pVDZ in CTC Relaxed.
 ------------------------------------------------
 Symbolic Z-matrix:
 Charge =  0 Multiplicity = 1

 SCF Done:  E(RwB97XD) =  -1028.75530810     A.U. after   16 cycles
 Total Energy, E(TD-HF/TD-DFT) =  -1028.64815245
 SCF Done:  E(RwB97XD) =  -1028.79501754     A.U. after   14 cycles
 Total Energy, E(TD-HF/TD-DFT) =  -1028.69275349
 SCF Done:  E(RwB97XD) =  -1028.80270126     A.U. after   13 cycles
 Total Energy, E(TD-HF/TD-DFT) =  -1028.69936559
 SCF Done:  E(RwB97XD) =  -1028.80280552     A.U. after   12 cycles
 Total Energy, E(TD-HF/TD-DFT) =  -1028.69975948
 SCF Done:  E(RwB97XD) =  -1028.80287642     A.U. after   10 cycles
 Total Energy, E(TD-HF/TD-DFT) =  -1028.69977830
 SCF Done:  E(RwB97XD) =  -1028.80282407     A.U. after    9 cycles
 Total Energy, E(TD-HF/TD-DFT) =  -1028.69977978
 Optimization completed.
    -- Stationary point found.
 Normal termination of Gaussian 16 at Mon Jul 13 16:49:11 2020.

 ----------------------------------------------------------------------
 #P Geom=AllCheck Guess=TCheck SCRF=Check GenChk RwB97XD TD(FC,Read)/CC
 -pVDZ Freq
 ----------------------------------------------------------------------

 Structure from the checkpoint file:  "config_10_13.chk"
 ------------------------------------------------
 NM 2D-scan of HBT TD-WB97XD pVDZ in CTC Relaxed.
 ------------------------------------------------
 Charge =  0 Multiplicity = 1

                          Input orientation:
 ---------------------------------------------------------------------
 Center     Atomic      Atomic             Coordinates (Angstroms)
 Number     Number       Type             X           Y           Z
 ---------------------------------------------------------------------
      1          6           0        1.614039   -3.290960    0.000009
      2          6           0        1.009476   -2.039200   -0.000001
      3          6           0        1.775825   -0.861603   -0.000030
      4          6           0        3.176216   -0.922782   -0.000048
      5          6           0        3.773015   -2.178993   -0.000037
      6          6           0        3.007197   -3.352283   -0.000010
      7          1           0        1.012966   -4.200635    0.000031
      8          1           0        3.771234   -0.009141   -0.000068
      9          1           0        4.861856   -2.248607   -0.000051
     10          1           0        3.502718   -4.323612   -0.000003
     11          7           0        0.983044    0.249396   -0.000040
     12         16           0       -0.710901   -1.656573    0.000018
     13          6           0       -1.357854    1.096995    0.000007
     14          6           0       -2.715853    0.813897   -0.000019
     15          6           0       -0.911234    2.508556    0.000054
     16          6           0       -3.691885    1.847954    0.000008
     17          1           0       -3.058541   -0.224020   -0.000064
     18          6           0       -1.938447    3.506989    0.000073
     19          6           0       -3.303296    3.182811    0.000054
     20          1           0       -4.748372    1.575939   -0.000009
     21          1           0       -1.604610    4.546338    0.000115
     22          1           0       -4.055031    3.973510    0.000075
     23          6           0       -0.366367    0.056172   -0.000010
     24          8           0        0.316581    2.782879    0.000074
     25          1           0        1.330428    1.202619   -0.000038
 ---------------------------------------------------------------------

 SCF Done:  E(RwB97XD) =  -1028.80282407     A.U. after    1 cycles

 Excitation energies and oscillator strengths:

 Excited state symmetry could not be determined.
 Excited State   1:      Singlet-?Sym    2.8040 eV  442.17 nm  f=0.4398  <S**2>=0.000
      59 -> 60         0.69716
 This state for optimization and/or second-order correction.
 Total Energy, E(TD-HF/TD-DFT) =  -1028.69977982
 Copying the excited state density for this state as the 1-particle RhoCI density.

 Excited state symmetry could not be determined.
 Excited State   2:      Singlet-?Sym    3.4936 eV  354.89 nm  f=0.0000  <S**2>=0.000
      58 -> 60         0.68355
      58 -> 62         0.11678
      58 -> 64         0.11048

 Excited state symmetry could not be determined.
 Excited State   3:      Singlet-?Sym    4.3013 eV  288.25 nm  f=0.4176  <S**2>=0.000
      57 -> 60         0.68267

 Alpha  occ. eigenvalues --  -89.10495 -19.20588 -14.52829 -10.42279 -10.37558
 Alpha  occ. eigenvalues --  -10.36251 -10.35574 -10.33484 -10.33204 -10.32736
 Alpha  occ. eigenvalues --  -10.32492 -10.31428 -10.30934 -10.30669 -10.29106
 Alpha  occ. eigenvalues --  -10.28234  -8.12509  -6.07385  -6.07006  -6.06529
 Alpha  occ. eigenvalues --   -1.13133  -1.09048  -0.98546  -0.95511  -0.93287
 Alpha  occ. eigenvalues --   -0.89112  -0.86797  -0.83935  -0.80965  -0.75936
 Alpha  occ. eigenvalues --   -0.73776  -0.72133  -0.69064  -0.67588  -0.65111
 Alpha  occ. eigenvalues --   -0.61049  -0.59755  -0.56570  -0.56121  -0.55882
 Alpha  occ. eigenvalues --   -0.55063  -0.53778  -0.53075  -0.50514  -0.48754
 Alpha  occ. eigenvalues --   -0.48709  -0.48438  -0.47029  -0.45552  -0.44862
 Alpha  occ. eigenvalues --   -0.44156  -0.42891  -0.42227  -0.39986  -0.36885
 Alpha  occ. eigenvalues --   -0.33752  -0.31489  -0.31169  -0.25616
 Alpha virt. eigenvalues --   -0.02135   0.03627   0.05682   0.06549   0.09512
 Alpha virt. eigenvalues --    0.10818   0.13407   0.14603   0.16136   0.17074
 Alpha virt. eigenvalues --    0.18247   0.19917   0.20803   0.21263   0.22737

 Mulliken charges:
               1
     1  C    0.018045
     2  C   -0.241580
     3  C    0.242388
     4  C   -0.009886
     5  C    0.012240
     6  C    0.002577
     7  H    0.025884
     8  H    0.031973
     9  H    0.028452
    10  H    0.027402
    11  N   -0.112704
    12  S    0.200750
    13  C   -0.081328
    14  C   -0.034515
    15  C    0.108632
    16  C   -0.036292
    17  H    0.007654
    18  C   -0.040194
    19  C    0.033869
    20  H    0.001245
    21  H    0.000066
    22  H    0.014064
    23  C    0.068360
    24  O   -0.397289
    25  H    0.130186
 Sum of Mulliken charges =  -0.00000

 Dipole moment (field-independent basis, Debye):
    X=              2.2151    Y=             -5.9760    Z=             -0.0002  Tot=              6.3733
 Quadrupole moment (field-independent basis, Debye-Ang):
   XX=            -81.7452   YY=            -96.6113   ZZ=           -104.1739
   XY=             -6.2700   XZ=             -0.0003   YZ=             -0.0004

  Exact polarizability:     347.612    -120.505     295.015      -0.002       0.002      63.243
 Approx polarizability:     274.264     -37.980     264.731      -0.001       0.002      81.987

 ******    1 imaginary frequencies (negative Signs) ******

                      1                      2                      3
                      A                      A                      A
 Frequencies --    -48.4967                45.9031               109.2064
 Red. masses --      5.4313                 6.4100                 5.4947
 Frc consts  --      0.0075                 0.0080                 0.0386
 IR Inten    --      1.7029                 1.4113                 0.6342

                      4                      5                      6
                      A                      A                      A
 Frequencies --    113.7655               178.3935               226.1482
 Red. masses --      5.7357                 5.4583                 5.5237
 Frc consts  --      0.0437                 0.1023                 0.1664
 IR Inten    --      7.0563                 0.0395                 0.3433

                      7                      8                      9
                      A                      A                      A
 Frequencies --    266.2786               273.1509               298.8357
 Red. masses --      7.8341                 4.5354                 8.0669
 Frc consts  --      0.3273                 0.1994                 0.4244
 IR Inten    --      1.3487                 1.0147                 2.5208

                     10                     11                     12
                      A                      A                      A
 Frequencies --    346.9782               385.5752               429.0331
 Red. masses --      4.6018                 7.7626                 3.5864
 Frc consts  --      0.3264                 0.6799                 0.3889
 IR Inten    --      1.0269                 7.0595                 3.2129

                     13                     14                     15
                      A                      A                      A
 Frequencies --    448.6122               503.2744               512.7054
 Red. masses --      4.3056                 8.4666                 3.2161
 Frc consts  --      0.5105                 1.2635                 0.4981
 IR Inten    --      4.2718                 9.8966                 0.3380

                     16                     17                     18
                      A                      A                      A
 Frequencies --    541.8925               550.4852               558.1864
 Red. masses --      8.5514                 6.7316                 3.8047
 Frc consts  --      1.4795                 1.2019                 0.6984
 IR Inten    --     10.1384                38.7521                 1.1316

                     19                     20                     21
                      A                      A                      A
 Frequencies --    567.3178               638.9937               688.6051
 Red. masses --      7.2654                 6.2790                 1.4778
 Frc consts  --      1.3777                 1.5105                 0.4129
 IR Inten    --      8.5347                30.8181                60.7015

                     22                     23                     24
                      A                      A                      A
 Frequencies --    713.5048               718.3304               734.2715
 Red. masses --      6.0711                 1.1208                 7.9049
 Frc consts  --      1.8210                 0.3408                 2.5111
 IR Inten    --      2.1890                13.8162                 4.9061

                     25                     26                     27
                      A                      A                      A
 Frequencies --    745.9636               760.5468               767.5748
 Red. masses --      2.4576                 1.7176                 1.6624
 Frc consts  --      0.8058                 0.5854                 0.5771
 IR Inten    --     26.2591                 9.2598               105.3125

                     28                     29                     30
                      A                      A                      A
 Frequencies --    820.4031               836.8905               866.7797
 Red. masses --      6.3161                 1.9082                 1.3824
 Frc consts  --      2.5047                 0.7874                 0.6119
 IR Inten    --     18.1248                 1.2062                 1.3768

                     31                     32                     33
                      A                      A                      A
 Frequencies --    885.4447               901.5201               952.8149
 Red. masses --      5.0985                 1.4378                 1.3607
 Frc consts  --      2.3552                 0.6885                 0.7278
 IR Inten    --      1.2117                 8.7343                 0.5611

                     34                     35                     36
                      A                      A                      A
 Frequencies --    957.3666               963.6382              1003.9328
 Red. masses --      1.3519                 5.2726                 1.2968
 Frc consts  --      0.7301                 2.8847                 0.7700
 IR Inten    --      1.6764                 0.3368                 0.0091

                     37                     38                     39
                      A                      A                      A
 Frequencies --   1047.6946              1054.7415              1088.6906
 Red. masses --      2.1576                 2.1375                 3.9056
 Frc consts  --      1.3954                 1.4011                 2.7274
 IR Inten    --      0.9450                 8.6098                 1.2242

                     40                     41                     42
                      A                      A                      A
 Frequencies --   1107.1783              1153.7439              1160.7591
 Red. masses --      1.6207                 1.3156                 1.2235
 Frc consts  --      1.1705                 1.0318                 0.9713
 IR Inten    --     29.1539                11.6906                53.7172

                     43                     44                     45
                      A                      A                      A
 Frequencies --   1179.4569              1208.4450              1248.1739
 Red. masses --      1.1416                 1.6887                 2.1810
 Frc consts  --      0.9357                 1.4530                 2.0020
 IR Inten    --     28.4778                58.1610                25.8989

                     46                     47                     48
                      A                      A                      A
 Frequencies --   1274.3413              1297.6911              1339.3008
 Red. masses --      2.0705                 1.7147                 5.0803
 Frc consts  --      1.9810                 1.7013                 5.3691
 IR Inten    --     72.3461                 1.7934                 7.8466

                     49                     50                     51
                      A                      A                      A
 Frequencies --   1365.3927              1397.6913              1400.7811
 Red. masses --      3.3536                 3.6902                 2.4193
 Frc consts  --      3.6836                 4.2474                 2.7969
 IR Inten    --    112.5996                27.2948                21.8242

                     52                     53                     54
                      A                      A                      A
 Frequencies --   1439.1354              1477.5889              1511.4493
 Red. masses --      2.9206                 3.0269                 2.9741
 Frc consts  --      3.5639                 3.8937                 4.0031
 IR Inten    --    203.9257                 1.6406                39.5898

                     55                     56                     57
                      A                      A                      A
 Frequencies --   1524.0760              1557.4427              1591.9408
 Red. masses --      3.8645                 4.8388                 5.0717
 Frc consts  --      5.2889                 6.9154                 7.5728
 IR Inten    --     45.3792               203.4438               111.8466

                     58                     59                     60
                      A                      A                      A
 Frequencies --   1625.0978              1659.3830              1669.2784
 Red. masses --      7.1597                 6.7315                 6.8712
 Frc consts  --     11.1405                10.9209                11.2809
 IR Inten    --    152.8811                 9.9283               157.8952

                     61                     62                     63
                      A                      A                      A
 Frequencies --   3193.4084              3210.2166              3213.8043
 Red. masses --      1.0887                 1.0864                 1.0862
 Frc consts  --      6.5413                 6.5964                 6.6098
 IR Inten    --     25.4242                 2.4990                 4.0739

                     64                     65                     66
                      A                      A                      A
 Frequencies --   3221.2045              3224.3167              3233.8136
 Red. masses --      1.0919                 1.0903                 1.0956
 Frc consts  --      6.6754                 6.6785                 6.7507
 IR Inten    --     15.2947                 3.4878                 7.2326

                     67                     68                     69
                      A                      A                      A
 Frequencies --   3234.4096              3240.4843              3571.9412
 Red. masses --      1.0990                 1.0996                 1.0816
 Frc consts  --      6.7738                 6.8031                 8.1303
 IR Inten    --     28.2236                12.0007               488.7238

 - Thermochemistry -
 -------------------
 Temperature   298.150 Kelvin.  Pressure   1.00000 Atm.
 Atom     1 has atomic number  6 and mass  12.00000

 Molecular mass:   227.04049 amu.
 Principal axes and moments of inertia in atomic units:
                           1         2         3
     Eigenvalues --  1282.277956478.798517761.07646
           X           -0.70361   0.71059   0.00000
           Y            0.71059   0.70361  -0.00001
           Z            0.00001   0.00000   1.00000
 This molecule is an asymmetric top.
 Rotational symmetry number  1.
 Warning -- assumption of classical behavior for rotation
           may cause significant error
 Rotational temperatures (Kelvin)      0.06755     0.01337     0.01116
 Rotational constants (GHZ):           1.40745     0.27856     0.23254
    1 imaginary frequencies ignored.
 Zero-point vibrational energy     490680.6 (Joules/Mol)
                                  117.27549 (Kcal/Mol)
 Warning -- explicit consideration of  18 degrees of freedom as
           vibrations may cause significant error
 Vibrational temperatures:     66.04   157.12   163.68   256.67   325.38
          (Kelvin)            383.12   393.00   429.96   499.22   554.76
                              617.28   645.45   724.10   737.67   779.66
                              792.03   803.11   816.24   919.37   990.75
                             1026.57  1033.52  1056.45  1073.28  1094.26
                             1104.37  1180.38  1204.10  1247.10  1273.96
                             1297.09  1370.89  1377.44  1386.46  1444.44
                             1507.40  1517.54  1566.38  1592.98  1659.98
                             1670.07  1696.98  1738.68  1795.84  1833.49
                             1867.09  1926.96  1964.50  2010.97  2015.41
                             2070.59  2125.92  2174.64  2192.81  2240.81
                             2290.45  2338.15  2387.48  2401.72  4594.60
                             4618.79  4623.95  4634.59  4639.07  4652.74
                             4653.59  4662.33  5139.23

 Zero-point correction=                           0.186890 (Hartree/Particle)
 Thermal correction to Energy=                    0.198483
 Thermal correction to Enthalpy=                  0.199427
 Thermal correction to Gibbs Free Energy=         0.148795
 Sum of electronic and zero-point Energies=          -1028.512889
 Sum of electronic and thermal Energies=             -1028.501297
 Sum of electronic and thermal Enthalpies=           -1028.500353
 Sum of electronic and thermal Free Energies=        -1028.550985

                     E (Thermal)             CV                S
                      KCal/Mol        Cal/Mol-Kelvin    Cal/Mol-Kelvin
 Total                  124.550             47.827            106.564
 Electronic               0.000              0.000              0.000
 Translational            0.889              2.981             42.162
 Rotational               0.889              2.981             32.533
 Vibrational            122.773             41.865             31.869
 Vibration     1          0.595              1.979              4.987
 Vibration     2          0.606              1.942              3.283
 Vibration     3          0.607              1.938              3.204
 Vibration     4          0.629              1.869              2.345
 Vibration     5          0.650              1.801              1.909
 Vibration     6          0.672              1.735              1.620
 Vibration     7          0.676              1.723              1.576
 Vibration     8          0.692              1.676              1.423
 Vibration     9          0.725              1.581              1.180
 Vibration    10          0.754              1.501              1.017
 Vibration    11          0.790              1.407              0.862
 Vibration    12          0.808              1.364              0.800
 Vibration    13          0.859              1.243              0.650
 Vibration    14          0.868              1.222              0.627
 Vibration    15          0.897              1.157              0.561
 Vibration    16          0.906              1.139              0.543
 Vibration    17          0.914              1.122              0.527
 Vibration    18          0.923              1.102              0.509

 Optimization completed.
    -- Stationary point found.
 Normal termination of Gaussian 16 at Mon Jul 13 17:06:43 2020.
