 Gaussian 16, Revision C.01,
 Gaussian 16:  ES64L-G16RevC.01  3-Jul-2019

 ----------------------------------------------------------------------
 #p opt=addgic freq td wb97xd/cc-pvdz nosymm int=ultrafine scrf=(solven
 t=CarbonTetraChloride)
 ----------------------------------------------------------------------

 ------------------------------------------------
 NM 2D-scan of HBT TD-WB97XD pVDZ in CTC Relaxed.
 ------------------------------------------------
 Symbolic Z-matrix:
 Charge =  0 Multiplicity = 1

 SCF Done:  E(RwB97XD) =  -1028.81307503     A.U. after   15 cycles
 Total Energy, E(TD-HF/TD-DFT) =  -1028.68586979
 SCF Done:  E(RwB97XD) =  -1028.81413071     A.U. after   12 cycles
 Total Energy, E(TD-HF/TD-DFT) =  -1028.68665402
 SCF Done:  E(RwB97XD) =  -1028.81465584     A.U. after   11 cycles
 Total Energy, E(TD-HF/TD-DFT) =  -1028.68683227
 SCF Done:  E(RwB97XD) =  -1028.81435794     A.U. after   11 cycles
 Total Energy, E(TD-HF/TD-DFT) =  -1028.68701727
 SCF Done:  E(RwB97XD) =  -1028.81424558     A.U. after   10 cycles
 Total Energy, E(TD-HF/TD-DFT) =  -1028.68702492
 SCF Done:  E(RwB97XD) =  -1028.81419864     A.U. after   10 cycles
 Total Energy, E(TD-HF/TD-DFT) =  -1028.68702495
 SCF Done:  E(RwB97XD) =  -1028.81420804     A.U. after    7 cycles
 Total Energy, E(TD-HF/TD-DFT) =  -1028.68702569
 Optimization completed.
    -- Stationary point found.
 Normal termination of Gaussian 16 at Tue Jul 14 15:21:33 2020.

 ----------------------------------------------------------------------
 #P Geom=AllCheck Guess=TCheck SCRF=Check GenChk RwB97XD TD(FC,Read)/CC
 -pVDZ Freq
 ----------------------------------------------------------------------

 Structure from the checkpoint file:  "config_4_18.chk"
 ------------------------------------------------
 NM 2D-scan of HBT TD-WB97XD pVDZ in CTC Relaxed.
 ------------------------------------------------
 Charge =  0 Multiplicity = 1

                          Input orientation:
 ---------------------------------------------------------------------
 Center     Atomic      Atomic             Coordinates (Angstroms)
 Number     Number       Type             X           Y           Z
 ---------------------------------------------------------------------
      1          6           0        1.520353   -3.249926   -0.000075
      2          6           0        0.997796   -1.962697   -0.000074
      3          6           0        1.798727   -0.776667   -0.000006
      4          6           0        3.206517   -0.962599    0.000057
      5          6           0        3.722194   -2.253523    0.000056
      6          6           0        2.900147   -3.397589   -0.000008
      7          1           0        0.854814   -4.114027   -0.000124
      8          1           0        3.870104   -0.097073    0.000109
      9          1           0        4.806043   -2.384624    0.000109
     10          1           0        3.345764   -4.392986   -0.000002
     11          7           0        1.073015    0.376043   -0.000010
     12         16           0       -0.690528   -1.575539   -0.000140
     13          6           0       -1.295710    1.077142   -0.000022
     14          6           0       -2.661889    0.719239    0.000044
     15          6           0       -0.928032    2.490806   -0.000017
     16          6           0       -3.642033    1.703152    0.000096
     17          1           0       -2.948134   -0.332846    0.000067
     18          6           0       -1.949769    3.463422    0.000049
     19          6           0       -3.292297    3.070748    0.000098
     20          1           0       -4.694063    1.413685    0.000145
     21          1           0       -1.666271    4.516399    0.000046
     22          1           0       -4.077199    3.827864    0.000137
     23          6           0       -0.267771    0.119595   -0.000068
     24          8           0        0.345173    2.773483   -0.000100
     25          1           0        0.905713    1.852119   -0.000250
 ---------------------------------------------------------------------

 SCF Done:  E(RwB97XD) =  -1028.81420804     A.U. after    1 cycles

 Excitation energies and oscillator strengths:

 Excited state symmetry could not be determined.
 Excited State   1:      Singlet-?Sym    3.4608 eV  358.25 nm  f=0.6156  <S**2>=0.000
      59 -> 60         0.68983
 This state for optimization and/or second-order correction.
 Total Energy, E(TD-HF/TD-DFT) =  -1028.68702568
 Copying the excited state density for this state as the 1-particle RhoCI density.

 Excited state symmetry could not be determined.
 Excited State   2:      Singlet-?Sym    4.3779 eV  283.20 nm  f=0.1926  <S**2>=0.000
      57 -> 60         0.21898
      58 -> 60         0.63010
      59 -> 62         0.10273
      59 -> 63         0.10412

 Excited state symmetry could not be determined.
 Excited State   3:      Singlet-?Sym    4.6573 eV  266.21 nm  f=0.1028  <S**2>=0.000
      57 -> 60         0.58572
      57 -> 62        -0.14471
      58 -> 60        -0.22084
      58 -> 61        -0.13098
      59 -> 61         0.19919

 Alpha  occ. eigenvalues --  -89.08789 -19.27457 -14.47912 -10.39741 -10.37883
 Alpha  occ. eigenvalues --  -10.35678 -10.34623 -10.32213 -10.32103 -10.32041
 Alpha  occ. eigenvalues --  -10.31885 -10.31853 -10.31507 -10.31450 -10.30467
 Alpha  occ. eigenvalues --  -10.30414  -8.10913  -6.05743  -6.05400  -6.04975
 Alpha  occ. eigenvalues --   -1.16183  -1.08509  -0.96900  -0.95965  -0.92405
 Alpha  occ. eigenvalues --   -0.88832  -0.85267  -0.84361  -0.82373  -0.75915
 Alpha  occ. eigenvalues --   -0.71369  -0.70537  -0.69091  -0.67889  -0.63686
 Alpha  occ. eigenvalues --   -0.60632  -0.59029  -0.58694  -0.55902  -0.54447
 Alpha  occ. eigenvalues --   -0.54134  -0.53509  -0.53029  -0.50641  -0.50271
 Alpha  occ. eigenvalues --   -0.49414  -0.47025  -0.46064  -0.45731  -0.44859
 Alpha  occ. eigenvalues --   -0.44239  -0.42842  -0.42386  -0.40223  -0.36976
 Alpha  occ. eigenvalues --   -0.36481  -0.32108  -0.31462  -0.28141
 Alpha virt. eigenvalues --   -0.01754   0.04981   0.06738   0.07342   0.07876
 Alpha virt. eigenvalues --    0.10955   0.14610   0.15197   0.17186   0.17976
 Alpha virt. eigenvalues --    0.18693   0.21189   0.21528   0.22406   0.22511

 Mulliken charges:
               1
     1  C    0.023213
     2  C   -0.219998
     3  C    0.228961
     4  C   -0.022888
     5  C    0.003764
     6  C   -0.001669
     7  H    0.017622
     8  H    0.020399
     9  H    0.020117
    10  H    0.020782
    11  N   -0.368330
    12  S    0.165363
    13  C   -0.081142
    14  C   -0.029694
    15  C    0.106085
    16  C   -0.013476
    17  H    0.023492
    18  C   -0.006866
    19  C    0.024429
    20  H    0.010072
    21  H    0.018071
    22  H    0.022925
    23  C    0.087130
    24  O   -0.251888
    25  H    0.203526
 Sum of Mulliken charges =  -0.00000

 Dipole moment (field-independent basis, Debye):
    X=             -0.4964    Y=             -2.6713    Z=             -0.0001  Tot=              2.7171
 Quadrupole moment (field-independent basis, Debye-Ang):
   XX=            -83.1489   YY=            -90.2216   ZZ=           -104.2280
   XY=             -7.1464   XZ=             -0.0003   YZ=              0.0002

  Exact polarizability:     384.484    -175.160     361.647      -0.002       0.004      63.255
 Approx polarizability:     275.173     -35.016     258.100       0.001       0.003      82.329

 ******    1 imaginary frequencies (negative Signs) ******

                      1                      2                      3
                      A                      A                      A
 Frequencies --    -31.7219                39.5459                50.3957
 Red. masses --      4.9791                 5.0756                 6.8971
 Frc consts  --      0.0030                 0.0047                 0.0103
 IR Inten    --      1.5299                 0.1586                 1.3889

                      4                      5                      6
                      A                      A                      A
 Frequencies --    109.9643               175.1406               223.1889
 Red. masses --      5.3150                 6.2329                 5.2781
 Frc consts  --      0.0379                 0.1126                 0.1549
 IR Inten    --      0.0404                 1.3410                 0.0078

                      7                      8                      9
                      A                      A                      A
 Frequencies --    255.8566               272.5033               274.1962
 Red. masses --      6.7323                 5.5811                 4.7940
 Frc consts  --      0.2597                 0.2442                 0.2124
 IR Inten    --     28.7280                 7.3766                 0.0143

                     10                     11                     12
                      A                      A                      A
 Frequencies --    380.2361               414.1735               441.1757
 Red. masses --      4.6262                 8.9222                 3.2065
 Frc consts  --      0.3941                 0.9018                 0.3677
 IR Inten    --      0.0643                15.2040                 3.9621

                     13                     14                     15
                      A                      A                      A
 Frequencies --    480.6051               484.3110               503.7414
 Red. masses --      4.6655                 4.4986                 3.1608
 Frc consts  --      0.6349                 0.6217                 0.4726
 IR Inten    --      0.0139                10.8588                 0.0520

                     16                     17                     18
                      A                      A                      A
 Frequencies --    506.1276               536.0506               558.2300
 Red. masses --      8.5089                 7.7652                 3.8994
 Frc consts  --      1.2842                 1.3147                 0.7159
 IR Inten    --      0.0532                47.3122                 0.1572

                     19                     20                     21
                      A                      A                      A
 Frequencies --    574.6008               640.6992               711.6181
 Red. masses --      7.6068                 6.6800                 1.5718
 Frc consts  --      1.4797                 1.6156                 0.4690
 IR Inten    --      7.6576                27.7716                57.1716

                     22                     23                     24
                      A                      A                      A
 Frequencies --    723.1057               737.3606               740.5822
 Red. masses --      6.4644                10.1427                 1.8233
 Frc consts  --      1.9915                 3.2491                 0.5892
 IR Inten    --      0.5989                35.5590                48.8066

                     25                     26                     27
                      A                      A                      A
 Frequencies --    744.2766               768.4724               804.8033
 Red. masses --      1.8364                 2.2028                 1.8675
 Frc consts  --      0.5994                 0.7664                 0.7127
 IR Inten    --      2.1466                48.3720                 2.5585

                     28                     29                     30
                      A                      A                      A
 Frequencies --    826.9349               861.7886               890.1368
 Red. masses --      5.3436                 1.4168                 6.4131
 Frc consts  --      2.1529                 0.6200                 2.9939
 IR Inten    --      7.8170                 1.0073                73.9986

                     31                     32                     33
                      A                      A                      A
 Frequencies --    910.1524               952.9748               961.4916
 Red. masses --      1.3551                 1.3474                 1.3716
 Frc consts  --      0.6614                 0.7209                 0.7471
 IR Inten    --      4.7137                 2.0185                 0.0229

                     34                     35                     36
                      A                      A                      A
 Frequencies --    979.7097               998.6326              1003.6050
 Red. masses --      7.2717                 1.3033                 1.8003
 Frc consts  --      4.1123                 0.7658                 1.0684
 IR Inten    --      8.1892                 0.0000                 5.8676

                     37                     38                     39
                      A                      A                      A
 Frequencies --   1045.5139              1085.3558              1115.6849
 Red. masses --      2.1602                 2.5609                 1.6395
 Frc consts  --      1.3912                 1.7774                 1.2024
 IR Inten    --      0.4474               114.6267                21.8389

                     40                     41                     42
                      A                      A                      A
 Frequencies --   1134.7822              1148.6087              1157.5237
 Red. masses --      1.0538                 1.4375                 1.1925
 Frc consts  --      0.7995                 1.1174                 0.9414
 IR Inten    --     66.4864                15.8632                 0.1204

                     43                     44                     45
                      A                      A                      A
 Frequencies --   1177.8364              1210.7264              1238.1325
 Red. masses --      1.2930                 2.2057                 2.8228
 Frc consts  --      1.0568                 1.9050                 2.5496
 IR Inten    --     21.2219                27.8252                20.7754

                     46                     47                     48
                      A                      A                      A
 Frequencies --   1254.7910              1288.2727              1362.7399
 Red. masses --      2.9827                 1.8637                 4.5065
 Frc consts  --      2.7670                 1.8224                 4.9308
 IR Inten    --     72.9464                 6.6738                79.6852

                     49                     50                     51
                      A                      A                      A
 Frequencies --   1374.3918              1393.5758              1428.5560
 Red. masses --      2.4610                 2.8986                 3.0110
 Frc consts  --      2.7389                 3.3167                 3.6204
 IR Inten    --     69.1100                20.0367               251.2647

                     52                     53                     54
                      A                      A                      A
 Frequencies --   1461.5700              1486.7117              1534.4499
 Red. masses --      3.7741                 2.8615                 4.7182
 Frc consts  --      4.7500                 3.7265                 6.5453
 IR Inten    --     21.6472               150.2016               286.4513

                     55                     56                     57
                      A                      A                      A
 Frequencies --   1550.1439              1565.5189              1585.4682
 Red. masses --      4.4342                 3.8562                 7.2987
 Frc consts  --      6.2778                 5.5684                10.8096
 IR Inten    --     26.3181                 9.0096               291.7253

                     58                     59                     60
                      A                      A                      A
 Frequencies --   1609.4806              1644.1599              1696.9410
 Red. masses --      6.1357                 6.0797                 1.6227
 Frc consts  --      9.3645                 9.6832                 2.7531
 IR Inten    --    635.9897               402.4023               586.4296

                     61                     62                     63
                      A                      A                      A
 Frequencies --   1860.9245              3204.4290              3211.3239
 Red. masses --      1.2093                 1.0862                 1.0867
 Frc consts  --      2.4673                 6.5717                 6.6027
 IR Inten    --    332.3831                 8.5983                 6.5489

                     64                     65                     66
                      A                      A                      A
 Frequencies --   3214.7974              3221.2038              3225.5754
 Red. masses --      1.0899                 1.0890                 1.0950
 Frc consts  --      6.6367                 6.6577                 6.7126
 IR Inten    --      1.8473                 6.9621                11.0502

                     67                     68                     69
                      A                      A                      A
 Frequencies --   3229.4090              3233.4777              3239.8624
 Red. masses --      1.0946                 1.0994                 1.0981
 Frc consts  --      6.7257                 6.7721                 6.7910
 IR Inten    --     12.5813                35.9963                25.7424

 - Thermochemistry -
 -------------------
 Temperature   298.150 Kelvin.  Pressure   1.00000 Atm.
 Atom     1 has atomic number  6 and mass  12.00000

 Molecular mass:   227.04049 amu.
 Principal axes and moments of inertia in atomic units:
                           1         2         3
     Eigenvalues --  1278.969016292.781097571.75008
           X           -0.70467   0.70954  -0.00000
           Y            0.70954   0.70467  -0.00002
           Z            0.00001   0.00001   1.00000
 This molecule is an asymmetric top.
 Rotational symmetry number  1.
 Warning -- assumption of classical behavior for rotation
           may cause significant error
 Rotational temperatures (Kelvin)      0.06772     0.01376     0.01144
 Rotational constants (GHZ):           1.41109     0.28680     0.23835
    1 imaginary frequencies ignored.
 Zero-point vibrational energy     482862.6 (Joules/Mol)
                                  115.40694 (Kcal/Mol)
 Warning -- explicit consideration of  18 degrees of freedom as
           vibrations may cause significant error
 Vibrational temperatures:     56.90    72.51   158.21   251.99   321.12
          (Kelvin)            368.12   392.07   394.51   547.07   595.90
                              634.75   691.48   696.82   724.77   728.20
                              771.26   803.17   826.72   921.82  1023.86
                             1040.39  1060.90  1065.53  1070.85  1105.66
                             1157.93  1189.77  1239.92  1280.71  1309.51
                             1371.12  1383.37  1409.58  1436.81  1443.96
                             1504.26  1561.58  1605.22  1632.70  1652.59
                             1665.42  1694.64  1741.97  1781.40  1805.36
                             1853.54  1960.68  1977.44  2005.04  2055.37
                             2102.87  2139.05  2207.73  2230.31  2252.43
                             2281.14  2315.68  2365.58  2441.52  2677.46
                             4610.46  4620.38  4625.38  4634.59  4640.88
                             4646.40  4652.25  4661.44

 Zero-point correction=                           0.183913 (Hartree/Particle)
 Thermal correction to Energy=                    0.195568
 Thermal correction to Enthalpy=                  0.196512
 Thermal correction to Gibbs Free Energy=         0.145089
 Sum of electronic and zero-point Energies=          -1028.503113
 Sum of electronic and thermal Energies=             -1028.491458
 Sum of electronic and thermal Enthalpies=           -1028.490514
 Sum of electronic and thermal Free Energies=        -1028.541937

                     E (Thermal)             CV                S
                      KCal/Mol        Cal/Mol-Kelvin    Cal/Mol-Kelvin
 Total                  122.721             47.360            108.229
 Electronic               0.000              0.000              0.000
 Translational            0.889              2.981             42.162
 Rotational               0.889              2.981             32.477
 Vibrational            120.943             41.398             33.590
 Vibration     1          0.594              1.981              5.282
 Vibration     2          0.595              1.977              4.802
 Vibration     3          0.606              1.941              3.270
 Vibration     4          0.627              1.873              2.380
 Vibration     5          0.649              1.806              1.933
 Vibration     6          0.666              1.753              1.690
 Vibration     7          0.676              1.724              1.580
 Vibration     8          0.677              1.721              1.570
 Vibration     9          0.750              1.512              1.038
 Vibration    10          0.778              1.439              0.912
 Vibration    11          0.801              1.380              0.823
 Vibration    12          0.837              1.293              0.708
 Vibration    13          0.840              1.285              0.699
 Vibration    14          0.859              1.242              0.649
 Vibration    15          0.861              1.236              0.643
 Vibration    16          0.891              1.170              0.574
 Vibration    17          0.914              1.122              0.527
 Vibration    18          0.931              1.086              0.495

 Optimization completed.
    -- Stationary point found.
 Normal termination of Gaussian 16 at Tue Jul 14 15:39:48 2020.
