 Gaussian 16, Revision C.01,
 Gaussian 16:  ES64L-G16RevC.01  3-Jul-2019

 ----------------------------------------------------------------------
 #p opt=addgic freq td wb97xd/cc-pvdz nosymm int=ultrafine scrf=(solven
 t=CarbonTetraChloride)
 ----------------------------------------------------------------------

 ------------------------------------------------
 NM 2D-scan of HBT TD-WB97XD pVDZ in CTC Relaxed.
 ------------------------------------------------
 Symbolic Z-matrix:
 Charge =  0 Multiplicity = 1

 SCF Done:  E(RwB97XD) =  -1028.78756248     A.U. after   16 cycles
 Total Energy, E(TD-HF/TD-DFT) =  -1028.67887038
 SCF Done:  E(RwB97XD) =  -1028.80064395     A.U. after   14 cycles
 Total Energy, E(TD-HF/TD-DFT) =  -1028.69800714
 SCF Done:  E(RwB97XD) =  -1028.80469846     A.U. after   13 cycles
 Total Energy, E(TD-HF/TD-DFT) =  -1028.70019638
 SCF Done:  E(RwB97XD) =  -1028.80511585     A.U. after   11 cycles
 Total Energy, E(TD-HF/TD-DFT) =  -1028.70040349
 SCF Done:  E(RwB97XD) =  -1028.80513639     A.U. after    9 cycles
 Total Energy, E(TD-HF/TD-DFT) =  -1028.70040785
 Optimization completed.
    -- Stationary point found.
 Normal termination of Gaussian 16 at Mon Jul 13 16:20:01 2020.

 ----------------------------------------------------------------------
 #P Geom=AllCheck Guess=TCheck SCRF=Check GenChk RwB97XD TD(FC,Read)/CC
 -pVDZ Freq
 ----------------------------------------------------------------------

 Structure from the checkpoint file:  "config_9_15.chk"
 ------------------------------------------------
 NM 2D-scan of HBT TD-WB97XD pVDZ in CTC Relaxed.
 ------------------------------------------------
 Charge =  0 Multiplicity = 1

                          Input orientation:
 ---------------------------------------------------------------------
 Center     Atomic      Atomic             Coordinates (Angstroms)
 Number     Number       Type             X           Y           Z
 ---------------------------------------------------------------------
      1          6           0        1.580942   -3.288158   -0.000020
      2          6           0        1.000268   -2.024010   -0.000014
      3          6           0        1.783325   -0.847419   -0.000016
      4          6           0        3.183032   -0.944586   -0.000025
      5          6           0        3.755905   -2.211590   -0.000031
      6          6           0        2.971529   -3.374292   -0.000028
      7          1           0        0.961330   -4.185557   -0.000017
      8          1           0        3.797481   -0.043872   -0.000027
      9          1           0        4.843430   -2.300101   -0.000038
     10          1           0        3.451346   -4.353554   -0.000033
     11          7           0        1.014556    0.285686   -0.000011
     12         16           0       -0.710071   -1.632375   -0.000002
     13          6           0       -1.331390    1.100334    0.000019
     14          6           0       -2.687911    0.786442    0.000017
     15          6           0       -0.918688    2.521305    0.000040
     16          6           0       -3.677307    1.796962    0.000027
     17          1           0       -3.009022   -0.258004    0.000005
     18          6           0       -1.958433    3.498395    0.000040
     19          6           0       -3.312526    3.142679    0.000035
     20          1           0       -4.729364    1.508621    0.000025
     21          1           0       -1.644972    4.543812    0.000051
     22          1           0       -4.080602    3.917365    0.000039
     23          6           0       -0.332308    0.077207    0.000001
     24          8           0        0.308402    2.833304    0.000046
     25          1           0        1.277692    1.291764    0.000013
 ---------------------------------------------------------------------

 SCF Done:  E(RwB97XD) =  -1028.80513639     A.U. after    1 cycles

 Excitation energies and oscillator strengths:

 Excited state symmetry could not be determined.
 Excited State   1:      Singlet-?Sym    2.8498 eV  435.06 nm  f=0.4419  <S**2>=0.000
      59 -> 60         0.69707
 This state for optimization and/or second-order correction.
 Total Energy, E(TD-HF/TD-DFT) =  -1028.70040787
 Copying the excited state density for this state as the 1-particle RhoCI density.

 Excited state symmetry could not be determined.
 Excited State   2:      Singlet-?Sym    3.5910 eV  345.26 nm  f=0.0000  <S**2>=0.000
      57 -> 60         0.68350
      57 -> 62         0.11713
      57 -> 64         0.11328

 Excited state symmetry could not be determined.
 Excited State   3:      Singlet-?Sym    4.2899 eV  289.01 nm  f=0.3807  <S**2>=0.000
      58 -> 60         0.68277

 Alpha  occ. eigenvalues --  -89.10367 -19.20903 -14.52853 -10.42038 -10.37715
 Alpha  occ. eigenvalues --  -10.36244 -10.35717 -10.33397 -10.33098 -10.32630
 Alpha  occ. eigenvalues --  -10.32431 -10.31489 -10.30929 -10.30798 -10.29203
 Alpha  occ. eigenvalues --  -10.28365  -8.12394  -6.07265  -6.06894  -6.06414
 Alpha  occ. eigenvalues --   -1.12842  -1.08943  -0.98443  -0.95545  -0.93289
 Alpha  occ. eigenvalues --   -0.89105  -0.86785  -0.83785  -0.81207  -0.75915
 Alpha  occ. eigenvalues --   -0.73277  -0.72195  -0.68823  -0.67642  -0.65152
 Alpha  occ. eigenvalues --   -0.61038  -0.59706  -0.56657  -0.55962  -0.55707
 Alpha  occ. eigenvalues --   -0.55036  -0.53865  -0.53073  -0.50461  -0.48842
 Alpha  occ. eigenvalues --   -0.48723  -0.48506  -0.46989  -0.45516  -0.44891
 Alpha  occ. eigenvalues --   -0.44154  -0.42955  -0.42232  -0.40051  -0.36842
 Alpha  occ. eigenvalues --   -0.33678  -0.31520  -0.31428  -0.25834
 Alpha virt. eigenvalues --   -0.02087   0.03701   0.05628   0.06570   0.09344
 Alpha virt. eigenvalues --    0.10763   0.13703   0.14707   0.16214   0.17267
 Alpha virt. eigenvalues --    0.18276   0.19991   0.20703   0.21254   0.22628

 Mulliken charges:
               1
     1  C    0.019571
     2  C   -0.236217
     3  C    0.252985
     4  C   -0.010586
     5  C    0.011058
     6  C    0.002395
     7  H    0.025658
     8  H    0.031206
     9  H    0.027763
    10  H    0.027021
    11  N   -0.140128
    12  S    0.200464
    13  C   -0.080825
    14  C   -0.035685
    15  C    0.109391
    16  C   -0.033635
    17  H    0.010922
    18  C   -0.031606
    19  C    0.033082
    20  H    0.001647
    21  H    0.001481
    22  H    0.014642
    23  C    0.060126
    24  O   -0.405911
    25  H    0.145184
 Sum of Mulliken charges =  -0.00000

 Dipole moment (field-independent basis, Debye):
    X=              1.9461    Y=             -5.8549    Z=             -0.0001  Tot=              6.1699
 Quadrupole moment (field-independent basis, Debye-Ang):
   XX=            -81.8477   YY=            -96.6034   ZZ=           -104.1919
   XY=             -6.4144   XZ=             -0.0001   YZ=             -0.0001

  Exact polarizability:     347.217    -121.522     297.531      -0.002       0.002      63.211
 Approx polarizability:     273.155     -36.551     264.840      -0.001       0.001      81.986

                      1                      2                      3
                      A                      A                      A
 Frequencies --     18.9273                41.2727               111.9354
 Red. masses --      5.3986                 5.9407                 5.7521
 Frc consts  --      0.0011                 0.0060                 0.0425
 IR Inten    --      1.5743                 1.0906                 9.5665

                      4                      5                      6
                      A                      A                      A
 Frequencies --    114.2013               181.6208               223.5072
 Red. masses --      5.7725                 5.6648                 5.4908
 Frc consts  --      0.0444                 0.1101                 0.1616
 IR Inten    --      0.9997                 0.0623                 0.2239

                      7                      8                      9
                      A                      A                      A
 Frequencies --    264.3754               272.4370               296.5932
 Red. masses --      8.0995                 4.5992                 7.4594
 Frc consts  --      0.3335                 0.2011                 0.3866
 IR Inten    --      2.7296                 0.4243                 3.4401

                     10                     11                     12
                      A                      A                      A
 Frequencies --    352.0989               391.7678               432.8556
 Red. masses --      4.7694                 8.2428                 3.5038
 Frc consts  --      0.3484                 0.7454                 0.3868
 IR Inten    --      1.0484                 6.6023                 2.6378

                     13                     14                     15
                      A                      A                      A
 Frequencies --    453.6751               505.1474               511.1501
 Red. masses --      4.3552                 8.6118                 3.2128
 Frc consts  --      0.5281                 1.2947                 0.4946
 IR Inten    --      3.6526                10.3490                 0.3702

                     16                     17                     18
                      A                      A                      A
 Frequencies --    542.6189               549.3458               558.8138
 Red. masses --      8.5717                 6.4618                 3.8493
 Frc consts  --      1.4870                 1.1489                 0.7082
 IR Inten    --      7.4636                40.3352                 0.5979

                     19                     20                     21
                      A                      A                      A
 Frequencies --    568.3104               633.0752               693.8531
 Red. masses --      7.2240                 6.1150                 1.5263
 Frc consts  --      1.3747                 1.4440                 0.4329
 IR Inten    --     11.0240                43.7145                41.0576

                     22                     23                     24
                      A                      A                      A
 Frequencies --    716.9228               728.4906               744.1135
 Red. masses --      6.1411                 7.9557                 2.6280
 Frc consts  --      1.8597                 2.4876                 0.8574
 IR Inten    --      2.6349                 3.7533                13.8045

                     25                     26                     27
                      A                      A                      A
 Frequencies --    759.0391               767.0895               822.9673
 Red. masses --      1.6815                 1.6550                 6.2924
 Frc consts  --      0.5708                 0.5738                 2.5109
 IR Inten    --      3.4505                83.9926                18.0935

                     28                     29                     30
                      A                      A                      A
 Frequencies --    832.7509               859.8335               869.6249
 Red. masses --      1.8281                 1.1005                 1.3771
 Frc consts  --      0.7469                 0.4794                 0.6136
 IR Inten    --      0.2030                75.3759                 0.5245

                     31                     32                     33
                      A                      A                      A
 Frequencies --    869.6884               901.3213               952.6424
 Red. masses --      4.5114                 1.4350                 1.3618
 Frc consts  --      2.0104                 0.6868                 0.7282
 IR Inten    --      4.3634                 9.9102                 0.7816

                     34                     35                     36
                      A                      A                      A
 Frequencies --    958.3857               959.9428              1004.1523
 Red. masses --      1.3512                 5.3497                 1.2974
 Frc consts  --      0.7312                 2.9045                 0.7707
 IR Inten    --      1.4201                 0.5858                 0.0161

                     37                     38                     39
                      A                      A                      A
 Frequencies --   1050.4045              1053.1902              1089.2679
 Red. masses --      2.1075                 2.0968                 4.0488
 Frc consts  --      1.3700                 1.3703                 2.8304
 IR Inten    --      1.6329                 8.0465                 1.5311

                     40                     41                     42
                      A                      A                      A
 Frequencies --   1114.6246              1153.8680              1162.4748
 Red. masses --      1.5653                 1.3265                 1.2332
 Frc consts  --      1.1458                 1.0405                 0.9819
 IR Inten    --     27.4250                18.3947                58.7413

                     43                     44                     45
                      A                      A                      A
 Frequencies --   1177.6684              1212.1718              1252.8325
 Red. masses --      1.1452                 1.6988                 2.0724
 Frc consts  --      0.9358                 1.4707                 1.9165
 IR Inten    --     30.0830                70.1645                41.4055

                     46                     47                     48
                      A                      A                      A
 Frequencies --   1271.1803              1301.5413              1342.2192
 Red. masses --      2.0365                 1.8870                 5.4763
 Frc consts  --      1.9389                 1.8834                 5.8127
 IR Inten    --     56.0564                 7.0322                 4.5504

                     49                     50                     51
                      A                      A                      A
 Frequencies --   1363.6511              1394.4801              1400.9958
 Red. masses --      5.1661                 2.8923                 2.4068
 Frc consts  --      5.6601                 3.3138                 2.7833
 IR Inten    --    167.1001                 1.1570                 2.8404

                     52                     53                     54
                      A                      A                      A
 Frequencies --   1434.6364              1480.5764              1502.4860
 Red. masses --      2.9593                 2.9750                 3.1091
 Frc consts  --      3.5886                 3.8423                 4.1352
 IR Inten    --    294.3103                 0.6521                41.2861

                     55                     56                     57
                      A                      A                      A
 Frequencies --   1526.9365              1556.2889              1578.2516
 Red. masses --      3.9232                 4.9447                 4.5029
 Frc consts  --      5.3893                 7.0562                 6.6084
 IR Inten    --     33.3824               217.9163                89.3254

                     58                     59                     60
                      A                      A                      A
 Frequencies --   1617.3452              1647.2074              1666.5868
 Red. masses --      6.5496                 6.4416                 6.8014
 Frc consts  --     10.0942                10.2977                11.1302
 IR Inten    --    186.1730                48.3615               128.1607

                     61                     62                     63
                      A                      A                      A
 Frequencies --   3197.5140              3211.8224              3211.8911
 Red. masses --      1.0881                 1.0865                 1.0863
 Frc consts  --      6.5548                 6.6037                 6.6024
 IR Inten    --     17.0314                 1.0557                 8.1932

                     64                     65                     66
                      A                      A                      A
 Frequencies --   3221.7435              3223.1603              3231.2752
 Red. masses --      1.0903                 1.0924                 1.0957
 Frc consts  --      6.6676                 6.6864                 6.7406
 IR Inten    --      2.7693                16.8965                 3.7525

                     67                     68                     69
                      A                      A                      A
 Frequencies --   3235.5474              3238.2467              3254.5921
 Red. masses --      1.0989                 1.0997                 1.0848
 Frc consts  --      6.7778                 6.7942                 6.7698
 IR Inten    --     40.6217                21.1966               677.7281

 - Thermochemistry -
 -------------------
 Temperature   298.150 Kelvin.  Pressure   1.00000 Atm.
 Atom     1 has atomic number  6 and mass  12.00000

 Molecular mass:   227.04049 amu.
 Principal axes and moments of inertia in atomic units:
                           1         2         3
     Eigenvalues --  1287.028726446.048577733.07728
           X           -0.70200   0.71218   0.00000
           Y            0.71218   0.70200  -0.00001
           Z            0.00001   0.00000   1.00000
 This molecule is an asymmetric top.
 Rotational symmetry number  1.
 Warning -- assumption of classical behavior for rotation
           may cause significant error
 Rotational temperatures (Kelvin)      0.06730     0.01344     0.01120
 Rotational constants (GHZ):           1.40225     0.27998     0.23338
 Zero-point vibrational energy     489519.2 (Joules/Mol)
                                  116.99791 (Kcal/Mol)
 Warning -- explicit consideration of  19 degrees of freedom as
           vibrations may cause significant error
 Vibrational temperatures:     27.23    59.38   161.05   164.31   261.31
          (Kelvin)            321.58   380.38   391.98   426.73   506.59
                              563.67   622.78   652.74   726.79   735.43
                              780.71   790.39   804.01   817.67   910.85
                              998.30  1031.49  1048.14  1070.61  1092.09
                             1103.67  1184.07  1198.14  1237.11  1251.20
                             1251.29  1296.80  1370.64  1378.90  1381.14
                             1444.75  1511.30  1515.31  1567.21  1603.70
                             1660.16  1672.54  1694.40  1744.04  1802.55
                             1828.94  1872.63  1931.15  1961.99  2006.35
                             2015.72  2064.12  2130.22  2161.74  2196.92
                             2239.15  2270.75  2327.00  2369.96  2397.85
                             4600.51  4621.10  4621.19  4635.37  4637.41
                             4649.08  4655.23  4659.11  4682.63

 Zero-point correction=                           0.186448 (Hartree/Particle)
 Thermal correction to Energy=                    0.198894
 Thermal correction to Enthalpy=                  0.199838
 Thermal correction to Gibbs Free Energy=         0.146009
 Sum of electronic and zero-point Energies=          -1028.513960
 Sum of electronic and thermal Energies=             -1028.501514
 Sum of electronic and thermal Enthalpies=           -1028.500570
 Sum of electronic and thermal Free Energies=        -1028.554399

                     E (Thermal)             CV                S
                      KCal/Mol        Cal/Mol-Kelvin    Cal/Mol-Kelvin
 Total                  124.808             49.570            113.293
 Electronic               0.000              0.000              0.000
 Translational            0.889              2.981             42.162
 Rotational               0.889              2.981             32.528
 Vibrational            123.030             43.608             38.603
 Vibration     1          0.593              1.986              6.744
 Vibration     2          0.594              1.981              5.197
 Vibration     3          0.607              1.940              3.235
 Vibration     4          0.607              1.938              3.196
 Vibration     5          0.630              1.865              2.312
 Vibration     6          0.649              1.805              1.930
 Vibration     7          0.671              1.738              1.633
 Vibration     8          0.675              1.724              1.581
 Vibration     9          0.690              1.680              1.436
 Vibration    10          0.729              1.571              1.157
 Vibration    11          0.759              1.488              0.993
 Vibration    12          0.794              1.399              0.849
 Vibration    13          0.812              1.353              0.785
 Vibration    14          0.860              1.239              0.645
 Vibration    15          0.866              1.225              0.631
 Vibration    16          0.898              1.156              0.560
 Vibration    17          0.905              1.141              0.546
 Vibration    18          0.914              1.120              0.526
 Vibration    19          0.924              1.100              0.507

 Optimization completed.
    -- Stationary point found.
 Normal termination of Gaussian 16 at Mon Jul 13 16:37:47 2020.
