 Gaussian 16, Revision C.01,
 Gaussian 16:  ES64L-G16RevC.01  3-Jul-2019

 ----------------------------------------------------------------------
 #p opt=addgic freq td wb97xd/cc-pvdz nosymm int=ultrafine scrf=(solven
 t=CarbonTetraChloride)
 ----------------------------------------------------------------------

 ------------------------------------------------
 NM 2D-scan of HBT TD-WB97XD pVDZ in CTC Relaxed.
 ------------------------------------------------
 Symbolic Z-matrix:
 Charge =  0 Multiplicity = 1

 SCF Done:  E(RwB97XD) =  -1028.81863791     A.U. after   15 cycles
 Total Energy, E(TD-HF/TD-DFT) =  -1028.68990596
 SCF Done:  E(RwB97XD) =  -1028.81936966     A.U. after   12 cycles
 Total Energy, E(TD-HF/TD-DFT) =  -1028.69136339
 SCF Done:  E(RwB97XD) =  -1028.81902696     A.U. after   12 cycles
 Total Energy, E(TD-HF/TD-DFT) =  -1028.69151193
 SCF Done:  E(RwB97XD) =  -1028.81865605     A.U. after   11 cycles
 Total Energy, E(TD-HF/TD-DFT) =  -1028.69161122
 SCF Done:  E(RwB97XD) =  -1028.81893968     A.U. after   10 cycles
 Total Energy, E(TD-HF/TD-DFT) =  -1028.69164220
 SCF Done:  E(RwB97XD) =  -1028.81897052     A.U. after    8 cycles
 Total Energy, E(TD-HF/TD-DFT) =  -1028.69164253
 SCF Done:  E(RwB97XD) =  -1028.81899478     A.U. after    8 cycles
 Total Energy, E(TD-HF/TD-DFT) =  -1028.69164219
 SCF Done:  E(RwB97XD) =  -1028.81897778     A.U. after    7 cycles
 Total Energy, E(TD-HF/TD-DFT) =  -1028.69164268
 Optimization completed.
    -- Stationary point found.
 Normal termination of Gaussian 16 at Mon Jul 13 14:18:54 2020.

 ----------------------------------------------------------------------
 #P Geom=AllCheck Guess=TCheck SCRF=Check GenChk RwB97XD TD(FC,Read)/CC
 -pVDZ Freq
 ----------------------------------------------------------------------

 Structure from the checkpoint file:  "config_4_14.chk"
 ------------------------------------------------
 NM 2D-scan of HBT TD-WB97XD pVDZ in CTC Relaxed.
 ------------------------------------------------
 Charge =  0 Multiplicity = 1

                          Input orientation:
 ---------------------------------------------------------------------
 Center     Atomic      Atomic             Coordinates (Angstroms)
 Number     Number       Type             X           Y           Z
 ---------------------------------------------------------------------
      1          6           0        1.576995   -3.264140   -0.000039
      2          6           0        0.991653   -2.002891   -0.000027
      3          6           0        1.758295   -0.794245   -0.000009
      4          6           0        3.172000   -0.910633   -0.000005
      5          6           0        3.744699   -2.172699   -0.000017
      6          6           0        2.965256   -3.346792   -0.000034
      7          1           0        0.958660   -4.162600   -0.000052
      8          1           0        3.787225   -0.010212    0.000008
      9          1           0        4.832818   -2.260436   -0.000014
     10          1           0        3.451674   -4.323051   -0.000043
     11          7           0        1.017889    0.337424    0.000002
     12         16           0       -0.713208   -1.646322   -0.000028
     13          6           0       -1.322119    1.058684    0.000021
     14          6           0       -2.704734    0.762646    0.000036
     15          6           0       -0.914167    2.468922    0.000027
     16          6           0       -3.645130    1.785527    0.000041
     17          1           0       -3.032801   -0.277791    0.000043
     18          6           0       -1.895377    3.478251    0.000029
     19          6           0       -3.248925    3.141360    0.000033
     20          1           0       -4.707280    1.535645    0.000049
     21          1           0       -1.562920    4.516766    0.000028
     22          1           0       -4.005229    3.926843    0.000034
     23          6           0       -0.319171    0.071526   -0.000001
     24          8           0        0.360797    2.749981    0.000026
     25          1           0        0.899376    1.835946    0.000004
 ---------------------------------------------------------------------

 SCF Done:  E(RwB97XD) =  -1028.81897778     A.U. after    1 cycles

 Excitation energies and oscillator strengths:

 Excited state symmetry could not be determined.
 Excited State   1:      Singlet-?Sym    3.4650 eV  357.82 nm  f=0.6331  <S**2>=0.000
      59 -> 60         0.68972
 This state for optimization and/or second-order correction.
 Total Energy, E(TD-HF/TD-DFT) =  -1028.69164268
 Copying the excited state density for this state as the 1-particle RhoCI density.

 Excited state symmetry could not be determined.
 Excited State   2:      Singlet-?Sym    4.3888 eV  282.50 nm  f=0.2227  <S**2>=0.000
      57 -> 60         0.23016
      58 -> 60         0.62502
      59 -> 62         0.11148
      59 -> 63         0.10655

 Excited state symmetry could not be determined.
 Excited State   3:      Singlet-?Sym    4.6435 eV  267.01 nm  f=0.0809  <S**2>=0.000
      57 -> 60         0.57683
      57 -> 62        -0.14291
      58 -> 60        -0.22816
      58 -> 61        -0.13578
      59 -> 61         0.21486

 Alpha  occ. eigenvalues --  -89.08962 -19.27580 -14.47621 -10.39821 -10.37925
 Alpha  occ. eigenvalues --  -10.35440 -10.34738 -10.32244 -10.32170 -10.32109
 Alpha  occ. eigenvalues --  -10.31984 -10.31697 -10.31473 -10.31426 -10.30397
 Alpha  occ. eigenvalues --  -10.30347  -8.11004  -6.05843  -6.05502  -6.05065
 Alpha  occ. eigenvalues --   -1.16414  -1.08512  -0.96829  -0.95826  -0.92182
 Alpha  occ. eigenvalues --   -0.88833  -0.85134  -0.84369  -0.82391  -0.75929
 Alpha  occ. eigenvalues --   -0.71229  -0.70376  -0.69129  -0.68075  -0.63603
 Alpha  occ. eigenvalues --   -0.60568  -0.58964  -0.58651  -0.55868  -0.54429
 Alpha  occ. eigenvalues --   -0.54041  -0.53284  -0.53040  -0.50758  -0.50288
 Alpha  occ. eigenvalues --   -0.49476  -0.47296  -0.46017  -0.45660  -0.44823
 Alpha  occ. eigenvalues --   -0.44112  -0.42831  -0.42420  -0.40176  -0.37000
 Alpha  occ. eigenvalues --   -0.36481  -0.32159  -0.31420  -0.28075
 Alpha virt. eigenvalues --   -0.01754   0.05013   0.06850   0.07315   0.07641
 Alpha virt. eigenvalues --    0.10997   0.14385   0.15166   0.16737   0.18025
 Alpha virt. eigenvalues --    0.18617   0.21145   0.21616   0.22396   0.22581

 Mulliken charges:
               1
     1  C    0.019641
     2  C   -0.223046
     3  C    0.233677
     4  C   -0.019773
     5  C    0.005873
     6  C   -0.003667
     7  H    0.017758
     8  H    0.019272
     9  H    0.019768
    10  H    0.020781
    11  N   -0.363599
    12  S    0.163903
    13  C   -0.084320
    14  C   -0.025564
    15  C    0.099244
    16  C   -0.014431
    17  H    0.018670
    18  C   -0.001280
    19  C    0.024098
    20  H    0.010261
    21  H    0.017804
    22  H    0.022662
    23  C    0.084751
    24  O   -0.237854
    25  H    0.195373
 Sum of Mulliken charges =  -0.00000

 Dipole moment (field-independent basis, Debye):
    X=             -0.4116    Y=             -2.4948    Z=             -0.0000  Tot=              2.5285
 Quadrupole moment (field-independent basis, Debye-Ang):
   XX=            -83.2037   YY=            -89.9035   ZZ=           -104.2821
   XY=             -7.0891   XZ=             -0.0001   YZ=              0.0001

  Exact polarizability:     389.275    -178.597     365.828      -0.002       0.003      63.304
 Approx polarizability:     276.260     -35.472     259.121      -0.001       0.002      82.340

                      1                      2                      3
                      A                      A                      A
 Frequencies --     45.9794                54.0077               103.7888
 Red. masses --      5.5588                 6.3975                 5.4709
 Frc consts  --      0.0069                 0.0110                 0.0347
 IR Inten    --      1.2911                 0.2581                 1.0647

                      4                      5                      6
                      A                      A                      A
 Frequencies --    108.5544               176.5018               223.1087
 Red. masses --      5.1195                 6.2895                 5.3254
 Frc consts  --      0.0355                 0.1154                 0.1562
 IR Inten    --      0.0852                 1.2255                 0.0078

                      7                      8                      9
                      A                      A                      A
 Frequencies --    271.3393               272.9140               299.2701
 Red. masses --      7.5394                 4.8046                 6.0540
 Frc consts  --      0.3270                 0.2108                 0.3195
 IR Inten    --     28.0678                 0.0443                 6.5527

                     10                     11                     12
                      A                      A                      A
 Frequencies --    383.1786               410.3005               440.0941
 Red. masses --      4.6437                 9.5580                 3.2243
 Frc consts  --      0.4017                 0.9480                 0.3679
 IR Inten    --      0.0907                11.6809                 4.1579

                     13                     14                     15
                      A                      A                      A
 Frequencies --    484.4473               503.0882               503.2618
 Red. masses --      4.6725                 3.1652                 6.9653
 Frc consts  --      0.6461                 0.4720                 1.0394
 IR Inten    --      0.0416                 0.0375                 3.6133

                     16                     17                     18
                      A                      A                      A
 Frequencies --    507.0624               532.1074               556.2585
 Red. masses --      5.2292                 7.7792                 3.9356
 Frc consts  --      0.7922                 1.2977                 0.7175
 IR Inten    --      9.6376                45.5949                 0.1401

                     19                     20                     21
                      A                      A                      A
 Frequencies --    576.8873               640.9564               711.9995
 Red. masses --      7.6348                 6.6583                 1.6466
 Frc consts  --      1.4970                 1.6116                 0.4918
 IR Inten    --     12.9312                36.7472                49.7275

                     22                     23                     24
                      A                      A                      A
 Frequencies --    715.2568               730.4256               739.6041
 Red. masses --      6.9299                 9.6405                 1.8324
 Frc consts  --      2.0888                 3.0304                 0.5906
 IR Inten    --      3.4695                34.0862                35.8640

                     25                     26                     27
                      A                      A                      A
 Frequencies --    749.2977               769.0946               811.4143
 Red. masses --      1.8730                 2.1439                 1.7444
 Frc consts  --      0.6196                 0.7472                 0.6767
 IR Inten    --     20.4386                50.1732                 1.1127

                     28                     29                     30
                      A                      A                      A
 Frequencies --    824.5633               861.1176               894.1465
 Red. masses --      6.1780                 1.4191                 6.4760
 Frc consts  --      2.4748                 0.6200                 3.0505
 IR Inten    --      9.7700                 0.9850                63.4268

                     31                     32                     33
                      A                      A                      A
 Frequencies --    912.2937               952.9515               963.1091
 Red. masses --      1.3534                 1.3460                 1.3683
 Frc consts  --      0.6637                 0.7202                 0.7478
 IR Inten    --      5.0471                 1.9767                 0.0755

                     34                     35                     36
                      A                      A                      A
 Frequencies --    975.0784               998.8244              1037.6521
 Red. masses --      7.2955                 1.3012                 2.1147
 Frc consts  --      4.0868                 0.7649                 1.3416
 IR Inten    --      5.5479                 0.0020                 1.7290

                     37                     38                     39
                      A                      A                      A
 Frequencies --   1044.7765              1085.4973              1111.2756
 Red. masses --      2.1146                 3.8878                 1.0560
 Frc consts  --      1.3600                 2.6990                 0.7683
 IR Inten    --      0.8544                75.6491                66.3786

                     40                     41                     42
                      A                      A                      A
 Frequencies --   1132.3487              1149.1829              1173.6030
 Red. masses --      1.4952                 1.3669                 1.1291
 Frc consts  --      1.1295                 1.0636                 0.9163
 IR Inten    --     64.0500                14.2064                13.0093

                     43                     44                     45
                      A                      A                      A
 Frequencies --   1177.0997              1237.2973              1249.5210
 Red. masses --      1.2245                 2.9148                 2.3135
 Frc consts  --      0.9996                 2.6291                 2.1282
 IR Inten    --     31.2753                67.6038               111.3350

                     46                     47                     48
                      A                      A                      A
 Frequencies --   1282.0637              1292.9646              1369.7686
 Red. masses --      1.9768                 2.9727                 3.8387
 Frc consts  --      1.9144                 2.9280                 4.2435
 IR Inten    --     16.7864               114.9844                21.4193

                     49                     50                     51
                      A                      A                      A
 Frequencies --   1371.9144              1401.6609              1441.2709
 Red. masses --      3.0359                 2.4041                 2.5716
 Frc consts  --      3.3666                 2.7829                 3.1473
 IR Inten    --    174.4912                 7.4910               154.4018

                     52                     53                     54
                      A                      A                      A
 Frequencies --   1469.1116              1492.8732              1536.5097
 Red. masses --      3.8972                 3.1976                 4.6252
 Frc consts  --      4.9557                 4.1988                 6.4336
 IR Inten    --     18.6701                77.2772               203.9927

                     55                     56                     57
                      A                      A                      A
 Frequencies --   1544.9314              1576.3060              1592.2797
 Red. masses --      4.1018                 7.3400                 4.3155
 Frc consts  --      5.7683                10.7455                 6.4464
 IR Inten    --     39.3719               365.1572                39.3723

                     58                     59                     60
                      A                      A                      A
 Frequencies --   1610.8082              1645.3729              1687.6248
 Red. masses --      5.8738                 5.9463                 1.4287
 Frc consts  --      8.9796                 9.4848                 2.3974
 IR Inten    --    698.7756               395.5677               326.7222

                     61                     62                     63
                      A                      A                      A
 Frequencies --   2072.1710              3206.2244              3211.6855
 Red. masses --      1.1501                 1.0862                 1.0862
 Frc consts  --      2.9097                 6.5787                 6.6014
 IR Inten    --    372.9543                 8.8999                 7.7322

                     64                     65                     66
                      A                      A                      A
 Frequencies --   3216.8514              3222.5002              3228.3237
 Red. masses --      1.0899                 1.0889                 1.0952
 Frc consts  --      6.6452                 6.6624                 6.7249
 IR Inten    --      2.4711                 6.3042                10.3854

                     67                     68                     69
                      A                      A                      A
 Frequencies --   3229.9612              3234.8001              3240.9509
 Red. masses --      1.0945                 1.0992                 1.0982
 Frc consts  --      6.7277                 6.7766                 6.7964
 IR Inten    --     13.4618                36.5277                24.9268

 - Thermochemistry -
 -------------------
 Temperature   298.150 Kelvin.  Pressure   1.00000 Atm.
 Atom     1 has atomic number  6 and mass  12.00000

 Molecular mass:   227.04049 amu.
 Principal axes and moments of inertia in atomic units:
                           1         2         3
     Eigenvalues --  1296.275336310.112157606.38748
           X           -0.70323   0.71096   0.00000
           Y            0.71096   0.70323  -0.00001
           Z            0.00001   0.00001   1.00000
 This molecule is an asymmetric top.
 Rotational symmetry number  1.
 Warning -- assumption of classical behavior for rotation
           may cause significant error
 Rotational temperatures (Kelvin)      0.06682     0.01373     0.01139
 Rotational constants (GHZ):           1.39225     0.28601     0.23727
 Zero-point vibrational energy     486159.2 (Joules/Mol)
                                  116.19483 (Kcal/Mol)
 Warning -- explicit consideration of  19 degrees of freedom as
           vibrations may cause significant error
 Vibrational temperatures:     66.15    77.70   149.33   156.19   253.95
          (Kelvin)            321.00   390.40   392.66   430.58   551.31
                              590.33   633.20   697.01   723.83   724.08
                              729.55   765.58   800.33   830.01   922.19
                             1024.41  1029.09  1050.92  1064.13  1078.07
                             1106.56  1167.44  1186.36  1238.96  1286.48
                             1312.59  1371.08  1385.70  1402.92  1437.09
                             1492.95  1503.20  1561.79  1598.88  1629.20
                             1653.42  1688.55  1693.58  1780.19  1797.78
                             1844.60  1860.29  1970.79  1973.88  2016.68
                             2073.67  2113.72  2147.91  2210.69  2222.81
                             2267.95  2290.94  2317.59  2367.32  2428.12
                             2981.39  4613.04  4620.90  4628.33  4636.46
                             4644.84  4647.19  4654.16  4663.01

 Zero-point correction=                           0.185168 (Hartree/Particle)
 Thermal correction to Energy=                    0.197454
 Thermal correction to Enthalpy=                  0.198398
 Thermal correction to Gibbs Free Energy=         0.145712
 Sum of electronic and zero-point Energies=          -1028.506474
 Sum of electronic and thermal Energies=             -1028.494189
 Sum of electronic and thermal Enthalpies=           -1028.493245
 Sum of electronic and thermal Free Energies=        -1028.545931

                     E (Thermal)             CV                S
                      KCal/Mol        Cal/Mol-Kelvin    Cal/Mol-Kelvin
 Total                  123.904             49.090            110.886
 Electronic               0.000              0.000              0.000
 Translational            0.889              2.981             42.162
 Rotational               0.889              2.981             32.498
 Vibrational            122.127             43.128             36.226
 Vibration     1          0.595              1.979              4.983
 Vibration     2          0.596              1.976              4.665
 Vibration     3          0.605              1.946              3.382
 Vibration     4          0.606              1.942              3.295
 Vibration     5          0.628              1.871              2.365
 Vibration     6          0.649              1.806              1.934
 Vibration     7          0.675              1.726              1.588
 Vibration     8          0.676              1.723              1.578
 Vibration     9          0.692              1.675              1.421
 Vibration    10          0.752              1.506              1.027
 Vibration    11          0.774              1.448              0.926
 Vibration    12          0.800              1.383              0.826
 Vibration    13          0.841              1.285              0.698
 Vibration    14          0.858              1.243              0.650
 Vibration    15          0.859              1.243              0.650
 Vibration    16          0.862              1.234              0.641
 Vibration    17          0.887              1.179              0.583
 Vibration    18          0.912              1.126              0.531
 Vibration    19          0.933              1.081              0.491

 Optimization completed.
    -- Stationary point found.
 Normal termination of Gaussian 16 at Mon Jul 13 14:36:49 2020.
