 Gaussian 16, Revision C.01,
 Gaussian 16:  ES64L-G16RevC.01  3-Jul-2019

 ----------------------------------------------------------------------
 #p opt=addgic freq td wb97xd/cc-pvdz nosymm int=ultrafine scrf=(solven
 t=CarbonTetraChloride)
 ----------------------------------------------------------------------

 ------------------------------------------------
 NM 2D-scan of HBT TD-WB97XD pVDZ in CTC Relaxed.
 ------------------------------------------------
 Symbolic Z-matrix:
 Charge =  0 Multiplicity = 1

 SCF Done:  E(RwB97XD) =  -1028.57063782     A.U. after   15 cycles
 Total Energy, E(TD-HF/TD-DFT) =  -1028.43859537
 SCF Done:  E(RwB97XD) =  -1028.77068064     A.U. after   13 cycles
 Total Energy, E(TD-HF/TD-DFT) =  -1028.64047203
 SCF Done:  E(RwB97XD) =  -1028.80384250     A.U. after   15 cycles
 Total Energy, E(TD-HF/TD-DFT) =  -1028.67816027
 SCF Done:  E(RwB97XD) =  -1028.81674844     A.U. after   13 cycles
 Total Energy, E(TD-HF/TD-DFT) =  -1028.68943011
 SCF Done:  E(RwB97XD) =  -1028.81741445     A.U. after   11 cycles
 Total Energy, E(TD-HF/TD-DFT) =  -1028.68960897
 SCF Done:  E(RwB97XD) =  -1028.81757825     A.U. after    9 cycles
 Total Energy, E(TD-HF/TD-DFT) =  -1028.68962053
 Optimization completed.
    -- Stationary point found.
 Normal termination of Gaussian 16 at Mon Jul 13 20:19:16 2020.

 ----------------------------------------------------------------------
 #P Geom=AllCheck Guess=TCheck SCRF=Check GenChk RwB97XD TD(FC,Read)/CC
 -pVDZ Freq
 ----------------------------------------------------------------------

 Structure from the checkpoint file:  "config_1_11.chk"
 ------------------------------------------------
 NM 2D-scan of HBT TD-WB97XD pVDZ in CTC Relaxed.
 ------------------------------------------------
 Charge =  0 Multiplicity = 1

                          Input orientation:
 ---------------------------------------------------------------------
 Center     Atomic      Atomic             Coordinates (Angstroms)
 Number     Number       Type             X           Y           Z
 ---------------------------------------------------------------------
      1          6           0        1.625857   -3.311833   -0.000025
      2          6           0        0.961264   -2.085412   -0.000014
      3          6           0        1.700970   -0.847751   -0.000007
      4          6           0        3.122680   -0.887450   -0.000011
      5          6           0        3.759294   -2.106319   -0.000023
      6          6           0        3.021921   -3.313908   -0.000030
      7          1           0        1.071804   -4.251406   -0.000030
      8          1           0        3.671889    0.054540   -0.000005
      9          1           0        4.849957   -2.147969   -0.000027
     10          1           0        3.553847   -4.266568   -0.000040
     11          7           0        0.991335    0.279978    0.000003
     12         16           0       -0.754390   -1.737157   -0.000005
     13          6           0       -1.315269    1.060181    0.000008
     14          6           0       -2.726623    0.812653    0.000003
     15          6           0       -0.920827    2.485397    0.000026
     16          6           0       -3.642803    1.845250    0.000025
     17          1           0       -3.078408   -0.220569   -0.000015
     18          6           0       -1.877546    3.501282    0.000051
     19          6           0       -3.229702    3.199330    0.000053
     20          1           0       -4.708859    1.612808    0.000023
     21          1           0       -1.511371    4.528257    0.000066
     22          1           0       -3.970575    3.999307    0.000072
     23          6           0       -0.348171    0.036789    0.000002
     24          8           0        0.341024    2.897306    0.000017
     25          1           0        0.932925    2.111845   -0.000002
 ---------------------------------------------------------------------

 SCF Done:  E(RwB97XD) =  -1028.81757825     A.U. after    1 cycles

 Excitation energies and oscillator strengths:

 Excited state symmetry could not be determined.
 Excited State   1:      Singlet-?Sym    3.4819 eV  356.08 nm  f=0.7542  <S**2>=0.000
      59 -> 60         0.68958
 This state for optimization and/or second-order correction.
 Total Energy, E(TD-HF/TD-DFT) =  -1028.68962052
 Copying the excited state density for this state as the 1-particle RhoCI density.

 Excited state symmetry could not be determined.
 Excited State   2:      Singlet-?Sym    4.3848 eV  282.76 nm  f=0.1307  <S**2>=0.000
      57 -> 60        -0.44197
      58 -> 60        -0.48671
      58 -> 63        -0.10143
      59 -> 62         0.16370

 Excited state symmetry could not be determined.
 Excited State   3:      Singlet-?Sym    4.5301 eV  273.69 nm  f=0.0875  <S**2>=0.000
      57 -> 60         0.45452
      57 -> 63        -0.12052
      58 -> 60        -0.42591
      59 -> 61         0.22284

 Alpha  occ. eigenvalues --  -89.08849 -19.29321 -14.46894 -10.39699 -10.38446
 Alpha  occ. eigenvalues --  -10.34738 -10.34702 -10.33066 -10.32418 -10.32084
 Alpha  occ. eigenvalues --  -10.32036 -10.31315 -10.31181 -10.31100 -10.30623
 Alpha  occ. eigenvalues --  -10.30451  -8.10738  -6.05590  -6.05258  -6.04795
 Alpha  occ. eigenvalues --   -1.17625  -1.07925  -0.96720  -0.95558  -0.91482
 Alpha  occ. eigenvalues --   -0.88751  -0.85169  -0.84350  -0.82150  -0.76017
 Alpha  occ. eigenvalues --   -0.71207  -0.70111  -0.69110  -0.68243  -0.63426
 Alpha  occ. eigenvalues --   -0.60068  -0.58986  -0.58428  -0.56056  -0.54449
 Alpha  occ. eigenvalues --   -0.53439  -0.53215  -0.52702  -0.50666  -0.50557
 Alpha  occ. eigenvalues --   -0.49050  -0.48028  -0.45848  -0.45482  -0.44751
 Alpha  occ. eigenvalues --   -0.43838  -0.42972  -0.42016  -0.39832  -0.37645
 Alpha  occ. eigenvalues --   -0.36405  -0.31962  -0.31664  -0.27946
 Alpha virt. eigenvalues --   -0.01905   0.05307   0.06848   0.07088   0.07329
 Alpha virt. eigenvalues --    0.11336   0.13542   0.15149   0.16154   0.17929
 Alpha virt. eigenvalues --    0.18469   0.20539   0.21617   0.22285   0.22837

 Mulliken charges:
               1
     1  C    0.010909
     2  C   -0.212715
     3  C    0.208955
     4  C   -0.016026
     5  C    0.007967
     6  C   -0.009307
     7  H    0.017594
     8  H    0.013786
     9  H    0.017287
    10  H    0.019715
    11  N   -0.341579
    12  S    0.143846
    13  C   -0.072737
    14  C   -0.020106
    15  C    0.072996
    16  C   -0.007781
    17  H    0.017504
    18  C    0.018459
    19  C    0.020284
    20  H    0.012472
    21  H    0.020604
    22  H    0.023221
    23  C    0.073258
    24  O   -0.180510
    25  H    0.161905
 Sum of Mulliken charges =  -0.00000

 Dipole moment (field-independent basis, Debye):
    X=             -0.5966    Y=             -1.5228    Z=             -0.0000  Tot=              1.6354
 Quadrupole moment (field-independent basis, Debye-Ang):
   XX=            -83.0916   YY=            -88.9617   ZZ=           -104.4923
   XY=             -6.7392   XZ=             -0.0002   YZ=              0.0002

  Exact polarizability:     407.736    -200.657     400.811      -0.003       0.004      63.498
 Approx polarizability:     281.342     -37.666     263.925      -0.001       0.002      82.436

                      1                      2                      3
                      A                      A                      A
 Frequencies --     33.0047                75.4870               103.6632
 Red. masses --      5.9504                 5.2962                 5.6400
 Frc consts  --      0.0038                 0.0178                 0.0357
 IR Inten    --      1.1091                 0.0081                 1.9243

                      4                      5                      6
                      A                      A                      A
 Frequencies --    108.4142               183.7465               224.8249
 Red. masses --      4.9399                 6.8858                 5.4879
 Frc consts  --      0.0342                 0.1370                 0.1634
 IR Inten    --      0.4003                 1.0490                 0.0091

                      7                      8                      9
                      A                      A                      A
 Frequencies --    256.6969               269.0014               282.1541
 Red. masses --      8.1996                 4.8195                 6.5144
 Frc consts  --      0.3183                 0.2055                 0.3056
 IR Inten    --     14.1766                 0.0988                13.9707

                     10                     11                     12
                      A                      A                      A
 Frequencies --    394.4117               396.4538               439.1108
 Red. masses --      8.6640                 4.5616                 3.3219
 Frc consts  --      0.7941                 0.4224                 0.3774
 IR Inten    --     13.2552                 0.0814                 4.0970

                     13                     14                     15
                      A                      A                      A
 Frequencies --    490.0479               494.6901               500.6049
 Red. masses --      5.3650                 4.3850                 7.4795
 Frc consts  --      0.7591                 0.6322                 1.1044
 IR Inten    --     20.8232                 0.1044                 3.9436

                     16                     17                     18
                      A                      A                      A
 Frequencies --    509.6004               523.6309               547.8702
 Red. masses --      3.1458                 8.1102                 3.9680
 Frc consts  --      0.4813                 1.3102                 0.7017
 IR Inten    --      0.3798                20.3250                 0.4014

                     19                     20                     21
                      A                      A                      A
 Frequencies --    577.4407               642.6284               658.4873
 Red. masses --      7.7399                 6.5818                 9.5506
 Frc consts  --      1.5206                 1.6014                 2.4399
 IR Inten    --     70.9090                18.6984                46.8074

                     22                     23                     24
                      A                      A                      A
 Frequencies --    706.1789               718.1812               734.5310
 Red. masses --      6.6617                 1.6479                 1.8651
 Frc consts  --      1.9573                 0.5008                 0.5929
 IR Inten    --     10.4715                73.5459                40.6461

                     25                     26                     27
                      A                      A                      A
 Frequencies --    743.2970               773.1265               785.3272
 Red. masses --      1.8247                 2.0499                 1.2688
 Frc consts  --      0.5940                 0.7219                 0.4610
 IR Inten    --     21.5590                40.2328                59.5265

                     28                     29                     30
                      A                      A                      A
 Frequencies --    803.8691               827.1513               860.8054
 Red. masses --      6.5590                 1.4840                 1.4293
 Frc consts  --      2.4972                 0.5982                 0.6240
 IR Inten    --     21.9545                 0.7189                 1.5939

                     31                     32                     33
                      A                      A                      A
 Frequencies --    881.9843               926.7788               944.3482
 Red. masses --      6.3352                 1.3431                 7.2014
 Frc consts  --      2.9036                 0.6797                 3.7838
 IR Inten    --     60.6367                 2.4499                 6.8781

                     34                     35                     36
                      A                      A                      A
 Frequencies --    955.1193               971.3605              1000.2073
 Red. masses --      1.3413                 1.3385                 1.3022
 Frc consts  --      0.7209                 0.7441                 0.7676
 IR Inten    --      2.0436                 0.0169                 0.0026

                     37                     38                     39
                      A                      A                      A
 Frequencies --   1037.0512              1041.7197              1073.4113
 Red. masses --      2.1119                 2.2114                 5.1803
 Frc consts  --      1.3382                 1.4139                 3.5167
 IR Inten    --      1.2795                 5.1139                30.5250

                     40                     41                     42
                      A                      A                      A
 Frequencies --   1136.1556              1148.7933              1175.4854
 Red. masses --      1.5132                 1.3042                 1.1634
 Frc consts  --      1.1509                 1.0141                 0.9471
 IR Inten    --     37.1030                15.6839                24.5298

                     43                     44                     45
                      A                      A                      A
 Frequencies --   1180.5002              1208.1674              1227.9194
 Red. masses --      1.1788                 6.0102                 1.5128
 Frc consts  --      0.9679                 5.1689                 1.3439
 IR Inten    --     17.1534                54.6789               182.0363

                     46                     47                     48
                      A                      A                      A
 Frequencies --   1275.3012              1289.2218              1356.6901
 Red. masses --      1.6561                 2.5997                 2.8729
 Frc consts  --      1.5870                 2.5458                 3.1155
 IR Inten    --      3.6332               205.4442                92.1964

                     49                     50                     51
                      A                      A                      A
 Frequencies --   1369.3880              1398.2438              1427.6417
 Red. masses --      5.3607                 1.9259                 2.5215
 Frc consts  --      5.9228                 2.2184                 3.0279
 IR Inten    --     18.0117                61.4072               277.5303

                     52                     53                     54
                      A                      A                      A
 Frequencies --   1470.7856              1472.7205              1514.9678
 Red. masses --      2.0389                 3.0448                 5.4918
 Frc consts  --      2.5987                 3.8909                 7.4264
 IR Inten    --    125.1060                61.8285                39.1948

                     55                     56                     57
                      A                      A                      A
 Frequencies --   1538.8792              1560.2085              1577.2130
 Red. masses --      4.5943                 5.4713                 3.8689
 Frc consts  --      6.4102                 7.8470                 5.6704
 IR Inten    --     24.7516               407.9513               152.5017

                     58                     59                     60
                      A                      A                      A
 Frequencies --   1595.3746              1635.6011              1649.6943
 Red. masses --      5.3351                 5.4292                 5.8433
 Frc consts  --      8.0005                 8.5574                 9.3695
 IR Inten    --    137.4229               342.9677               227.4680

                     61                     62                     63
                      A                      A                      A
 Frequencies --   3207.8814              3208.5585              3218.9744
 Red. masses --      1.0862                 1.0862                 1.0899
 Frc consts  --      6.5857                 6.5882                 6.6538
 IR Inten    --      4.9593                 7.8814                 4.0252

                     64                     65                     66
                      A                      A                      A
 Frequencies --   3220.5931              3228.2952              3231.2906
 Red. masses --      1.0893                 1.0941                 1.0955
 Frc consts  --      6.6566                 6.7184                 6.7393
 IR Inten    --      0.6732                16.5674                14.4564

                     67                     68                     69
                      A                      A                      A
 Frequencies --   3237.5281              3240.7590              3414.3935
 Red. masses --      1.0989                 1.0989                 1.0687
 Frc consts  --      6.7861                 6.7997                 7.3406
 IR Inten    --     39.9891                26.9613                 3.0067

 - Thermochemistry -
 -------------------
 Temperature   298.150 Kelvin.  Pressure   1.00000 Atm.
 Atom     1 has atomic number  6 and mass  12.00000

 Molecular mass:   227.04049 amu.
 Principal axes and moments of inertia in atomic units:
                           1         2         3
     Eigenvalues --  1350.829796392.074217742.90399
           X           -0.69389   0.72008   0.00000
           Y            0.72008   0.69389  -0.00001
           Z            0.00001   0.00000   1.00000
 This molecule is an asymmetric top.
 Rotational symmetry number  1.
 Warning -- assumption of classical behavior for rotation
           may cause significant error
 Rotational temperatures (Kelvin)      0.06412     0.01355     0.01119
 Rotational constants (GHZ):           1.33602     0.28234     0.23308
 Zero-point vibrational energy     489952.4 (Joules/Mol)
                                  117.10143 (Kcal/Mol)
 Warning -- explicit consideration of  19 degrees of freedom as
           vibrations may cause significant error
 Vibrational temperatures:     47.49   108.61   149.15   155.98   264.37
          (Kelvin)            323.47   369.33   387.03   405.96   567.47
                              570.41   631.78   705.07   711.75   720.26
                              733.20   753.39   788.26   830.81   924.60
                              947.42  1016.03  1033.30  1056.83  1069.44
                             1112.36  1129.91  1156.59  1190.09  1238.51
                             1268.98  1333.43  1358.71  1374.20  1397.57
                             1439.08  1492.09  1498.80  1544.40  1634.67
                             1652.86  1691.26  1698.48  1738.28  1766.70
                             1834.87  1854.90  1951.97  1970.24  2011.76
                             2054.06  2116.13  2118.92  2179.70  2214.10
                             2244.79  2269.26  2295.39  2353.27  2373.54
                             4615.43  4616.40  4631.39  4633.72  4644.80
                             4649.11  4658.08  4662.73  4912.55

 Zero-point correction=                           0.186613 (Hartree/Particle)
 Thermal correction to Energy=                    0.199034
 Thermal correction to Enthalpy=                  0.199978
 Thermal correction to Gibbs Free Energy=         0.147034
 Sum of electronic and zero-point Energies=          -1028.503008
 Sum of electronic and thermal Energies=             -1028.490586
 Sum of electronic and thermal Enthalpies=           -1028.489642
 Sum of electronic and thermal Free Energies=        -1028.542586

                     E (Thermal)             CV                S
                      KCal/Mol        Cal/Mol-Kelvin    Cal/Mol-Kelvin
 Total                  124.896             49.849            111.430
 Electronic               0.000              0.000              0.000
 Translational            0.889              2.981             42.162
 Rotational               0.889              2.981             32.569
 Vibrational            123.118             43.887             36.699
 Vibration     1          0.594              1.983              5.640
 Vibration     2          0.599              1.965              4.005
 Vibration     3          0.605              1.946              3.384
 Vibration     4          0.606              1.942              3.297
 Vibration     5          0.631              1.862              2.290
 Vibration     6          0.649              1.803              1.920
 Vibration     7          0.666              1.751              1.684
 Vibration     8          0.673              1.730              1.603
 Vibration     9          0.681              1.707              1.521
 Vibration    10          0.761              1.482              0.983
 Vibration    11          0.763              1.478              0.976
 Vibration    12          0.799              1.385              0.829
 Vibration    13          0.846              1.272              0.683
 Vibration    14          0.850              1.262              0.672
 Vibration    15          0.856              1.249              0.657
 Vibration    16          0.865              1.229              0.635
 Vibration    17          0.879              1.198              0.602
 Vibration    18          0.903              1.144              0.549
 Vibration    19          0.934              1.080              0.490

 Optimization completed.
    -- Stationary point found.
 Normal termination of Gaussian 16 at Mon Jul 13 20:36:54 2020.
