 Gaussian 16, Revision C.01,
 Gaussian 16:  ES64L-G16RevC.01  3-Jul-2019

 ----------------------------------------------------------------------
 #p opt=addgic freq td wb97xd/cc-pvdz nosymm int=ultrafine scrf=(solven
 t=CarbonTetraChloride)
 ----------------------------------------------------------------------

 ------------------------------------------------
 NM 2D-scan of HBT TD-WB97XD pVDZ in CTC Relaxed.
 ------------------------------------------------
 Symbolic Z-matrix:
 Charge =  0 Multiplicity = 1

 SCF Done:  E(RwB97XD) =  -1028.79597727     A.U. after   15 cycles
 Total Energy, E(TD-HF/TD-DFT) =  -1028.67863630
 SCF Done:  E(RwB97XD) =  -1028.79847665     A.U. after   12 cycles
 Total Energy, E(TD-HF/TD-DFT) =  -1028.68044956
 SCF Done:  E(RwB97XD) =  -1028.79814691     A.U. after   11 cycles
 Total Energy, E(TD-HF/TD-DFT) =  -1028.68066614
 SCF Done:  E(RwB97XD) =  -1028.79671102     A.U. after   13 cycles
 Total Energy, E(TD-HF/TD-DFT) =  -1028.68110670
 SCF Done:  E(RwB97XD) =  -1028.79613450     A.U. after   12 cycles
 Total Energy, E(TD-HF/TD-DFT) =  -1028.68117499
 SCF Done:  E(RwB97XD) =  -1028.79570887     A.U. after   11 cycles
 Total Energy, E(TD-HF/TD-DFT) =  -1028.68120377
 SCF Done:  E(RwB97XD) =  -1028.79571557     A.U. after    7 cycles
 Total Energy, E(TD-HF/TD-DFT) =  -1028.68120476
 Optimization completed.
    -- Stationary point found.
 Normal termination of Gaussian 16 at Tue Jul 14 17:39:07 2020.

 ----------------------------------------------------------------------
 #P Geom=AllCheck Guess=TCheck SCRF=Check GenChk RwB97XD TD(FC,Read)/CC
 -pVDZ Freq
 ----------------------------------------------------------------------

 Structure from the checkpoint file:  "config_6_20.chk"
 ------------------------------------------------
 NM 2D-scan of HBT TD-WB97XD pVDZ in CTC Relaxed.
 ------------------------------------------------
 Charge =  0 Multiplicity = 1

                          Input orientation:
 ---------------------------------------------------------------------
 Center     Atomic      Atomic             Coordinates (Angstroms)
 Number     Number       Type             X           Y           Z
 ---------------------------------------------------------------------
      1          6           0        1.493174   -3.255258   -0.000077
      2          6           0        0.992264   -1.957041   -0.000088
      3          6           0        1.811974   -0.783820   -0.000038
      4          6           0        3.208167   -0.991258    0.000009
      5          6           0        3.706356   -2.292311    0.000018
      6          6           0        2.870939   -3.422908   -0.000020
      7          1           0        0.813143   -4.108163   -0.000110
      8          1           0        3.887293   -0.138012    0.000045
      9          1           0        4.788422   -2.435893    0.000060
     10          1           0        3.302440   -4.424463   -0.000004
     11          7           0        1.093241    0.401429   -0.000026
     12         16           0       -0.689660   -1.549601   -0.000155
     13          6           0       -1.282701    1.093440    0.000027
     14          6           0       -2.632093    0.702522    0.000108
     15          6           0       -0.934147    2.517267    0.000011
     16          6           0       -3.641053    1.664182    0.000085
     17          1           0       -2.902405   -0.354080    0.000181
     18          6           0       -1.989148    3.460542   -0.000001
     19          6           0       -3.320862    3.034272    0.000023
     20          1           0       -4.684932    1.347309    0.000120
     21          1           0       -1.728902    4.519748   -0.000028
     22          1           0       -4.122830    3.773276    0.000002
     23          6           0       -0.245288    0.140687   -0.000059
     24          8           0        0.317981    2.836723    0.000020
     25          1           0        1.071992    1.624432    0.000011
 ---------------------------------------------------------------------

 SCF Done:  E(RwB97XD) =  -1028.79571557     A.U. after    1 cycles

 Excitation energies and oscillator strengths:

 Excited state symmetry could not be determined.
 Excited State   1:      Singlet-?Sym    3.1160 eV  397.90 nm  f=0.4547  <S**2>=0.000
      59 -> 60         0.69471
 This state for optimization and/or second-order correction.
 Total Energy, E(TD-HF/TD-DFT) =  -1028.68120475
 Copying the excited state density for this state as the 1-particle RhoCI density.

 Excited state symmetry could not be determined.
 Excited State   2:      Singlet-?Sym    4.2907 eV  288.96 nm  f=0.2616  <S**2>=0.000
      58 -> 60         0.67842

 Excited state symmetry could not be determined.
 Excited State   3:      Singlet-?Sym    4.3487 eV  285.11 nm  f=0.0000  <S**2>=0.000
      56 -> 60         0.68712
      56 -> 62         0.10536
      56 -> 64         0.10923

 Alpha  occ. eigenvalues --  -89.09506 -19.23502 -14.51206 -10.40888 -10.37320
 Alpha  occ. eigenvalues --  -10.36665 -10.35580 -10.32771 -10.32579 -10.32092
 Alpha  occ. eigenvalues --  -10.32001 -10.31827 -10.31518 -10.31026 -10.29759
 Alpha  occ. eigenvalues --  -10.29372  -8.11635  -6.06479  -6.06129  -6.05671
 Alpha  occ. eigenvalues --   -1.12058  -1.09469  -0.97656  -0.95873  -0.93066
 Alpha  occ. eigenvalues --   -0.88948  -0.86278  -0.83580  -0.82058  -0.75724
 Alpha  occ. eigenvalues --   -0.71991  -0.71430  -0.68517  -0.67314  -0.63809
 Alpha  occ. eigenvalues --   -0.60996  -0.59439  -0.57439  -0.55218  -0.54960
 Alpha  occ. eigenvalues --   -0.54440  -0.53876  -0.52931  -0.50415  -0.49700
 Alpha  occ. eigenvalues --   -0.49190  -0.47517  -0.46584  -0.45364  -0.45145
 Alpha  occ. eigenvalues --   -0.44241  -0.43057  -0.42011  -0.40672  -0.36616
 Alpha  occ. eigenvalues --   -0.34186  -0.32973  -0.31267  -0.27116
 Alpha virt. eigenvalues --   -0.01895   0.04266   0.05922   0.07182   0.08431
 Alpha virt. eigenvalues --    0.10625   0.14460   0.14958   0.16907   0.17732
 Alpha virt. eigenvalues --    0.18632   0.20360   0.20660   0.21643   0.22307

 Mulliken charges:
               1
     1  C    0.023726
     2  C   -0.215499
     3  C    0.253263
     4  C   -0.019961
     5  C    0.005357
     6  C    0.002416
     7  H    0.022553
     8  H    0.027203
     9  H    0.024170
    10  H    0.024299
    11  N   -0.296296
    12  S    0.186961
    13  C   -0.093491
    14  C   -0.035563
    15  C    0.135800
    16  C   -0.023653
    17  H    0.022964
    18  C   -0.017776
    19  C    0.029539
    20  H    0.005053
    21  H    0.009578
    22  H    0.018867
    23  C    0.075760
    24  O   -0.414197
    25  H    0.248927
 Sum of Mulliken charges =  -0.00000

 Dipole moment (field-independent basis, Debye):
    X=              0.6218    Y=             -4.5700    Z=             -0.0000  Tot=              4.6121
 Quadrupole moment (field-independent basis, Debye-Ang):
   XX=            -82.4497   YY=            -94.0423   ZZ=           -104.2297
   XY=             -6.8969   XZ=              0.0002   YZ=             -0.0001

  Exact polarizability:     347.899    -130.417     309.882      -0.001       0.003      63.161
 Approx polarizability:     272.366     -34.209     262.687       0.001       0.001      82.163

 ******    1 imaginary frequencies (negative Signs) ******

                      1                      2                      3
                      A                      A                      A
 Frequencies --  -1218.5559                34.3640                55.8670
 Red. masses --      1.0785                 6.6587                 4.4389
 Frc consts  --      0.9435                 0.0046                 0.0082
 IR Inten    --   2132.0185                 1.4695                 0.0357

                      4                      5                      6
                      A                      A                      A
 Frequencies --    129.2141               147.6684               187.3332
 Red. masses --      5.6994                 5.6176                 6.9816
 Frc consts  --      0.0561                 0.0722                 0.1444
 IR Inten    --      0.4926                 0.7318                 0.3198

                      7                      8                      9
                      A                      A                      A
 Frequencies --    218.3212               270.6528               285.4669
 Red. masses --      5.5757                 4.6082                 7.2502
 Frc consts  --      0.1566                 0.1989                 0.3481
 IR Inten    --      0.0311                 0.0037                10.3982

                     10                     11                     12
                      A                      A                      A
 Frequencies --    362.7020               364.7853               419.3221
 Red. masses --      7.0438                 4.9587                10.0695
 Frc consts  --      0.5460                 0.3888                 1.0432
 IR Inten    --     11.4861                 0.4715                 5.9425

                     13                     14                     15
                      A                      A                      A
 Frequencies --    438.6684               465.3865               503.8804
 Red. masses --      3.2533                 4.5540                 3.1829
 Frc consts  --      0.3688                 0.5811                 0.4761
 IR Inten    --      3.4280                 1.1801                 0.3246

                     16                     17                     18
                      A                      A                      A
 Frequencies --    509.9103               547.5572               560.4815
 Red. masses --      8.8362                 8.7584                 3.8756
 Frc consts  --      1.3536                 1.5472                 0.7173
 IR Inten    --      4.3890                 2.2155                 0.2147

                     19                     20                     21
                      A                      A                      A
 Frequencies --    570.7801               585.6844               655.4696
 Red. masses --      7.3480                 6.8040                 6.6806
 Frc consts  --      1.4105                 1.3751                 1.6911
 IR Inten    --     28.7325                 1.3409                31.7396

                     22                     23                     24
                      A                      A                      A
 Frequencies --    700.4445               733.6323               743.2447
 Red. masses --      1.5256                 6.3611                 2.5090
 Frc consts  --      0.4410                 2.0172                 0.8166
 IR Inten    --     47.9722                 3.4178                20.6517

                     25                     26                     27
                      A                      A                      A
 Frequencies --    746.7353               754.4550               766.5594
 Red. masses --      8.0602                 1.7354                 1.6624
 Frc consts  --      2.6481                 0.5820                 0.5755
 IR Inten    --     38.5570                11.0959                72.0875

                     28                     29                     30
                      A                      A                      A
 Frequencies --    811.0075               835.3794               868.6326
 Red. masses --      1.9964                 6.1749                 1.3841
 Frc consts  --      0.7737                 2.5389                 0.6153
 IR Inten    --      1.0315                11.5045                 0.8602

                     31                     32                     33
                      A                      A                      A
 Frequencies --    902.9021               907.3115               954.4535
 Red. masses --      1.3876                 6.6470                 1.3747
 Frc consts  --      0.6665                 3.2239                 0.7378
 IR Inten    --      4.8636                49.6121                 0.2530

                     34                     35                     36
                      A                      A                      A
 Frequencies --    956.5926               998.4018              1002.8480
 Red. masses --      1.3526                 7.7314                 1.3004
 Frc consts  --      0.7292                 4.5407                 0.7705
 IR Inten    --      1.9771                37.9624                 0.0030

                     37                     38                     39
                      A                      A                      A
 Frequencies --   1041.6955              1050.5128              1105.4122
 Red. masses --      2.0191                 2.0698                 3.2660
 Frc consts  --      1.2909                 1.3458                 2.3513
 IR Inten    --      8.7484                 2.3442                60.1436

                     40                     41                     42
                      A                      A                      A
 Frequencies --   1135.7525              1158.0614              1172.2822
 Red. masses --      1.4618                 1.3921                 1.1848
 Frc consts  --      1.1110                 1.1000                 0.9593
 IR Inten    --      3.7139                38.5465                42.2278

                     43                     44                     45
                      A                      A                      A
 Frequencies --   1180.7105              1187.2576              1245.5945
 Red. masses --      1.2705                 1.0509                 1.8922
 Frc consts  --      1.0436                 0.8728                 1.7297
 IR Inten    --     15.6057                73.0037                71.9466

                     46                     47                     48
                      A                      A                      A
 Frequencies --   1262.8160              1300.9343              1314.4235
 Red. masses --      2.6943                 3.3150                 2.2785
 Frc consts  --      2.5315                 3.3056                 2.3193
 IR Inten    --     39.2775                11.5844                 4.4060

                     49                     50                     51
                      A                      A                      A
 Frequencies --   1350.4456              1380.5487              1402.3953
 Red. masses --      6.2446                 2.7565                 3.6433
 Frc consts  --      6.7098                 3.0954                 4.2217
 IR Inten    --    196.4380               112.9948               108.0579

                     52                     53                     54
                      A                      A                      A
 Frequencies --   1440.3002              1471.9131              1499.3438
 Red. masses --      2.8112                 3.0679                 3.0981
 Frc consts  --      3.4359                 3.9161                 4.1034
 IR Inten    --    421.0332                19.6438                36.2192

                     55                     56                     57
                      A                      A                      A
 Frequencies --   1504.9144              1554.1193              1569.6431
 Red. masses --      4.5494                 4.7572                 5.1774
 Frc consts  --      6.0705                 6.7697                 7.5156
 IR Inten    --    295.4253                64.8572                 8.5878

                     58                     59                     60
                      A                      A                      A
 Frequencies --   1617.5436              1625.7531              1656.9178
 Red. masses --      5.9084                 5.9647                 6.3187
 Frc consts  --      9.1082                 9.2885                10.2207
 IR Inten    --     13.7567               805.7892                97.0424

                     61                     62                     63
                      A                      A                      A
 Frequencies --   1915.1214              3206.9133              3211.2284
 Red. masses --      1.1008                 1.0861                 1.0860
 Frc consts  --      2.3788                 6.5813                 6.5982
 IR Inten    --    387.6824                 4.7784                12.5941

                     64                     65                     66
                      A                      A                      A
 Frequencies --   3216.1666              3218.6425              3226.6170
 Red. masses --      1.0903                 1.0884                 1.0953
 Frc consts  --      6.6446                 6.6435                 6.7184
 IR Inten    --      2.1739                19.5858                 8.6922

                     67                     68                     69
                      A                      A                      A
 Frequencies --   3228.8522              3234.6848              3238.7634
 Red. masses --      1.0941                 1.0996                 1.0986
 Frc consts  --      6.7206                 6.7789                 6.7894
 IR Inten    --     12.5804                20.8199                18.5425

 - Thermochemistry -
 -------------------
 Temperature   298.150 Kelvin.  Pressure   1.00000 Atm.
 Atom     1 has atomic number  6 and mass  12.00000

 Molecular mass:   227.04049 amu.
 Principal axes and moments of inertia in atomic units:
                           1         2         3
     Eigenvalues --  1279.829416303.701167583.53057
           X           -0.70301   0.71118  -0.00001
           Y            0.71118   0.70301  -0.00002
           Z            0.00001   0.00002   1.00000
 This molecule is an asymmetric top.
 Rotational symmetry number  1.
 Warning -- assumption of classical behavior for rotation
           may cause significant error
 Rotational temperatures (Kelvin)      0.06768     0.01374     0.01142
 Rotational constants (GHZ):           1.41014     0.28630     0.23798
    1 imaginary frequencies ignored.
 Zero-point vibrational energy     478042.1 (Joules/Mol)
                                  114.25480 (Kcal/Mol)
 Warning -- explicit consideration of  19 degrees of freedom as
           vibrations may cause significant error
 Vibrational temperatures:     49.44    80.38   185.91   212.46   269.53
          (Kelvin)            314.12   389.41   410.72   521.85   524.84
                              603.31   631.15   669.59   724.97   733.65
                              787.81   806.41   821.23   842.67   943.07
                             1007.78  1055.53  1069.36  1074.39  1085.49
                             1102.91  1166.86  1201.92  1249.77  1299.07
                             1305.42  1373.25  1376.32  1436.48  1442.87
                             1498.77  1511.45  1590.44  1634.09  1666.19
                             1686.65  1698.78  1708.20  1792.13  1816.91
                             1871.75  1891.16  1942.99  1986.30  2017.73
                             2072.27  2117.75  2157.22  2165.24  2236.03
                             2258.37  2327.28  2339.10  2383.94  2755.43
                             4614.03  4620.24  4627.35  4630.91  4642.38
                             4645.60  4653.99  4659.86

 Zero-point correction=                           0.182077 (Hartree/Particle)
 Thermal correction to Energy=                    0.194086
 Thermal correction to Enthalpy=                  0.195030
 Thermal correction to Gibbs Free Energy=         0.142916
 Sum of electronic and zero-point Energies=          -1028.499128
 Sum of electronic and thermal Energies=             -1028.487119
 Sum of electronic and thermal Enthalpies=           -1028.486175
 Sum of electronic and thermal Free Energies=        -1028.538288

                     E (Thermal)             CV                S
                      KCal/Mol        Cal/Mol-Kelvin    Cal/Mol-Kelvin
 Total                  121.791             48.427            109.682
 Electronic               0.000              0.000              0.000
 Translational            0.889              2.981             42.162
 Rotational               0.889              2.981             32.481
 Vibrational            120.013             42.466             35.039
 Vibration     1          0.594              1.983              5.560
 Vibration     2          0.596              1.975              4.598
 Vibration     3          0.612              1.924              2.958
 Vibration     4          0.617              1.905              2.702
 Vibration     5          0.632              1.857              2.254
 Vibration     6          0.646              1.813              1.973
 Vibration     7          0.674              1.727              1.592
 Vibration     8          0.683              1.701              1.501
 Vibration     9          0.737              1.549              1.110
 Vibration    10          0.738              1.545              1.102
 Vibration    11          0.782              1.428              0.894
 Vibration    12          0.799              1.386              0.831
 Vibration    13          0.823              1.327              0.751
 Vibration    14          0.859              1.241              0.648
 Vibration    15          0.865              1.228              0.634
 Vibration    16          0.903              1.145              0.549
 Vibration    17          0.916              1.117              0.523
 Vibration    18          0.927              1.094              0.503
 Vibration    19          0.943              1.062              0.475

 Optimization completed.
    -- Stationary point found.
 Normal termination of Gaussian 16 at Tue Jul 14 17:56:49 2020.
