 Gaussian 16, Revision C.01,
 Gaussian 16:  ES64L-G16RevC.01  3-Jul-2019

 ----------------------------------------------------------------------
 #p opt=addgic freq td wb97xd/cc-pvdz nosymm int=ultrafine scrf=(solven
 t=CarbonTetraChloride)
 ----------------------------------------------------------------------

 ------------------------------------------------
 NM 2D-scan of HBT TD-WB97XD pVDZ in CTC Relaxed.
 ------------------------------------------------
 Symbolic Z-matrix:
 Charge =  0 Multiplicity = 1

 SCF Done:  E(RwB97XD) =  -1028.65125842     A.U. after   16 cycles
 Total Energy, E(TD-HF/TD-DFT) =  -1028.54575833
 SCF Done:  E(RwB97XD) =  -1028.76226504     A.U. after   14 cycles
 Total Energy, E(TD-HF/TD-DFT) =  -1028.66031401
 SCF Done:  E(RwB97XD) =  -1028.77330766     A.U. after   14 cycles
 Total Energy, E(TD-HF/TD-DFT) =  -1028.67511783
 SCF Done:  E(RwB97XD) =  -1028.79529335     A.U. after   14 cycles
 Total Energy, E(TD-HF/TD-DFT) =  -1028.69430904
 SCF Done:  E(RwB97XD) =  -1028.79516965     A.U. after   11 cycles
 Total Energy, E(TD-HF/TD-DFT) =  -1028.69456042
 SCF Done:  E(RwB97XD) =  -1028.79522781     A.U. after   10 cycles
 Total Energy, E(TD-HF/TD-DFT) =  -1028.69457432
 Optimization completed.
    -- Stationary point found.
 Normal termination of Gaussian 16 at Mon Jul 13 19:28:48 2020.

 ----------------------------------------------------------------------
 #P Geom=AllCheck Guess=TCheck SCRF=Check GenChk RwB97XD TD(FC,Read)/CC
 -pVDZ Freq
 ----------------------------------------------------------------------

 Structure from the checkpoint file:  "config_11_14.chk"
 ------------------------------------------------
 NM 2D-scan of HBT TD-WB97XD pVDZ in CTC Relaxed.
 ------------------------------------------------
 Charge =  0 Multiplicity = 1

                          Input orientation:
 ---------------------------------------------------------------------
 Center     Atomic      Atomic             Coordinates (Angstroms)
 Number     Number       Type             X           Y           Z
 ---------------------------------------------------------------------
      1          6           0        1.605464   -3.294839    0.000017
      2          6           0        1.014527   -2.038200    0.000001
      3          6           0        1.790161   -0.876393   -0.000035
      4          6           0        3.189645   -0.943869   -0.000055
      5          6           0        3.775090   -2.206880   -0.000039
      6          6           0        2.997882   -3.371176   -0.000004
      7          1           0        0.994746   -4.197846    0.000044
      8          1           0        3.793821   -0.035867   -0.000083
      9          1           0        4.863260   -2.286000   -0.000053
     10          1           0        3.483043   -4.347572    0.000008
     11          7           0        0.997564    0.236522   -0.000052
     12         16           0       -0.701801   -1.630380    0.000019
     13          6           0       -1.364237    1.111393    0.000006
     14          6           0       -2.714227    0.813362   -0.000021
     15          6           0       -0.922852    2.520473    0.000066
     16          6           0       -3.707666    1.839698    0.000004
     17          1           0       -3.047217   -0.227870   -0.000067
     18          6           0       -1.966598    3.510337    0.000080
     19          6           0       -3.332882    3.174474    0.000052
     20          1           0       -4.760284    1.552753   -0.000017
     21          1           0       -1.647271    4.554570    0.000127
     22          1           0       -4.091936    3.958351    0.000069
     23          6           0       -0.359135    0.074953   -0.000015
     24          8           0        0.301682    2.774514    0.000100
     25          1           0        1.456778    1.120843   -0.000063
 ---------------------------------------------------------------------

 SCF Done:  E(RwB97XD) =  -1028.79522781     A.U. after    1 cycles

 Excitation energies and oscillator strengths:

 Excited state symmetry could not be determined.
 Excited State   1:      Singlet-?Sym    2.7389 eV  452.68 nm  f=0.4379  <S**2>=0.000
      59 -> 60         0.69754
 This state for optimization and/or second-order correction.
 Total Energy, E(TD-HF/TD-DFT) =  -1028.69457435
 Copying the excited state density for this state as the 1-particle RhoCI density.

 Excited state symmetry could not be determined.
 Excited State   2:      Singlet-?Sym    3.3623 eV  368.75 nm  f=0.0000  <S**2>=0.000
      58 -> 60         0.68394
      58 -> 62         0.11494
      58 -> 64         0.10549

 Excited state symmetry could not be determined.
 Excited State   3:      Singlet-?Sym    4.2888 eV  289.09 nm  f=0.4282  <S**2>=0.000
      57 -> 60         0.68348

 Alpha  occ. eigenvalues --  -89.10492 -19.20177 -14.53071 -10.42541 -10.37483
 Alpha  occ. eigenvalues --  -10.36195 -10.35330 -10.33535 -10.33369 -10.32858
 Alpha  occ. eigenvalues --  -10.32557 -10.31357 -10.30830 -10.30578 -10.29025
 Alpha  occ. eigenvalues --  -10.28137  -8.12526  -6.07404  -6.07016  -6.06547
 Alpha  occ. eigenvalues --   -1.13310  -1.09018  -0.98655  -0.95686  -0.93285
 Alpha  occ. eigenvalues --   -0.89076  -0.86865  -0.84008  -0.80747  -0.75904
 Alpha  occ. eigenvalues --   -0.74379  -0.72104  -0.69282  -0.67509  -0.64984
 Alpha  occ. eigenvalues --   -0.61076  -0.59777  -0.56510  -0.56249  -0.56044
 Alpha  occ. eigenvalues --   -0.55099  -0.53735  -0.53054  -0.50428  -0.48694
 Alpha  occ. eigenvalues --   -0.48664  -0.48331  -0.47071  -0.45590  -0.44875
 Alpha  occ. eigenvalues --   -0.44042  -0.42806  -0.42250  -0.39867  -0.36927
 Alpha  occ. eigenvalues --   -0.33824  -0.31534  -0.30732  -0.25377
 Alpha virt. eigenvalues --   -0.02212   0.03553   0.05645   0.06644   0.09706
 Alpha virt. eigenvalues --    0.10905   0.13403   0.14526   0.16038   0.16778
 Alpha virt. eigenvalues --    0.17978   0.19820   0.20796   0.21243   0.22679

 Mulliken charges:
               1
     1  C    0.017630
     2  C   -0.241470
     3  C    0.221465
     4  C   -0.010389
     5  C    0.012428
     6  C    0.003636
     7  H    0.025745
     8  H    0.032336
     9  H    0.029128
    10  H    0.027782
    11  N   -0.096357
    12  S    0.200219
    13  C   -0.071918
    14  C   -0.037864
    15  C    0.104057
    16  C   -0.037795
    17  H    0.007878
    18  C   -0.052125
    19  C    0.034742
    20  H    0.000718
    21  H   -0.001152
    22  H    0.013671
    23  C    0.080706
    24  O   -0.385468
    25  H    0.122398
 Sum of Mulliken charges =  -0.00000

 Dipole moment (field-independent basis, Debye):
    X=              2.5453    Y=             -6.1779    Z=             -0.0003  Tot=              6.6817
 Quadrupole moment (field-independent basis, Debye-Ang):
   XX=            -81.3501   YY=            -97.0549   ZZ=           -104.1449
   XY=             -6.0016   XZ=             -0.0004   YZ=             -0.0006

  Exact polarizability:     346.721    -118.590     291.525      -0.001       0.002      63.256
 Approx polarizability:     275.411     -39.362     264.482      -0.001       0.002      81.971

 ******    1 imaginary frequencies (negative Signs) ******

                      1                      2                      3
                      A                      A                      A
 Frequencies --    -73.6254                49.0398                93.6504
 Red. masses --      5.0996                 6.4671                 5.7447
 Frc consts  --      0.0163                 0.0092                 0.0297
 IR Inten    --      2.7349                 1.0761                 9.2168

                      4                      5                      6
                      A                      A                      A
 Frequencies --    102.2859               176.2278               225.5900
 Red. masses --      5.4951                 5.2203                 5.6900
 Frc consts  --      0.0339                 0.0955                 0.1706
 IR Inten    --      0.2191                 0.0131                 1.7910

                      7                      8                      9
                      A                      A                      A
 Frequencies --    257.4758               269.1070               280.9651
 Red. masses --      8.2772                 4.0543                 7.3625
 Frc consts  --      0.3233                 0.1730                 0.3424
 IR Inten    --      2.8656                 4.0969                 1.7777

                     10                     11                     12
                      A                      A                      A
 Frequencies --    340.1597               375.5122               417.3462
 Red. masses --      4.2706                 6.9878                 3.3683
 Frc consts  --      0.2911                 0.5805                 0.3457
 IR Inten    --      1.4317                 9.7202                12.1891

                     13                     14                     15
                      A                      A                      A
 Frequencies --    442.3004               499.4618               508.4170
 Red. masses --      4.0024                 8.1045                 1.3017
 Frc consts  --      0.4613                 1.1912                 0.1983
 IR Inten    --      7.1107                15.2403                44.0820

                     16                     17                     18
                      A                      A                      A
 Frequencies --    516.3522               536.6123               542.4514
 Red. masses --      2.7095                 6.0442                 8.9267
 Frc consts  --      0.4256                 1.0254                 1.5476
 IR Inten    --     11.3711                30.5602                22.5979

                     19                     20                     21
                      A                      A                      A
 Frequencies --    560.5797               565.6563               637.5848
 Red. masses --      3.5937                 7.3002                 6.1403
 Frc consts  --      0.6654                 1.3762                 1.4707
 IR Inten    --      0.6876                 7.6309                17.4436

                     22                     23                     24
                      A                      A                      A
 Frequencies --    690.4821               708.2200               737.9674
 Red. masses --      1.5078                 5.6266                 7.5492
 Frc consts  --      0.4235                 1.6628                 2.4223
 IR Inten    --     31.0156                 1.6657                 5.8449

                     25                     26                     27
                      A                      A                      A
 Frequencies --    744.4266               758.2239               766.8340
 Red. masses --      2.4317                 1.6888                 1.7178
 Frc consts  --      0.7940                 0.5720                 0.5951
 IR Inten    --     21.0964                10.0282                85.8172

                     28                     29                     30
                      A                      A                      A
 Frequencies --    820.2028               837.4333               865.4642
 Red. masses --      6.2138                 1.9878                 1.3841
 Frc consts  --      2.4629                 0.8213                 0.6108
 IR Inten    --     15.9541                 1.2449                 1.2410

                     31                     32                     33
                      A                      A                      A
 Frequencies --    885.3539               900.3955               952.6735
 Red. masses --      4.8156                 1.4452                 1.3586
 Frc consts  --      2.2240                 0.6903                 0.7265
 IR Inten    --      0.5868                 9.0825                 0.3989

                     34                     35                     36
                      A                      A                      A
 Frequencies --    955.5209               957.3732              1003.4460
 Red. masses --      4.2135                 1.3525                 1.2968
 Frc consts  --      2.2666                 0.7304                 0.7693
 IR Inten    --      1.0861                 1.7445                 0.0028

                     37                     38                     39
                      A                      A                      A
 Frequencies --   1044.0963              1054.2534              1088.8064
 Red. masses --      2.2210                 2.1389                 3.9100
 Frc consts  --      1.4265                 1.4006                 2.7311
 IR Inten    --      0.6125                 6.2209                 1.8115

                     40                     41                     42
                      A                      A                      A
 Frequencies --   1093.6892              1135.7329              1152.4015
 Red. masses --      1.7070                 1.4863                 1.3511
 Frc consts  --      1.2030                 1.1296                 1.0572
 IR Inten    --     66.7591                90.3135                 6.2655

                     43                     44                     45
                      A                      A                      A
 Frequencies --   1162.7883              1180.1862              1238.4786
 Red. masses --      1.2060                 1.1469                 2.8501
 Frc consts  --      0.9607                 0.9412                 2.5756
 IR Inten    --      8.0839                10.0115                21.0609

                     46                     47                     48
                      A                      A                      A
 Frequencies --   1248.7292              1298.5133              1335.8798
 Red. masses --      2.3965                 1.5936                 4.1929
 Frc consts  --      2.2017                 1.5831                 4.4086
 IR Inten    --     32.9100                 2.5394                 9.1473

                     49                     50                     51
                      A                      A                      A
 Frequencies --   1360.7932              1400.1311              1403.9944
 Red. masses --      2.7348                 5.0162                 2.4006
 Frc consts  --      2.9838                 5.7938                 2.7880
 IR Inten    --     65.9698                63.4768                33.3422

                     52                     53                     54
                      A                      A                      A
 Frequencies --   1441.5096              1468.4334              1515.3295
 Red. masses --      2.7809                 3.4421                 3.1059
 Frc consts  --      3.4046                 4.3730                 4.2020
 IR Inten    --    121.9970                 3.3274                63.7103

                     55                     56                     57
                      A                      A                      A
 Frequencies --   1518.8271              1545.1732              1607.8626
 Red. masses --      3.3960                 5.2596                 5.2123
 Frc consts  --      4.6156                 7.3987                 7.9392
 IR Inten    --     27.5031               191.4522               105.8508

                     58                     59                     60
                      A                      A                      A
 Frequencies --   1636.1390              1666.1906              1673.3037
 Red. masses --      8.4021                 6.9602                 7.2749
 Frc consts  --     13.2519                11.3846                12.0013
 IR Inten    --    151.7454                70.5405                62.4541

                     61                     62                     63
                      A                      A                      A
 Frequencies --   3191.2324              3208.4684              3213.5759
 Red. masses --      1.0889                 1.0863                 1.0862
 Frc consts  --      6.5339                 6.5888                 6.6091
 IR Inten    --     27.1013                 2.7604                 4.3486

                     64                     65                     66
                      A                      A                      A
 Frequencies --   3219.5007              3224.2728              3232.3026
 Red. masses --      1.0915                 1.0901                 1.0959
 Frc consts  --      6.6658                 6.6771                 6.7461
 IR Inten    --     14.9205                 2.7636                 6.5859

                     67                     68                     69
                      A                      A                      A
 Frequencies --   3233.5153              3240.4991              3812.0707
 Red. masses --      1.0990                 1.0995                 1.0801
 Frc consts  --      6.7704                 6.8025                 9.2480
 IR Inten    --     28.0544                12.3952               265.7043

 - Thermochemistry -
 -------------------
 Temperature   298.150 Kelvin.  Pressure   1.00000 Atm.
 Atom     1 has atomic number  6 and mass  12.00000

 Molecular mass:   227.04049 amu.
 Principal axes and moments of inertia in atomic units:
                           1         2         3
     Eigenvalues --  1267.715306521.578187789.29348
           X           -0.70512   0.70909   0.00000
           Y            0.70909   0.70512  -0.00001
           Z            0.00001   0.00001   1.00000
 This molecule is an asymmetric top.
 Rotational symmetry number  1.
 Warning -- assumption of classical behavior for rotation
           may cause significant error
 Rotational temperatures (Kelvin)      0.06832     0.01328     0.01112
 Rotational constants (GHZ):           1.42362     0.27673     0.23170
    1 imaginary frequencies ignored.
 Zero-point vibrational energy     489437.0 (Joules/Mol)
                                  116.97825 (Kcal/Mol)
 Warning -- explicit consideration of  19 degrees of freedom as
           vibrations may cause significant error
 Vibrational temperatures:     70.56   134.74   147.17   253.55   324.57
          (Kelvin)            370.45   387.18   404.25   489.41   540.28
                              600.47   636.37   718.61   731.50   742.92
                              772.07   780.47   806.55   813.85   917.34
                              993.45  1018.97  1061.77  1071.06  1090.92
                             1103.30  1180.09  1204.88  1245.21  1273.83
                             1295.47  1370.68  1374.78  1377.45  1443.73
                             1502.22  1516.84  1566.55  1573.57  1634.07
                             1658.05  1672.99  1698.02  1781.89  1796.64
                             1868.27  1922.03  1957.88  2014.48  2020.03
                             2074.01  2112.75  2180.22  2185.25  2223.16
                             2313.36  2354.04  2397.28  2407.51  4591.47
                             4616.27  4623.62  4632.14  4639.01  4650.56
                             4652.31  4662.36  5484.72

 Zero-point correction=                           0.186417 (Hartree/Particle)
 Thermal correction to Energy=                    0.198267
 Thermal correction to Enthalpy=                  0.199211
 Thermal correction to Gibbs Free Energy=         0.148040
 Sum of electronic and zero-point Energies=          -1028.508158
 Sum of electronic and thermal Energies=             -1028.496307
 Sum of electronic and thermal Enthalpies=           -1028.495363
 Sum of electronic and thermal Free Energies=        -1028.546535

                     E (Thermal)             CV                S
                      KCal/Mol        Cal/Mol-Kelvin    Cal/Mol-Kelvin
 Total                  124.414             48.554            107.699
 Electronic               0.000              0.000              0.000
 Translational            0.889              2.981             42.162
 Rotational               0.889              2.981             32.532
 Vibrational            122.637             42.593             33.005
 Vibration     1          0.595              1.978              4.856
 Vibration     2          0.603              1.954              3.582
 Vibration     3          0.604              1.947              3.410
 Vibration     4          0.628              1.872              2.368
 Vibration     5          0.650              1.802              1.914
 Vibration     6          0.667              1.750              1.679
 Vibration     7          0.673              1.730              1.602
 Vibration     8          0.681              1.709              1.528
 Vibration     9          0.720              1.595              1.211
 Vibration    10          0.746              1.522              1.057
 Vibration    11          0.780              1.433              0.901
 Vibration    12          0.802              1.378              0.819
 Vibration    13          0.855              1.251              0.659
 Vibration    14          0.864              1.231              0.637
 Vibration    15          0.871              1.214              0.618
 Vibration    16          0.892              1.169              0.573
 Vibration    17          0.898              1.156              0.560
 Vibration    18          0.916              1.117              0.523
 Vibration    19          0.922              1.106              0.513

 Optimization completed.
    -- Stationary point found.
 Normal termination of Gaussian 16 at Mon Jul 13 19:47:17 2020.
