 Gaussian 16, Revision C.01,
 Gaussian 16:  ES64L-G16RevC.01  3-Jul-2019

 ----------------------------------------------------------------------
 #p opt=addgic freq td wb97xd/cc-pvdz nosymm int=ultrafine scrf=(solven
 t=CarbonTetraChloride)
 ----------------------------------------------------------------------

 ------------------------------------------------
 NM 2D-scan of HBT TD-WB97XD pVDZ in CTC Relaxed.
 ------------------------------------------------
 Symbolic Z-matrix:
 Charge =  0 Multiplicity = 1

 SCF Done:  E(RwB97XD) =  -1028.69000527     A.U. after   15 cycles
 Total Energy, E(TD-HF/TD-DFT) =  -1028.55856012
 SCF Done:  E(RwB97XD) =  -1028.80131887     A.U. after   13 cycles
 Total Energy, E(TD-HF/TD-DFT) =  -1028.67153375
 SCF Done:  E(RwB97XD) =  -1028.79885262     A.U. after   15 cycles
 Total Energy, E(TD-HF/TD-DFT) =  -1028.67349719
 SCF Done:  E(RwB97XD) =  -1028.81818548     A.U. after   13 cycles
 Total Energy, E(TD-HF/TD-DFT) =  -1028.69070393
 SCF Done:  E(RwB97XD) =  -1028.81905865     A.U. after   11 cycles
 Total Energy, E(TD-HF/TD-DFT) =  -1028.69087998
 SCF Done:  E(RwB97XD) =  -1028.81931158     A.U. after   10 cycles
 Total Energy, E(TD-HF/TD-DFT) =  -1028.69091715
 SCF Done:  E(RwB97XD) =  -1028.81926509     A.U. after    9 cycles
 Total Energy, E(TD-HF/TD-DFT) =  -1028.69091986
 Optimization completed.
    -- Stationary point found.
 Normal termination of Gaussian 16 at Tue Jul 14 13:36:49 2020.

 ----------------------------------------------------------------------
 #P Geom=AllCheck Guess=TCheck SCRF=Check GenChk RwB97XD TD(FC,Read)/CC
 -pVDZ Freq
 ----------------------------------------------------------------------

 Structure from the checkpoint file:  "config_1_17.chk"
 ------------------------------------------------
 NM 2D-scan of HBT TD-WB97XD pVDZ in CTC Relaxed.
 ------------------------------------------------
 Charge =  0 Multiplicity = 1

                          Input orientation:
 ---------------------------------------------------------------------
 Center     Atomic      Atomic             Coordinates (Angstroms)
 Number     Number       Type             X           Y           Z
 ---------------------------------------------------------------------
      1          6           0        1.539701   -3.294070   -0.000018
      2          6           0        0.966693   -2.024494   -0.000010
      3          6           0        1.760473   -0.820750   -0.000019
      4          6           0        3.177178   -0.962515   -0.000038
      5          6           0        3.729743   -2.227258   -0.000045
      6          6           0        2.927092   -3.391963   -0.000034
      7          1           0        0.913869   -4.187292   -0.000010
      8          1           0        3.800052   -0.067484   -0.000045
      9          1           0        4.816025   -2.334914   -0.000059
     10          1           0        3.400593   -4.374714   -0.000040
     11          7           0        1.077531    0.335815   -0.000004
     12         16           0       -0.722240   -1.624618    0.000008
     13          6           0       -1.273813    1.089332    0.000035
     14          6           0       -2.662625    0.748225    0.000034
     15          6           0       -0.943120    2.518259    0.000041
     16          6           0       -3.637598    1.724273    0.000020
     17          1           0       -2.952261   -0.303282    0.000038
     18          6           0       -1.956074    3.481116    0.000023
     19          6           0       -3.293270    3.095929    0.000010
     20          1           0       -4.689105    1.433388    0.000015
     21          1           0       -1.660254    4.530571    0.000026
     22          1           0       -4.077300    3.853961   -0.000004
     23          6           0       -0.268349    0.110204    0.000017
     24          8           0        0.316552    2.924083    0.000078
     25          1           0        0.910313    2.125622    0.000106
 ---------------------------------------------------------------------

 SCF Done:  E(RwB97XD) =  -1028.81926509     A.U. after    1 cycles

 Excitation energies and oscillator strengths:

 Excited state symmetry could not be determined.
 Excited State   1:      Singlet-?Sym    3.4925 eV  355.01 nm  f=0.7393  <S**2>=0.000
      59 -> 60         0.68901
 This state for optimization and/or second-order correction.
 Total Energy, E(TD-HF/TD-DFT) =  -1028.69091990
 Copying the excited state density for this state as the 1-particle RhoCI density.

 Excited state symmetry could not be determined.
 Excited State   2:      Singlet-?Sym    4.3782 eV  283.19 nm  f=0.0888  <S**2>=0.000
      57 -> 60         0.59922
      58 -> 60        -0.27261
      59 -> 61         0.10365
      59 -> 62        -0.14917

 Excited state symmetry could not be determined.
 Excited State   3:      Singlet-?Sym    4.5444 eV  272.83 nm  f=0.1199  <S**2>=0.000
      57 -> 60         0.24969
      58 -> 60         0.57822
      59 -> 61         0.19581
      59 -> 62         0.11427

 Alpha  occ. eigenvalues --  -89.08586 -19.29310 -14.47172 -10.39557 -10.38390
 Alpha  occ. eigenvalues --  -10.34959 -10.34492 -10.32730 -10.32419 -10.32173
 Alpha  occ. eigenvalues --  -10.31939 -10.31319 -10.31268 -10.31136 -10.30684
 Alpha  occ. eigenvalues --  -10.30668  -8.10591  -6.05428  -6.05095  -6.04655
 Alpha  occ. eigenvalues --   -1.17621  -1.07893  -0.96853  -0.95680  -0.91859
 Alpha  occ. eigenvalues --   -0.88765  -0.85229  -0.84505  -0.82120  -0.76009
 Alpha  occ. eigenvalues --   -0.71371  -0.70155  -0.69133  -0.68221  -0.63599
 Alpha  occ. eigenvalues --   -0.60231  -0.59074  -0.58556  -0.56176  -0.54503
 Alpha  occ. eigenvalues --   -0.53594  -0.53419  -0.52822  -0.50613  -0.50481
 Alpha  occ. eigenvalues --   -0.49153  -0.47811  -0.45953  -0.45552  -0.44818
 Alpha  occ. eigenvalues --   -0.44026  -0.43041  -0.41941  -0.39897  -0.37709
 Alpha  occ. eigenvalues --   -0.36426  -0.31884  -0.31736  -0.28074
 Alpha virt. eigenvalues --   -0.01903   0.05294   0.06835   0.07041   0.07768
 Alpha virt. eigenvalues --    0.11269   0.14167   0.15224   0.16758   0.18093
 Alpha virt. eigenvalues --    0.18459   0.20694   0.21529   0.22304   0.22733

 Mulliken charges:
               1
     1  C    0.018035
     2  C   -0.211860
     3  C    0.199886
     4  C   -0.019002
     5  C    0.005187
     6  C   -0.006860
     7  H    0.016177
     8  H    0.014999
     9  H    0.017536
    10  H    0.019454
    11  N   -0.353952
    12  S    0.147107
    13  C   -0.063405
    14  C   -0.026943
    15  C    0.073386
    16  C   -0.005599
    17  H    0.024322
    18  C    0.012726
    19  C    0.021432
    20  H    0.012409
    21  H    0.021207
    22  H    0.023878
    23  C    0.078661
    24  O   -0.187120
    25  H    0.168339
 Sum of Mulliken charges =  -0.00000

 Dipole moment (field-independent basis, Debye):
    X=             -0.8371    Y=             -1.7091    Z=              0.0000  Tot=              1.9031
 Quadrupole moment (field-independent basis, Debye-Ang):
   XX=            -83.1144   YY=            -89.2146   ZZ=           -104.3875
   XY=             -6.9164   XZ=             -0.0000   YZ=              0.0000

  Exact polarizability:     402.177    -197.496     395.848      -0.003       0.003      63.369
 Approx polarizability:     279.380     -37.252     261.925      -0.001       0.001      82.366

                      1                      2                      3
                      A                      A                      A
 Frequencies --     42.7712                69.1526               109.4547
 Red. masses --      6.1377                 4.9085                 5.1887
 Frc consts  --      0.0066                 0.0138                 0.0366
 IR Inten    --      1.2584                 0.0002                 0.2647

                      4                      5                      6
                      A                      A                      A
 Frequencies --    111.0726               182.3171               225.7748
 Red. masses --      5.6898                 6.8218                 5.3999
 Frc consts  --      0.0414                 0.1336                 0.1622
 IR Inten    --      1.5690                 1.4198                 0.0204

                      7                      8                      9
                      A                      A                      A
 Frequencies --    261.8063               272.4593               288.9911
 Red. masses --      7.9444                 4.8479                 6.6347
 Frc consts  --      0.3208                 0.2120                 0.3265
 IR Inten    --     13.8002                 0.0229                18.4147

                     10                     11                     12
                      A                      A                      A
 Frequencies --    393.6534               405.8356               441.7003
 Red. masses --      4.4768                 8.9816                 3.2755
 Frc consts  --      0.4087                 0.8716                 0.3765
 IR Inten    --      0.0590                13.0571                 3.8889

                     13                     14                     15
                      A                      A                      A
 Frequencies --    492.5970               497.7102               510.9525
 Red. masses --      4.3765                 7.2858                 3.1501
 Frc consts  --      0.6257                 1.0634                 0.4845
 IR Inten    --      0.2250                 6.9392                 0.2279

                     16                     17                     18
                      A                      A                      A
 Frequencies --    510.9775               524.4573               551.0926
 Red. masses --      5.3458                 8.3686                 3.9886
 Frc consts  --      0.8224                 1.3562                 0.7137
 IR Inten    --     20.2576                25.5788                 0.2287

                     19                     20                     21
                      A                      A                      A
 Frequencies --    576.8572               644.7993               683.1711
 Red. masses --      7.7145                 6.6097                10.4215
 Frc consts  --      1.5125                 1.6191                 2.8658
 IR Inten    --     53.7021                 4.7848                67.2947

                     22                     23                     24
                      A                      A                      A
 Frequencies --    714.9462               723.4909               734.6230
 Red. masses --      6.4864                 1.4800                 1.8916
 Frc consts  --      1.9535                 0.4564                 0.6015
 IR Inten    --     10.2518                75.5510                39.8565

                     25                     26                     27
                      A                      A                      A
 Frequencies --    738.5151               771.6099               814.2158
 Red. masses --      2.0138                 2.3176                 1.7248
 Frc consts  --      0.6471                 0.8130                 0.6737
 IR Inten    --      2.7275                45.5349                13.6285

                     28                     29                     30
                      A                      A                      A
 Frequencies --    816.2681               855.7761               860.4224
 Red. masses --      6.4678                 1.1030                 1.3967
 Frc consts  --      2.5391                 0.4759                 0.6092
 IR Inten    --     21.9625                48.6216                12.7369

                     31                     32                     33
                      A                      A                      A
 Frequencies --    880.6169               923.0467               953.6695
 Red. masses --      6.3684                 1.3445                 1.3439
 Frc consts  --      2.9098                 0.6749                 0.7201
 IR Inten    --     68.7809                 1.3232                 2.1444

                     34                     35                     36
                      A                      A                      A
 Frequencies --    954.4145               968.9901               998.6943
 Red. masses --      7.3263                 1.3427                 1.3068
 Frc consts  --      3.9319                 0.7428                 0.7679
 IR Inten    --     12.0733                 0.1302                 0.0012

                     37                     38                     39
                      A                      A                      A
 Frequencies --   1039.0601              1046.0194              1085.3776
 Red. masses --      2.0999                 2.1669                 4.4985
 Frc consts  --      1.3357                 1.3969                 3.1223
 IR Inten    --      0.6762                 5.3791                41.0238

                     40                     41                     42
                      A                      A                      A
 Frequencies --   1139.7194              1151.7641              1176.0062
 Red. masses --      1.4815                 1.3387                 1.2164
 Frc consts  --      1.1338                 1.0463                 0.9912
 IR Inten    --     45.3371                14.1767                40.4213

                     43                     44                     45
                      A                      A                      A
 Frequencies --   1180.5057              1209.5202              1244.7936
 Red. masses --      1.3213                 4.1700                 1.5396
 Frc consts  --      1.0849                 3.5943                 1.4055
 IR Inten    --      5.7237                43.7714               158.9901

                     46                     47                     48
                      A                      A                      A
 Frequencies --   1275.9766              1317.1741              1354.9112
 Red. masses --      1.6668                 3.1084                 3.0034
 Frc consts  --      1.5989                 3.1774                 3.2485
 IR Inten    --      0.1981               235.8965                54.5461

                     49                     50                     51
                      A                      A                      A
 Frequencies --   1369.4080              1397.0418              1439.2127
 Red. masses --      5.3174                 1.9997                 2.4357
 Frc consts  --      5.8752                 2.2995                 2.9725
 IR Inten    --     42.9007                14.2926               197.7759

                     52                     53                     54
                      A                      A                      A
 Frequencies --   1471.4022              1494.6073              1505.7313
 Red. masses --      3.5393                 2.5727                 2.6565
 Frc consts  --      4.5147                 3.3860                 3.5486
 IR Inten    --     89.6745               125.3688                78.3318

                     55                     56                     57
                      A                      A                      A
 Frequencies --   1544.1048              1576.5235              1586.7659
 Red. masses --      5.0037                 5.9655                 2.9173
 Frc consts  --      7.0290                 8.7357                 4.3277
 IR Inten    --     74.3611                22.8137               623.3858

                     58                     59                     60
                      A                      A                      A
 Frequencies --   1600.4695              1632.0264              1645.5901
 Red. masses --      5.1384                 5.0928                 5.4751
 Frc consts  --      7.7548                 7.9921                 8.7354
 IR Inten    --     60.0550               257.5133               284.3678

                     61                     62                     63
                      A                      A                      A
 Frequencies --   3205.7967              3212.0238              3216.2811
 Red. masses --      1.0862                 1.0856                 1.0857
 Frc consts  --      6.5771                 6.5990                 6.6170
 IR Inten    --      9.8352                 4.9303                 4.5280

                     64                     65                     66
                      A                      A                      A
 Frequencies --   3218.3433              3222.8537              3228.7718
 Red. masses --      1.0766                 1.0883                 1.0954
 Frc consts  --      6.5700                 6.6603                 6.7281
 IR Inten    --      3.7176                 4.8451                10.2973

                     67                     68                     69
                      A                      A                      A
 Frequencies --   3231.2333              3234.5587              3240.7785
 Red. masses --      1.0951                 1.0988                 1.0985
 Frc consts  --      6.7365                 6.7733                 6.7972
 IR Inten    --     10.9324                40.9706                31.3260

 - Thermochemistry -
 -------------------
 Temperature   298.150 Kelvin.  Pressure   1.00000 Atm.
 Atom     1 has atomic number  6 and mass  12.00000

 Molecular mass:   227.04049 amu.
 Principal axes and moments of inertia in atomic units:
                           1         2         3
     Eigenvalues --  1318.935886365.943627684.87950
           X           -0.69649   0.71757   0.00000
           Y            0.71757   0.69649  -0.00001
           Z            0.00001   0.00000   1.00000
 This molecule is an asymmetric top.
 Rotational symmetry number  1.
 Warning -- assumption of classical behavior for rotation
           may cause significant error
 Rotational temperatures (Kelvin)      0.06567     0.01361     0.01127
 Rotational constants (GHZ):           1.36833     0.28350     0.23484
 Zero-point vibrational energy     490476.4 (Joules/Mol)
                                  117.22668 (Kcal/Mol)
 Warning -- explicit consideration of  19 degrees of freedom as
           vibrations may cause significant error
 Vibrational temperatures:     61.54    99.50   157.48   159.81   262.31
          (Kelvin)            324.84   376.68   392.01   415.79   566.38
                              583.91   635.51   708.74   716.09   735.15
                              735.18   754.58   792.90   829.97   927.72
                              982.93  1028.65  1040.94  1056.96  1062.56
                             1110.17  1171.47  1174.43  1231.27  1237.96
                             1267.01  1328.06  1372.12  1373.19  1394.16
                             1436.90  1494.98  1504.99  1561.62  1639.80
                             1657.13  1692.01  1698.48  1740.23  1790.98
                             1835.85  1895.12  1949.42  1970.27  2010.03
                             2070.71  2117.02  2150.41  2166.41  2221.62
                             2268.27  2283.00  2302.72  2348.12  2367.64
                             4612.43  4621.39  4627.51  4630.48  4636.97
                             4645.48  4649.02  4653.81  4662.76

 Zero-point correction=                           0.186813 (Hartree/Particle)
 Thermal correction to Energy=                    0.199125
 Thermal correction to Enthalpy=                  0.200069
 Thermal correction to Gibbs Free Energy=         0.147516
 Sum of electronic and zero-point Energies=          -1028.504107
 Sum of electronic and thermal Energies=             -1028.491795
 Sum of electronic and thermal Enthalpies=           -1028.490851
 Sum of electronic and thermal Free Energies=        -1028.543404

                     E (Thermal)             CV                S
                      KCal/Mol        Cal/Mol-Kelvin    Cal/Mol-Kelvin
 Total                  124.953             49.507            110.608
 Electronic               0.000              0.000              0.000
 Translational            0.889              2.981             42.162
 Rotational               0.889              2.981             32.534
 Vibrational            123.175             43.545             35.911
 Vibration     1          0.595              1.980              5.126
 Vibration     2          0.598              1.969              4.177
 Vibration     3          0.606              1.942              3.279
 Vibration     4          0.607              1.940              3.250
 Vibration     5          0.630              1.864              2.305
 Vibration     6          0.650              1.802              1.912
 Vibration     7          0.669              1.743              1.650
 Vibration     8          0.675              1.724              1.581
 Vibration     9          0.686              1.694              1.480
 Vibration    10          0.761              1.484              0.986
 Vibration    11          0.771              1.458              0.941
 Vibration    12          0.801              1.379              0.821
 Vibration    13          0.848              1.266              0.677
 Vibration    14          0.853              1.255              0.664
 Vibration    15          0.866              1.226              0.631
 Vibration    16          0.866              1.226              0.631
 Vibration    17          0.879              1.196              0.600
 Vibration    18          0.906              1.137              0.542
 Vibration    19          0.933              1.081              0.491

 Optimization completed.
    -- Stationary point found.
 Normal termination of Gaussian 16 at Tue Jul 14 13:54:43 2020.
