 Gaussian 16, Revision C.01,
 Gaussian 16:  ES64L-G16RevC.01  3-Jul-2019

 ----------------------------------------------------------------------
 #p opt=addgic freq td wb97xd/cc-pvdz nosymm int=ultrafine scrf=(solven
 t=CarbonTetraChloride)
 ----------------------------------------------------------------------

 ------------------------------------------------
 NM 2D-scan of HBT TD-WB97XD pVDZ in CTC Relaxed.
 ------------------------------------------------
 Symbolic Z-matrix:
 Charge =  0 Multiplicity = 1

 SCF Done:  E(RwB97XD) =  -1028.15046096     A.U. after   15 cycles
 Total Energy, E(TD-HF/TD-DFT) =  -1028.02015179
 SCF Done:  E(RwB97XD) =  -1028.63307596     A.U. after   13 cycles
 Total Energy, E(TD-HF/TD-DFT) =  -1028.50418048
 SCF Done:  E(RwB97XD) =  -1028.79629068     A.U. after   15 cycles
 Total Energy, E(TD-HF/TD-DFT) =  -1028.67081705
 SCF Done:  E(RwB97XD) =  -1028.79870106     A.U. after   12 cycles
 Total Energy, E(TD-HF/TD-DFT) =  -1028.67263321
 SCF Done:  E(RwB97XD) =  -1028.79925954     A.U. after   11 cycles
 Total Energy, E(TD-HF/TD-DFT) =  -1028.67281659
 SCF Done:  E(RwB97XD) =  -1028.79949512     A.U. after   11 cycles
 Total Energy, E(TD-HF/TD-DFT) =  -1028.67286544
 SCF Done:  E(RwB97XD) =  -1028.79947098     A.U. after    9 cycles
 Total Energy, E(TD-HF/TD-DFT) =  -1028.67287125
 SCF Done:  E(RwB97XD) =  -1028.79943354     A.U. after    8 cycles
 Total Energy, E(TD-HF/TD-DFT) =  -1028.67287244
 Optimization completed.
    -- Stationary point found.
 Normal termination of Gaussian 16 at Mon Jul 13 20:36:02 2020.

 ----------------------------------------------------------------------
 #P Geom=AllCheck Guess=TCheck SCRF=Check GenChk RwB97XD TD(FC,Read)/CC
 -pVDZ Freq
 ----------------------------------------------------------------------

 Structure from the checkpoint file:  "config_1_1.chk"
 ------------------------------------------------
 NM 2D-scan of HBT TD-WB97XD pVDZ in CTC Relaxed.
 ------------------------------------------------
 Charge =  0 Multiplicity = 1

                          Input orientation:
 ---------------------------------------------------------------------
 Center     Atomic      Atomic             Coordinates (Angstroms)
 Number     Number       Type             X           Y           Z
 ---------------------------------------------------------------------
      1          6           0        1.770026   -3.326266   -0.000092
      2          6           0        0.959945   -2.183570   -0.000058
      3          6           0        1.604612   -0.894012    0.000022
      4          6           0        3.020971   -0.768443    0.000089
      5          6           0        3.789928   -1.900387    0.000070
      6          6           0        3.165598   -3.172020   -0.000029
      7          1           0        1.339923   -4.329044   -0.000153
      8          1           0        3.443289    0.236892    0.000158
      9          1           0        4.879058   -1.831932    0.000123
     10          1           0        3.788858   -4.068106   -0.000049
     11          7           0        0.847741    0.185216    0.000026
     12         16           0       -0.793824   -1.936837   -0.000067
     13          6           0       -1.385889    1.013574   -0.000004
     14          6           0       -2.823061    0.924607   -0.000002
     15          6           0       -0.886431    2.427252   -0.000016
     16          6           0       -3.636744    2.042077    0.000082
     17          1           0       -3.279271   -0.067122   -0.000047
     18          6           0       -1.748665    3.524731    0.000078
     19          6           0       -3.114657    3.360866    0.000146
     20          1           0       -4.719259    1.903576    0.000093
     21          1           0       -1.274852    4.506462    0.000071
     22          1           0       -3.778970    4.225161    0.000216
     23          6           0       -0.479206   -0.080672   -0.000023
     24          8           0        0.382291    2.848977   -0.000223
     25          1           0        0.982845    2.092869   -0.000312
 ---------------------------------------------------------------------

 SCF Done:  E(RwB97XD) =  -1028.79943354     A.U. after    1 cycles

 Excitation energies and oscillator strengths:

 Excited state symmetry could not be determined.
 Excited State   1:      Singlet-?Sym    3.4439 eV  360.01 nm  f=0.7477  <S**2>=0.000
      59 -> 60        -0.69099
 This state for optimization and/or second-order correction.
 Total Energy, E(TD-HF/TD-DFT) =  -1028.67287241
 Copying the excited state density for this state as the 1-particle RhoCI density.

 Excited state symmetry could not be determined.
 Excited State   2:      Singlet-?Sym    4.3657 eV  284.00 nm  f=0.1687  <S**2>=0.000
      57 -> 60        -0.30054
      58 -> 60        -0.58409
      58 -> 64        -0.10600
      59 -> 63        -0.15827

 Excited state symmetry could not be determined.
 Excited State   3:      Singlet-?Sym    4.4949 eV  275.84 nm  f=0.0618  <S**2>=0.000
      57 -> 60         0.54624
      57 -> 64        -0.13951
      58 -> 60        -0.28630
      58 -> 61        -0.10614
      59 -> 61         0.24454

 Alpha  occ. eigenvalues --  -89.09150 -19.29375 -14.46537 -10.40044 -10.38608
 Alpha  occ. eigenvalues --  -10.35065 -10.34415 -10.33782 -10.32386 -10.32342
 Alpha  occ. eigenvalues --  -10.31800 -10.31451 -10.31122 -10.31035 -10.30537
 Alpha  occ. eigenvalues --  -10.30164  -8.10861  -6.05739  -6.05408  -6.04899
 Alpha  occ. eigenvalues --   -1.17565  -1.07975  -0.96514  -0.95375  -0.90801
 Alpha  occ. eigenvalues --   -0.88704  -0.85099  -0.84046  -0.82121  -0.76052
 Alpha  occ. eigenvalues --   -0.71135  -0.70076  -0.69111  -0.67956  -0.63172
 Alpha  occ. eigenvalues --   -0.59776  -0.58887  -0.58204  -0.55837  -0.54357
 Alpha  occ. eigenvalues --   -0.53174  -0.52983  -0.52379  -0.50895  -0.50431
 Alpha  occ. eigenvalues --   -0.48806  -0.48085  -0.45700  -0.45364  -0.44619
 Alpha  occ. eigenvalues --   -0.43507  -0.42852  -0.42006  -0.39697  -0.37423
 Alpha  occ. eigenvalues --   -0.36334  -0.32032  -0.31551  -0.27761
 Alpha virt. eigenvalues --   -0.01953   0.05264   0.06395   0.06808   0.07111
 Alpha virt. eigenvalues --    0.11419   0.11796   0.15061   0.15552   0.17344
 Alpha virt. eigenvalues --    0.18581   0.20170   0.21690   0.22184   0.22769

 Mulliken charges:
               1
     1  C   -0.001333
     2  C   -0.208803
     3  C    0.221322
     4  C   -0.014007
     5  C    0.010908
     6  C   -0.012266
     7  H    0.020544
     8  H    0.012698
     9  H    0.017219
    10  H    0.020387
    11  N   -0.315951
    12  S    0.131918
    13  C   -0.092048
    14  C   -0.010650
    15  C    0.080806
    16  C   -0.011740
    17  H    0.011177
    18  C    0.024995
    19  C    0.018161
    20  H    0.012938
    21  H    0.020227
    22  H    0.022048
    23  C    0.060797
    24  O   -0.172665
    25  H    0.153317
 Sum of Mulliken charges =  -0.00000

 Dipole moment (field-independent basis, Debye):
    X=             -0.1616    Y=             -1.1899    Z=             -0.0001  Tot=              1.2008
 Quadrupole moment (field-independent basis, Debye-Ang):
   XX=            -82.9674   YY=            -88.7174   ZZ=           -104.7167
   XY=             -6.4131   XZ=             -0.0002   YZ=              0.0008

  Exact polarizability:     414.239    -204.126     410.558      -0.002       0.006      63.792
 Approx polarizability:     284.960     -37.706     268.242      -0.001       0.005      82.653

 ******    1 imaginary frequencies (negative Signs) ******

                      1                      2                      3
                      A                      A                      A
 Frequencies --    -10.0993                65.9694                95.2881
 Red. masses --      5.7391                 6.0154                 5.5466
 Frc consts  --      0.0003                 0.0154                 0.0297
 IR Inten    --      0.7518                 0.0012                 1.9956

                      4                      5                      6
                      A                      A                      A
 Frequencies --    106.7204               183.1623               224.9093
 Red. masses --      4.5297                 6.7001                 5.4661
 Frc consts  --      0.0304                 0.1324                 0.1629
 IR Inten    --      0.7212                 0.2772                 0.0055

                      7                      8                      9
                      A                      A                      A
 Frequencies --    234.4394               262.9869               269.3777
 Red. masses --      8.1096                 4.7562                 6.4017
 Frc consts  --      0.2626                 0.1938                 0.2737
 IR Inten    --      9.2527                 0.4289                17.3632

                     10                     11                     12
                      A                      A                      A
 Frequencies --    378.5739               399.0633               437.4455
 Red. masses --      8.2802                 4.8250                 3.2960
 Frc consts  --      0.6992                 0.4527                 0.3716
 IR Inten    --     14.3069                 0.2412                 5.2319

                     13                     14                     15
                      A                      A                      A
 Frequencies --    454.2611               489.1458               492.3423
 Red. masses --      4.5672                 4.0030                 9.2661
 Frc consts  --      0.5553                 0.5643                 1.3234
 IR Inten    --      8.4349                 1.5188                 4.4556

                     16                     17                     18
                      A                      A                      A
 Frequencies --    507.6153               520.3538               537.1652
 Red. masses --      3.1339                 8.3573                 3.2717
 Frc consts  --      0.4758                 1.3333                 0.5562
 IR Inten    --      1.0357                30.4399                 5.2238

                     19                     20                     21
                      A                      A                      A
 Frequencies --    576.2245               617.4276               618.7753
 Red. masses --      7.8560                 7.5843                 1.1726
 Frc consts  --      1.5369                 1.7035                 0.2645
 IR Inten    --    114.0915                36.7890               105.9640

                     22                     23                     24
                      A                      A                      A
 Frequencies --    644.4143               693.9341               727.6745
 Red. masses --      6.7276                 6.7546                 2.1783
 Frc consts  --      1.6460                 1.9164                 0.6796
 IR Inten    --      0.0177                 7.3727                 5.0954

                     25                     26                     27
                      A                      A                      A
 Frequencies --    729.8418               747.3098               771.3851
 Red. masses --      2.2715                 1.5098                 2.0301
 Frc consts  --      0.7129                 0.4968                 0.7117
 IR Inten    --     23.1846                34.3377                60.5816

                     28                     29                     30
                      A                      A                      A
 Frequencies --    781.8094               835.1322               857.0563
 Red. masses --      7.1138                 1.5065                 1.4394
 Frc consts  --      2.5618                 0.6191                 0.6229
 IR Inten    --     20.4657                 0.0829                 1.4879

                     31                     32                     33
                      A                      A                      A
 Frequencies --    881.4420               928.2782               936.0673
 Red. masses --      6.3039                 6.9880                 1.3372
 Frc consts  --      2.8857                 3.5478                 0.6903
 IR Inten    --     49.2944                13.0404                 3.2366

                     34                     35                     36
                      A                      A                      A
 Frequencies --    952.3195               971.7043               997.5726
 Red. masses --      1.3458                 1.3330                 1.3037
 Frc consts  --      0.7191                 0.7416                 0.7644
 IR Inten    --      2.0444                 0.0100                 0.0236

                     37                     38                     39
                      A                      A                      A
 Frequencies --   1031.0143              1039.6092              1056.9210
 Red. masses --      2.2310                 2.3777                 4.9640
 Frc consts  --      1.3973                 1.5141                 3.2671
 IR Inten    --      2.3896                 9.1648                17.4131

                     40                     41                     42
                      A                      A                      A
 Frequencies --   1122.1065              1145.4281              1172.8595
 Red. masses --      1.6526                 1.2939                 1.2123
 Frc consts  --      1.2260                 1.0002                 0.9826
 IR Inten    --     21.4634                18.3016                44.3326

                     43                     44                     45
                      A                      A                      A
 Frequencies --   1176.4137              1195.6595              1217.1351
 Red. masses --      1.1905                 1.3416                 4.6970
 Frc consts  --      0.9707                 1.1300                 4.0996
 IR Inten    --      0.9319               241.1209                13.8043

                     46                     47                     48
                      A                      A                      A
 Frequencies --   1236.5304              1270.6328              1343.3504
 Red. masses --      2.1565                 1.6351                 2.8999
 Frc consts  --      1.9427                 1.5553                 3.0833
 IR Inten    --    237.0181                 5.0158               112.1980

                     49                     50                     51
                      A                      A                      A
 Frequencies --   1357.4374              1373.5071              1410.3191
 Red. masses --      5.2782                 2.1412                 2.1588
 Frc consts  --      5.7303                 2.3799                 2.5299
 IR Inten    --     30.2552               319.0996                44.5799

                     52                     53                     54
                      A                      A                      A
 Frequencies --   1445.1919              1466.9555              1517.5880
 Red. masses --      2.3080                 2.8747                 4.4512
 Frc consts  --      2.8402                 3.6449                 6.0400
 IR Inten    --     29.4957                15.6812                45.6801

                     55                     56                     57
                      A                      A                      A
 Frequencies --   1526.1389              1547.7981              1560.5822
 Red. masses --      5.4707                 5.6208                 4.6607
 Frc consts  --      7.5073                 7.9337                 6.6877
 IR Inten    --    683.3628                65.9533                 9.1779

                     58                     59                     60
                      A                      A                      A
 Frequencies --   1594.3256              1646.9867              1658.6733
 Red. masses --      6.3728                 5.6240                 5.9596
 Frc consts  --      9.5441                 8.9882                 9.6603
 IR Inten    --     54.3112               284.9176               228.4401

                     61                     62                     63
                      A                      A                      A
 Frequencies --   3201.9100              3205.3718              3214.6934
 Red. masses --      1.0866                 1.0859                 1.0893
 Frc consts  --      6.5634                 6.5735                 6.6326
 IR Inten    --      2.5219                 3.1612                 4.6238

                     64                     65                     66
                      A                      A                      A
 Frequencies --   3217.1282              3224.2435              3226.0630
 Red. masses --      1.0906                 1.0951                 1.0924
 Frc consts  --      6.6505                 6.7074                 6.6984
 IR Inten    --      5.7559                19.3375                20.3652

                     67                     68                     69
                      A                      A                      A
 Frequencies --   3233.9679              3240.0450              3711.7842
 Red. masses --      1.1003                 1.0995                 1.0668
 Frc consts  --      6.7798                 6.8004                 8.6597
 IR Inten    --     36.3135                25.4561                 0.0215

 - Thermochemistry -
 -------------------
 Temperature   298.150 Kelvin.  Pressure   1.00000 Atm.
 Atom     1 has atomic number  6 and mass  12.00000

 Molecular mass:   227.04049 amu.
 Principal axes and moments of inertia in atomic units:
                           1         2         3
     Eigenvalues --  1415.934706418.726837834.66152
           X           -0.68787   0.72583   0.00000
           Y            0.72583   0.68787  -0.00001
           Z            0.00001   0.00000   1.00000
 This molecule is an asymmetric top.
 Rotational symmetry number  1.
 Warning -- assumption of classical behavior for rotation
           may cause significant error
 Rotational temperatures (Kelvin)      0.06117     0.01349     0.01106
 Rotational constants (GHZ):           1.27459     0.28117     0.23035
    1 imaginary frequencies ignored.
 Zero-point vibrational energy     487571.3 (Joules/Mol)
                                  116.53234 (Kcal/Mol)
 Warning -- explicit consideration of  20 degrees of freedom as
           vibrations may cause significant error
 Vibrational temperatures:     94.92   137.10   153.55   263.53   323.59
          (Kelvin)            337.31   378.38   387.57   544.68   574.16
                              629.39   653.58   703.77   708.37   730.35
                              748.67   772.86   829.06   888.34   890.28
                              927.17   998.42  1046.96  1050.08  1075.21
                             1109.85  1124.85  1201.57  1233.11  1268.20
                             1335.59  1346.79  1370.18  1398.07  1435.28
                             1483.40  1495.77  1520.67  1614.46  1648.02
                             1687.48  1692.60  1720.29  1751.19  1779.09
                             1828.16  1932.78  1953.05  1976.17  2029.13
                             2079.31  2110.62  2183.47  2195.77  2226.94
                             2245.33  2293.88  2369.65  2386.46  4606.83
                             4611.82  4625.23  4628.73  4638.97  4641.59
                             4652.96  4661.70  5340.43

 Zero-point correction=                           0.185706 (Hartree/Particle)
 Thermal correction to Energy=                    0.197526
 Thermal correction to Enthalpy=                  0.198471
 Thermal correction to Gibbs Free Energy=         0.147563
 Sum of electronic and zero-point Energies=          -1028.487166
 Sum of electronic and thermal Energies=             -1028.475346
 Sum of electronic and thermal Enthalpies=           -1028.474402
 Sum of electronic and thermal Free Energies=        -1028.525309

                     E (Thermal)             CV                S
                      KCal/Mol        Cal/Mol-Kelvin    Cal/Mol-Kelvin
 Total                  123.950             48.710            107.144
 Electronic               0.000              0.000              0.000
 Translational            0.889              2.981             42.162
 Rotational               0.889              2.981             32.632
 Vibrational            122.172             42.749             32.350
 Vibration     1          0.597              1.971              4.270
 Vibration     2          0.603              1.953              3.548
 Vibration     3          0.606              1.944              3.328
 Vibration     4          0.631              1.863              2.296
 Vibration     5          0.650              1.803              1.919
 Vibration     6          0.654              1.788              1.845
 Vibration     7          0.670              1.741              1.642
 Vibration     8          0.674              1.730              1.600
 Vibration     9          0.749              1.516              1.045
 Vibration    10          0.765              1.472              0.966
 Vibration    11          0.798              1.389              0.835
 Vibration    12          0.813              1.351              0.783
 Vibration    13          0.845              1.274              0.686
 Vibration    14          0.848              1.267              0.678
 Vibration    15          0.863              1.233              0.639
 Vibration    16          0.875              1.205              0.609
 Vibration    17          0.892              1.168              0.571
 Vibration    18          0.933              1.083              0.492
 Vibration    19          0.977              0.995              0.421
 Vibration    20          0.979              0.992              0.418

 Optimization completed.
    -- Stationary point found.
 Normal termination of Gaussian 16 at Mon Jul 13 20:54:30 2020.
