 Gaussian 16, Revision C.01,
 Gaussian 16:  ES64L-G16RevC.01  3-Jul-2019

 ----------------------------------------------------------------------
 #p opt=addgic freq td wb97xd/cc-pvdz nosymm int=ultrafine scrf=(solven
 t=CarbonTetraChloride)
 ----------------------------------------------------------------------

 ------------------------------------------------
 NM 2D-scan of HBT TD-WB97XD pVDZ in CTC Relaxed.
 ------------------------------------------------
 Symbolic Z-matrix:
 Charge =  0 Multiplicity = 1

 SCF Done:  E(RwB97XD) =  -1028.65996889     A.U. after   16 cycles
 Total Energy, E(TD-HF/TD-DFT) =  -1028.55570625
 SCF Done:  E(RwB97XD) =  -1028.76202634     A.U. after   14 cycles
 Total Energy, E(TD-HF/TD-DFT) =  -1028.66011076
 SCF Done:  E(RwB97XD) =  -1028.76524190     A.U. after   14 cycles
 Total Energy, E(TD-HF/TD-DFT) =  -1028.66692039
 SCF Done:  E(RwB97XD) =  -1028.78206799     A.U. after   14 cycles
 Total Energy, E(TD-HF/TD-DFT) =  -1028.67863587
 SCF Done:  E(RwB97XD) =  -1028.78118865     A.U. after   13 cycles
 Total Energy, E(TD-HF/TD-DFT) =  -1028.68062245
 SCF Done:  E(RwB97XD) =  -1028.78185986     A.U. after   11 cycles
 Total Energy, E(TD-HF/TD-DFT) =  -1028.68070321
 SCF Done:  E(RwB97XD) =  -1028.78179490     A.U. after    9 cycles
 Total Energy, E(TD-HF/TD-DFT) =  -1028.68070641
 SCF Done:  E(RwB97XD) =  -1028.78175749     A.U. after    9 cycles
 Total Energy, E(TD-HF/TD-DFT) =  -1028.68070683
 SCF Done:  E(RwB97XD) =  -1028.78172830     A.U. after    9 cycles
 Total Energy, E(TD-HF/TD-DFT) =  -1028.68070694
 SCF Done:  E(RwB97XD) =  -1028.78154810     A.U. after   11 cycles
 Total Energy, E(TD-HF/TD-DFT) =  -1028.68071304
 Total Energy, E(TD-HF/TD-DFT) =  -1028.68183647
 Total Energy, E(TD-HF/TD-DFT) =  -1028.68448831
 Total Energy, E(TD-HF/TD-DFT) =  -1028.66545165
 Total Energy, E(TD-HF/TD-DFT) =  -1028.68873215
 Total Energy, E(TD-HF/TD-DFT) =  -1028.65354148
 Total Energy, E(TD-HF/TD-DFT) =  -1028.69256372
 SCF Done:  E(RwB97XD) =  -1028.77758825     A.U. after   15 cycles
 Total Energy, E(TD-HF/TD-DFT) =  -1028.69487589
 SCF Done:  E(RwB97XD) =  -1028.77632458     A.U. after   14 cycles
 Total Energy, E(TD-HF/TD-DFT) =  -1028.69617492
 SCF Done:  E(RwB97XD) =  -1028.77570537     A.U. after   14 cycles
 Total Energy, E(TD-HF/TD-DFT) =  -1028.69710906
 SCF Done:  E(RwB97XD) =  -1028.77390993     A.U. after   13 cycles
 Total Energy, E(TD-HF/TD-DFT) =  -1028.69743510
 SCF Done:  E(RwB97XD) =  -1028.77385992     A.U. after   13 cycles
 Total Energy, E(TD-HF/TD-DFT) =  -1028.69764346
 SCF Done:  E(RwB97XD) =  -1028.77399936     A.U. after   13 cycles
 Total Energy, E(TD-HF/TD-DFT) =  -1028.69774391
 SCF Done:  E(RwB97XD) =  -1028.77474024     A.U. after   13 cycles
 Total Energy, E(TD-HF/TD-DFT) =  -1028.69778491
 SCF Done:  E(RwB97XD) =  -1028.77496837     A.U. after   12 cycles
 Total Energy, E(TD-HF/TD-DFT) =  -1028.69779505
 SCF Done:  E(RwB97XD) =  -1028.77506234     A.U. after   10 cycles
 Total Energy, E(TD-HF/TD-DFT) =  -1028.69779625
 Optimization completed.
    -- Stationary point found.
 Normal termination of Gaussian 16 at Mon Jul 13 23:27:04 2020.

 ----------------------------------------------------------------------
 #P Geom=AllCheck Guess=TCheck SCRF=Check GenChk RwB97XD TD(FC,Read)/CC
 -pVDZ Freq
 ----------------------------------------------------------------------

 Structure from the checkpoint file:  "config_12_1.chk"
 ------------------------------------------------
 NM 2D-scan of HBT TD-WB97XD pVDZ in CTC Relaxed.
 ------------------------------------------------
 Charge =  0 Multiplicity = 1

                          Input orientation:
 ---------------------------------------------------------------------
 Center     Atomic      Atomic             Coordinates (Angstroms)
 Number     Number       Type             X           Y           Z
 ---------------------------------------------------------------------
      1          6           0        1.796454   -3.121185   -0.550016
      2          6           0        1.035821   -2.006718   -0.196613
      3          6           0        1.645048   -0.877461    0.377234
      4          6           0        3.024612   -0.844722    0.596320
      5          6           0        3.780258   -1.951177    0.229230
      6          6           0        3.173086   -3.081899   -0.332654
      7          1           0        1.328406   -3.996723   -1.001304
      8          1           0        3.486980    0.040448    1.034599
      9          1           0        4.860318   -1.937773    0.382133
     10          1           0        3.783327   -3.942176   -0.610772
     11          7           0        0.760617    0.146389    0.659398
     12         16           0       -0.694349   -1.734364   -0.419682
     13          6           0       -1.459224    0.998473    0.091058
     14          6           0       -2.782505    0.991345    0.499018
     15          6           0       -0.885046    2.235348   -0.459418
     16          6           0       -3.604845    2.120131    0.320212
     17          1           0       -3.195471    0.093329    0.962785
     18          6           0       -1.745610    3.372508   -0.570381
     19          6           0       -3.082507    3.305052   -0.212510
     20          1           0       -4.655436    2.068072    0.609210
     21          1           0       -1.317649    4.269692   -1.020843
     22          1           0       -3.728958    4.174196   -0.343946
     23          6           0       -0.535865   -0.120269    0.282182
     24          8           0        0.339757    2.289945   -0.777364
     25          1           0        1.043332    1.123973    0.452190
 ---------------------------------------------------------------------

 SCF Done:  E(RwB97XD) =  -1028.77506234     A.U. after    1 cycles

 Excitation energies and oscillator strengths:

 Excited state symmetry could not be determined.
 Excited State   1:      Singlet-?Sym    2.1025 eV  589.69 nm  f=0.1257  <S**2>=0.000
      58 -> 60        -0.13633
      59 -> 60         0.68232
 This state for optimization and/or second-order correction.
 Total Energy, E(TD-HF/TD-DFT) =  -1028.69779628
 Copying the excited state density for this state as the 1-particle RhoCI density.

 Excited state symmetry could not be determined.
 Excited State   2:      Singlet-?Sym    3.2625 eV  380.03 nm  f=0.0669  <S**2>=0.000
      58 -> 60         0.67258
      59 -> 60         0.13837

 Excited state symmetry could not be determined.
 Excited State   3:      Singlet-?Sym    4.0536 eV  305.86 nm  f=0.2175  <S**2>=0.000
      57 -> 60         0.66094
      59 -> 63        -0.16555

 Alpha  occ. eigenvalues --  -89.11700 -19.19474 -14.53271 -10.43153 -10.37679
 Alpha  occ. eigenvalues --  -10.36897 -10.34883 -10.33872 -10.33376 -10.33010
 Alpha  occ. eigenvalues --  -10.32921 -10.30780 -10.30428 -10.29882 -10.28179
 Alpha  occ. eigenvalues --  -10.27546  -8.13592  -6.08463  -6.08086  -6.07640
 Alpha  occ. eigenvalues --   -1.12916  -1.07970  -0.98860  -0.95099  -0.93299
 Alpha  occ. eigenvalues --   -0.88933  -0.86854  -0.83873  -0.80501  -0.75491
 Alpha  occ. eigenvalues --   -0.73520  -0.72129  -0.68742  -0.67061  -0.64873
 Alpha  occ. eigenvalues --   -0.60686  -0.59860  -0.57875  -0.56214  -0.55184
 Alpha  occ. eigenvalues --   -0.54617  -0.53094  -0.52670  -0.50281  -0.49546
 Alpha  occ. eigenvalues --   -0.47995  -0.47602  -0.47003  -0.45693  -0.45013
 Alpha  occ. eigenvalues --   -0.43700  -0.42489  -0.42078  -0.39360  -0.35873
 Alpha  occ. eigenvalues --   -0.34295  -0.32094  -0.30365  -0.25039
 Alpha virt. eigenvalues --   -0.03015   0.03264   0.04694   0.05093   0.07877
 Alpha virt. eigenvalues --    0.10159   0.14099   0.14987   0.16182   0.17194
 Alpha virt. eigenvalues --    0.18713   0.19610   0.20311   0.20991   0.22148

 Mulliken charges:
               1
     1  C    0.020090
     2  C   -0.222082
     3  C    0.234065
     4  C   -0.005305
     5  C    0.013337
     6  C    0.005574
     7  H    0.029944
     8  H    0.034516
     9  H    0.030928
    10  H    0.030597
    11  N   -0.126855
    12  S    0.256925
    13  C   -0.129691
    14  C    0.027548
    15  C    0.097053
    16  C   -0.051480
    17  H   -0.005424
    18  C   -0.043096
    19  C    0.028148
    20  H   -0.003754
    21  H   -0.001405
    22  H    0.008786
    23  C    0.026933
    24  O   -0.421748
    25  H    0.166397
 Sum of Mulliken charges =  -0.00000

 Dipole moment (field-independent basis, Debye):
    X=              2.7197    Y=             -6.3230    Z=              1.5311  Tot=              7.0514
 Quadrupole moment (field-independent basis, Debye-Ang):
   XX=            -83.9818   YY=            -94.6532   ZZ=           -102.8046
   XY=             -5.9754   XZ=              1.6905   YZ=              6.3821

  Exact polarizability:     269.648     -55.015     207.743      -8.133      12.379      85.697
 Approx polarizability:     260.623     -35.768     239.606      -1.862       6.922     109.337

 ******    1 imaginary frequencies (negative Signs) ******

                      1                      2                      3
                      A                      A                      A
 Frequencies --    -44.8822                43.2906                83.0832
 Red. masses --      5.9295                 6.2178                 5.2842
 Frc consts  --      0.0070                 0.0069                 0.0215
 IR Inten    --      8.4090                 1.9526                 2.2532

                      4                      5                      6
                      A                      A                      A
 Frequencies --    163.5370               175.7635               214.9843
 Red. masses --      5.1708                 7.1397                 5.6592
 Frc consts  --      0.0815                 0.1300                 0.1541
 IR Inten    --      8.6510                 0.5298                 2.4877

                      7                      8                      9
                      A                      A                      A
 Frequencies --    265.7709               282.6239               332.4724
 Red. masses --      6.7356                 4.7962                 9.6170
 Frc consts  --      0.2803                 0.2257                 0.6263
 IR Inten    --      2.8148                 0.8016                 0.4123

                     10                     11                     12
                      A                      A                      A
 Frequencies --    342.7558               379.4052               438.9366
 Red. masses --      4.0347                 6.0807                 3.1445
 Frc consts  --      0.2793                 0.5157                 0.3569
 IR Inten    --     33.4788                 8.1642                 7.3585

                     13                     14                     15
                      A                      A                      A
 Frequencies --    457.8207               505.9191               523.1211
 Red. masses --      4.0389                 8.0718                 3.7121
 Frc consts  --      0.4988                 1.2173                 0.5985
 IR Inten    --     27.6698                 3.0593                 0.7664

                     16                     17                     18
                      A                      A                      A
 Frequencies --    538.5921               547.1914               563.5879
 Red. masses --      4.2044                 4.4520                 4.9997
 Frc consts  --      0.7186                 0.7854                 0.9357
 IR Inten    --     31.7739                37.9600                49.9806

                     19                     20                     21
                      A                      A                      A
 Frequencies --    575.3561               599.9730               667.2783
 Red. masses --      5.5433                 3.6331                 4.8839
 Frc consts  --      1.0812                 0.7705                 1.2813
 IR Inten    --      8.5437                72.2691                 4.1664

                     22                     23                     24
                      A                      A                      A
 Frequencies --    706.6439               719.4608               741.0759
 Red. masses --      2.7043                 3.6362                 2.1443
 Frc consts  --      0.7956                 1.1089                 0.6938
 IR Inten    --     56.5260                31.3904                 6.2075

                     25                     26                     27
                      A                      A                      A
 Frequencies --    749.5550               773.6819               790.6842
 Red. masses --      2.1372                 1.6137                 2.2906
 Frc consts  --      0.7075                 0.5691                 0.8437
 IR Inten    --     15.0055                70.0333                41.3630

                     28                     29                     30
                      A                      A                      A
 Frequencies --    821.4361               874.8369               887.0145
 Red. masses --      5.0966                 1.4637                 1.5991
 Frc consts  --      2.0262                 0.6600                 0.7413
 IR Inten    --     13.0041                 0.3951                 7.7863

                     31                     32                     33
                      A                      A                      A
 Frequencies --    889.6446               960.5523               963.2658
 Red. masses --      4.3028                 1.5852                 1.3651
 Frc consts  --      2.0065                 0.8617                 0.7463
 IR Inten    --      4.8919                 7.7550                 1.1774

                     34                     35                     36
                      A                      A                      A
 Frequencies --    976.2872               994.4651              1007.6459
 Red. masses --      3.5687                 1.3497                 1.2976
 Frc consts  --      2.0041                 0.7864                 0.7762
 IR Inten    --     22.5363                 7.6101                 0.0192

                     37                     38                     39
                      A                      A                      A
 Frequencies --   1050.4113              1055.5848              1092.3664
 Red. masses --      2.0763                 2.0834                 4.0766
 Frc consts  --      1.3498                 1.3678                 2.8661
 IR Inten    --      0.5241                 6.5117                 3.2060

                     40                     41                     42
                      A                      A                      A
 Frequencies --   1125.8715              1155.1465              1164.5127
 Red. masses --      1.5362                 1.3574                 1.1705
 Frc consts  --      1.1473                 1.0671                 0.9352
 IR Inten    --     20.3363                 3.3795                55.5237

                     43                     44                     45
                      A                      A                      A
 Frequencies --   1179.3361              1223.6609              1251.3394
 Red. masses --      1.1524                 3.4255                 2.1445
 Frc consts  --      0.9443                 3.0220                 1.9785
 IR Inten    --      9.2756                30.1557                15.6853

                     46                     47                     48
                      A                      A                      A
 Frequencies --   1289.7077              1297.6738              1337.0492
 Red. masses --      1.6987                 4.4236                 2.1111
 Frc consts  --      1.6648                 4.3889                 2.2236
 IR Inten    --      0.5067                 5.7271                17.8749

                     49                     50                     51
                      A                      A                      A
 Frequencies --   1355.7764              1396.9200              1406.2780
 Red. masses --      4.4042                 2.3002                 2.1193
 Frc consts  --      4.7697                 2.6447                 2.4693
 IR Inten    --    168.2857                 5.6086                62.4869

                     52                     53                     54
                      A                      A                      A
 Frequencies --   1454.5762              1468.8823              1511.3606
 Red. masses --      3.7976                 2.4348                 2.7856
 Frc consts  --      4.7340                 3.0952                 3.7490
 IR Inten    --    618.4057                12.8263                66.1179

                     55                     56                     57
                      A                      A                      A
 Frequencies --   1528.6860              1537.7300              1574.8572
 Red. masses --      3.0876                 4.8374                 4.0234
 Frc consts  --      4.2511                 6.7394                 5.8793
 IR Inten    --    118.9114                37.3731                23.6966

                     58                     59                     60
                      A                      A                      A
 Frequencies --   1630.0393              1656.5953              1674.8557
 Red. masses --      5.9926                 6.4902                 6.7971
 Frc consts  --      9.3813                10.4939                11.2339
 IR Inten    --    209.3619                 4.3322                19.9184

                     61                     62                     63
                      A                      A                      A
 Frequencies --   3205.3840              3211.3313              3212.5646
 Red. masses --      1.0876                 1.0859                 1.0887
 Frc consts  --      6.5839                 6.5979                 6.6203
 IR Inten    --      2.4880                 1.1949                 4.4360

                     64                     65                     66
                      A                      A                      A
 Frequencies --   3219.0118              3224.1838              3227.8723
 Red. masses --      1.0903                 1.0938                 1.0959
 Frc consts  --      6.6566                 6.6995                 6.7278
 IR Inten    --      1.9363                12.3413                10.0571

                     67                     68                     69
                      A                      A                      A
 Frequencies --   3235.2691              3237.7178              3306.0532
 Red. masses --      1.0994                 1.0998                 1.0806
 Frc consts  --      6.7802                 6.7925                 6.9590
 IR Inten    --     21.3590                17.8542              1709.5106

 - Thermochemistry -
 -------------------
 Temperature   298.150 Kelvin.  Pressure   1.00000 Atm.
 Atom     1 has atomic number  6 and mass  12.00000

 Molecular mass:   227.04049 amu.
 Principal axes and moments of inertia in atomic units:
                           1         2         3
     Eigenvalues --  1306.360006391.968307343.18643
           X            0.71821   0.69564  -0.01625
           Y           -0.69576   0.71827  -0.00263
           Z            0.00984   0.01319   0.99986
 This molecule is an asymmetric top.
 Rotational symmetry number  1.
 Warning -- assumption of classical behavior for rotation
           may cause significant error
 Rotational temperatures (Kelvin)      0.06630     0.01355     0.01180
 Rotational constants (GHZ):           1.38150     0.28235     0.24577
    1 imaginary frequencies ignored.
 Zero-point vibrational energy     490805.8 (Joules/Mol)
                                  117.30540 (Kcal/Mol)
 Warning -- explicit consideration of  19 degrees of freedom as
           vibrations may cause significant error
 Vibrational temperatures:     62.29   119.54   235.29   252.88   309.31
          (Kelvin)            382.39   406.63   478.35   493.15   545.88
                              631.53   658.70   727.90   752.65   774.91
                              787.29   810.88   827.81   863.23   960.06
                             1016.70  1035.14  1066.24  1078.44  1113.16
                             1137.62  1181.86  1258.70  1276.22  1280.00
                             1382.02  1385.92  1404.66  1430.81  1449.78
                             1511.31  1518.75  1571.67  1619.88  1662.00
                             1675.47  1696.80  1760.58  1800.40  1855.60
                             1867.06  1923.72  1950.66  2009.86  2023.32
                             2092.81  2113.39  2174.51  2199.44  2212.45
                             2265.87  2345.26  2383.47  2409.74  4611.83
                             4620.39  4622.16  4631.44  4638.88  4644.19
                             4654.83  4658.35  4756.67

 Zero-point correction=                           0.186938 (Hartree/Particle)
 Thermal correction to Energy=                    0.198425
 Thermal correction to Enthalpy=                  0.199369
 Thermal correction to Gibbs Free Energy=         0.148889
 Sum of electronic and zero-point Energies=          -1028.510858
 Sum of electronic and thermal Energies=             -1028.499371
 Sum of electronic and thermal Enthalpies=           -1028.498427
 Sum of electronic and thermal Free Energies=        -1028.548908

                     E (Thermal)             CV                S
                      KCal/Mol        Cal/Mol-Kelvin    Cal/Mol-Kelvin
 Total                  124.514             47.443            106.245
 Electronic               0.000              0.000              0.000
 Translational            0.889              2.981             42.162
 Rotational               0.889              2.981             32.483
 Vibrational            122.736             41.481             31.600
 Vibration     1          0.595              1.980              5.103
 Vibration     2          0.600              1.961              3.817
 Vibration     3          0.623              1.887              2.508
 Vibration     4          0.628              1.872              2.373
 Vibration     5          0.645              1.818              2.001
 Vibration     6          0.672              1.736              1.624
 Vibration     7          0.682              1.706              1.518
 Vibration     8          0.714              1.611              1.248
 Vibration     9          0.722              1.590              1.199
 Vibration    10          0.749              1.514              1.042
 Vibration    11          0.799              1.385              0.830
 Vibration    12          0.816              1.344              0.772
 Vibration    13          0.861              1.237              0.643
 Vibration    14          0.878              1.199              0.603
 Vibration    15          0.894              1.165              0.568
 Vibration    16          0.902              1.146              0.550
 Vibration    17          0.919              1.110              0.517
 Vibration    18          0.932              1.085              0.494
 Vibration    19          0.958              1.032              0.450

 Optimization completed.
    -- Stationary point found.
 Normal termination of Gaussian 16 at Mon Jul 13 23:44:53 2020.
