 Gaussian 16, Revision C.01,
 Gaussian 16:  ES64L-G16RevC.01  3-Jul-2019

 ----------------------------------------------------------------------
 #p opt=addgic freq td wb97xd/cc-pvdz nosymm int=ultrafine scrf=(solven
 t=CarbonTetraChloride)
 ----------------------------------------------------------------------

 ------------------------------------------------
 NM 2D-scan of HBT TD-WB97XD pVDZ in CTC Relaxed.
 ------------------------------------------------
 Symbolic Z-matrix:
 Charge =  0 Multiplicity = 1

 SCF Done:  E(RwB97XD) =  -1028.51263363     A.U. after   15 cycles
 Total Energy, E(TD-HF/TD-DFT) =  -1028.38068616
 SCF Done:  E(RwB97XD) =  -1028.75319203     A.U. after   13 cycles
 Total Energy, E(TD-HF/TD-DFT) =  -1028.62303174
 SCF Done:  E(RwB97XD) =  -1028.80434223     A.U. after   15 cycles
 Total Energy, E(TD-HF/TD-DFT) =  -1028.67854715
 SCF Done:  E(RwB97XD) =  -1028.81461439     A.U. after   13 cycles
 Total Energy, E(TD-HF/TD-DFT) =  -1028.68745526
 SCF Done:  E(RwB97XD) =  -1028.81524996     A.U. after   11 cycles
 Total Energy, E(TD-HF/TD-DFT) =  -1028.68767873
 SCF Done:  E(RwB97XD) =  -1028.81541798     A.U. after    9 cycles
 Total Energy, E(TD-HF/TD-DFT) =  -1028.68769231
 SCF Done:  E(RwB97XD) =  -1028.81545272     A.U. after    9 cycles
 Total Energy, E(TD-HF/TD-DFT) =  -1028.68769380
 Optimization completed.
    -- Stationary point found.
 Normal termination of Gaussian 16 at Mon Jul 13 20:34:05 2020.

 ----------------------------------------------------------------------
 #P Geom=AllCheck Guess=TCheck SCRF=Check GenChk RwB97XD TD(FC,Read)/CC
 -pVDZ Freq
 ----------------------------------------------------------------------

 Structure from the checkpoint file:  "config_1_9.chk"
 ------------------------------------------------
 NM 2D-scan of HBT TD-WB97XD pVDZ in CTC Relaxed.
 ------------------------------------------------
 Charge =  0 Multiplicity = 1

                          Input orientation:
 ---------------------------------------------------------------------
 Center     Atomic      Atomic             Coordinates (Angstroms)
 Number     Number       Type             X           Y           Z
 ---------------------------------------------------------------------
      1          6           0        1.654415   -3.315934   -0.000020
      2          6           0        0.959877   -2.105057   -0.000012
      3          6           0        1.681197   -0.856714   -0.000010
      4          6           0        3.103088   -0.862765   -0.000017
      5          6           0        3.767050   -2.065349   -0.000026
      6          6           0        3.051751   -3.286477   -0.000028
      7          1           0        1.124972   -4.269691   -0.000021
      8          1           0        3.626759    0.093655   -0.000015
      9          1           0        4.858286   -2.085142   -0.000032
     10          1           0        3.602366   -4.228573   -0.000035
     11          7           0        0.962779    0.261750   -0.000003
     12         16           0       -0.763682   -1.776078   -0.000002
     13          6           0       -1.329074    1.050536    0.000002
     14          6           0       -2.746740    0.834282   -0.000007
     15          6           0       -0.913685    2.473718    0.000023
     16          6           0       -3.642838    1.884824    0.000021
     17          1           0       -3.119001   -0.191880   -0.000033
     18          6           0       -1.851578    3.506905    0.000057
     19          6           0       -3.207408    3.232741    0.000058
     20          1           0       -4.712824    1.671110    0.000016
     21          1           0       -1.462689    4.525508    0.000079
     22          1           0       -3.933206    4.046372    0.000084
     23          6           0       -0.374222    0.012903    0.000000
     24          8           0        0.349512    2.887429    0.000018
     25          1           0        0.941924    2.107564    0.000014
 ---------------------------------------------------------------------

 SCF Done:  E(RwB97XD) =  -1028.81545272     A.U. after    1 cycles

 Excitation energies and oscillator strengths:

 Excited state symmetry could not be determined.
 Excited State   1:      Singlet-?Sym    3.4765 eV  356.64 nm  f=0.7555  <S**2>=0.000
      59 -> 60         0.68986
 This state for optimization and/or second-order correction.
 Total Energy, E(TD-HF/TD-DFT) =  -1028.68769379
 Copying the excited state density for this state as the 1-particle RhoCI density.

 Excited state symmetry could not be determined.
 Excited State   2:      Singlet-?Sym    4.3840 eV  282.81 nm  f=0.1409  <S**2>=0.000
      57 -> 60         0.40734
      58 -> 60         0.51577
      58 -> 63         0.10322
      59 -> 62        -0.16480

 Excited state symmetry could not be determined.
 Excited State   3:      Singlet-?Sym    4.5249 eV  274.00 nm  f=0.0798  <S**2>=0.000
      57 -> 60         0.48184
      57 -> 63        -0.12635
      58 -> 60        -0.39169
      59 -> 61         0.22956

 Alpha  occ. eigenvalues --  -89.08925 -19.29323 -14.46816 -10.39757 -10.38472
 Alpha  occ. eigenvalues --  -10.34789 -10.34647 -10.33190 -10.32414 -10.32133
 Alpha  occ. eigenvalues --  -10.31993 -10.31336 -10.31152 -10.31088 -10.30609
 Alpha  occ. eigenvalues --  -10.30392  -8.10777  -6.05633  -6.05302  -6.04831
 Alpha  occ. eigenvalues --   -1.17616  -1.07939  -0.96677  -0.95521  -0.91354
 Alpha  occ. eigenvalues --   -0.88747  -0.85153  -0.84295  -0.82149  -0.76021
 Alpha  occ. eigenvalues --   -0.71174  -0.70103  -0.69110  -0.68218  -0.63371
 Alpha  occ. eigenvalues --   -0.60014  -0.58961  -0.58386  -0.56014  -0.54428
 Alpha  occ. eigenvalues --   -0.53388  -0.53163  -0.52643  -0.50718  -0.50533
 Alpha  occ. eigenvalues --   -0.49006  -0.48070  -0.45817  -0.45458  -0.44723
 Alpha  occ. eigenvalues --   -0.43774  -0.42948  -0.42029  -0.39813  -0.37623
 Alpha  occ. eigenvalues --   -0.36396  -0.31981  -0.31642  -0.27906
 Alpha virt. eigenvalues --   -0.01909   0.05303   0.06841   0.07100   0.07168
 Alpha virt. eigenvalues --    0.11352   0.13239   0.15128   0.16004   0.17828
 Alpha virt. eigenvalues --    0.18500   0.20469   0.21644   0.22274   0.22832

 Mulliken charges:
               1
     1  C    0.008308
     2  C   -0.212209
     3  C    0.211633
     4  C   -0.015313
     5  C    0.008713
     6  C   -0.010006
     7  H    0.018147
     8  H    0.013460
     9  H    0.017240
    10  H    0.019808
    11  N   -0.336912
    12  S    0.142140
    13  C   -0.076281
    14  C   -0.017883
    15  C    0.073700
    16  C   -0.008574
    17  H    0.015672
    18  C    0.020001
    19  C    0.019906
    20  H    0.012549
    21  H    0.020515
    22  H    0.023032
    23  C    0.071109
    24  O   -0.178479
    25  H    0.159725
 Sum of Mulliken charges =  -0.00000

 Dipole moment (field-independent basis, Debye):
    X=             -0.5146    Y=             -1.4584    Z=              0.0000  Tot=              1.5465
 Quadrupole moment (field-independent basis, Debye-Ang):
   XX=            -83.0895   YY=            -88.8871   ZZ=           -104.5320
   XY=             -6.6730   XZ=             -0.0001   YZ=              0.0003

  Exact polarizability:     409.235    -201.494     402.599      -0.003       0.004      63.549
 Approx polarizability:     281.973     -37.691     264.668      -0.001       0.002      82.471

                      1                      2                      3
                      A                      A                      A
 Frequencies --     30.2429                75.0272               102.6334
 Red. masses --      5.9362                 5.4440                 5.6390
 Frc consts  --      0.0032                 0.0181                 0.0350
 IR Inten    --      1.0584                 0.0116                 1.8203

                      4                      5                      6
                      A                      A                      A
 Frequencies --    108.7790               184.1563               224.7301
 Red. masses --      4.8184                 6.8824                 5.4992
 Frc consts  --      0.0336                 0.1375                 0.1636
 IR Inten    --      0.4428                 0.8999                 0.0050

                      7                      8                      9
                      A                      A                      A
 Frequencies --    253.5032               267.8539               279.7376
 Red. masses --      8.2574                 4.8050                 6.4973
 Frc consts  --      0.3127                 0.2031                 0.2996
 IR Inten    --     12.4662                 0.1408                15.4458

                     10                     11                     12
                      A                      A                      A
 Frequencies --    391.8791               397.1882               439.0719
 Red. masses --      8.5440                 4.5998                 3.3215
 Frc consts  --      0.7731                 0.4275                 0.3773
 IR Inten    --     13.1729                 0.0995                 4.2318

                     13                     14                     15
                      A                      A                      A
 Frequencies --    485.0889               494.9010               498.1015
 Red. masses --      4.8849                 4.3764                 8.6128
 Frc consts  --      0.6772                 0.6315                 1.2590
 IR Inten    --     21.2153                 0.0365                 0.2844

                     16                     17                     18
                      A                      A                      A
 Frequencies --    509.2465               523.2096               546.4711
 Red. masses --      3.1350                 8.1460                 3.9203
 Frc consts  --      0.4790                 1.3139                 0.6898
 IR Inten    --      0.4946                21.8368                 0.5896

                     19                     20                     21
                      A                      A                      A
 Frequencies --    578.0983               640.6917               652.1374
 Red. masses --      7.7543                 6.9133                 8.6301
 Frc consts  --      1.5269                 1.6720                 2.1624
 IR Inten    --     77.1748                36.8089                26.7234

                     22                     23                     24
                      A                      A                      A
 Frequencies --    704.0723               710.8387               733.8326
 Red. masses --      6.6785                 1.4631                 1.8994
 Frc consts  --      1.9506                 0.4356                 0.6027
 IR Inten    --      9.6028                95.5845                35.7412

                     25                     26                     27
                      A                      A                      A
 Frequencies --    744.4747               761.1436               773.9290
 Red. masses --      1.8646                 1.3439                 2.0393
 Frc consts  --      0.6089                 0.4587                 0.7197
 IR Inten    --     27.0875                 9.4750                68.1259

                     28                     29                     30
                      A                      A                      A
 Frequencies --    800.1536               828.3057               860.5568
 Red. masses --      6.6797                 1.5231                 1.4301
 Frc consts  --      2.5197                 0.6157                 0.6240
 IR Inten    --     21.4289                 0.0396                 1.5141

                     31                     32                     33
                      A                      A                      A
 Frequencies --    882.4384               928.3886               941.3260
 Red. masses --      6.3474                 1.3425                 7.1680
 Frc consts  --      2.9121                 0.6818                 3.7422
 IR Inten    --     57.8419                 2.7266                 7.1285

                     34                     35                     36
                      A                      A                      A
 Frequencies --    955.2708               971.6010              1000.6009
 Red. masses --      1.3413                 1.3377                 1.3014
 Frc consts  --      0.7212                 0.7440                 0.7677
 IR Inten    --      2.0213                 0.0049                 0.0085

                     37                     38                     39
                      A                      A                      A
 Frequencies --   1037.0085              1041.7914              1071.0287
 Red. masses --      2.1361                 2.2450                 5.2102
 Frc consts  --      1.3534                 1.4356                 3.5214
 IR Inten    --      1.4006                 5.0061                27.4481

                     40                     41                     42
                      A                      A                      A
 Frequencies --   1135.0501              1148.3645              1175.7069
 Red. masses --      1.5324                 1.2989                 1.1733
 Frc consts  --      1.1632                 1.0093                 0.9556
 IR Inten    --     31.2837                15.8940                30.9021

                     43                     44                     45
                      A                      A                      A
 Frequencies --   1180.1965              1209.5378              1226.8929
 Red. masses --      1.1749                 5.9772                 1.4456
 Frc consts  --      0.9642                 5.1521                 1.2821
 IR Inten    --      9.9458                87.5110               159.0610

                     46                     47                     48
                      A                      A                      A
 Frequencies --   1275.8970              1277.8401              1355.1946
 Red. masses --      1.6934                 2.4349                 2.8192
 Frc consts  --      1.6243                 2.3425                 3.0505
 IR Inten    --     23.5434               191.0247                97.0644

                     49                     50                     51
                      A                      A                      A
 Frequencies --   1367.9015              1398.6766              1423.2696
 Red. masses --      5.2776                 1.9335                 2.4349
 Frc consts  --      5.8183                 2.2286                 2.9061
 IR Inten    --     18.6104               120.7894               256.2254

                     52                     53                     54
                      A                      A                      A
 Frequencies --   1463.8705              1472.9674              1519.3029
 Red. masses --      1.9895                 3.2413                 6.0383
 Frc consts  --      2.5118                 4.1434                 8.2121
 IR Inten    --     93.4609                42.2512                63.6669

                     55                     56                     57
                      A                      A                      A
 Frequencies --   1537.5710              1554.2512              1573.5888
 Red. masses --      4.5228                 5.4575                 4.1446
 Frc consts  --      6.2998                 7.7675                 6.0467
 IR Inten    --     16.1055               462.2945                73.8112

                     58                     59                     60
                      A                      A                      A
 Frequencies --   1594.0050              1637.8834              1651.7178
 Red. masses --      5.4644                 5.4658                 5.9065
 Frc consts  --      8.1804                 8.6391                 9.4941
 IR Inten    --    149.2888               351.4579               218.0119

                     61                     62                     63
                      A                      A                      A
 Frequencies --   3205.3930              3207.9052              3218.2152
 Red. masses --      1.0868                 1.0862                 1.0899
 Frc consts  --      6.5788                 6.5856                 6.6505
 IR Inten    --      2.9114                 8.2926                 4.0715

                     64                     65                     66
                      A                      A                      A
 Frequencies --   3219.2223              3227.2152              3230.3323
 Red. masses --      1.0888                 1.0940                 1.0955
 Frc consts  --      6.6483                 6.7133                 6.7350
 IR Inten    --      0.7503                16.6669                14.8836

                     67                     68                     69
                      A                      A                      A
 Frequencies --   3236.8194              3239.8808              3476.7609
 Red. masses --      1.0991                 1.0990                 1.0685
 Frc consts  --      6.7844                 6.7970                 7.6097
 IR Inten    --     40.4974                27.2957                 1.8346

 - Thermochemistry -
 -------------------
 Temperature   298.150 Kelvin.  Pressure   1.00000 Atm.
 Atom     1 has atomic number  6 and mass  12.00000

 Molecular mass:   227.04049 amu.
 Principal axes and moments of inertia in atomic units:
                           1         2         3
     Eigenvalues --  1362.694336397.884337760.57866
           X           -0.69285   0.72108   0.00000
           Y            0.72108   0.69285  -0.00001
           Z            0.00001   0.00000   1.00000
 This molecule is an asymmetric top.
 Rotational symmetry number  1.
 Warning -- assumption of classical behavior for rotation
           may cause significant error
 Rotational temperatures (Kelvin)      0.06356     0.01354     0.01116
 Rotational constants (GHZ):           1.32439     0.28208     0.23255
 Zero-point vibrational energy     489697.0 (Joules/Mol)
                                  117.04039 (Kcal/Mol)
 Warning -- explicit consideration of  19 degrees of freedom as
           vibrations may cause significant error
 Vibrational temperatures:     43.51   107.95   147.67   156.51   264.96
          (Kelvin)            323.34   364.73   385.38   402.48   563.83
                              571.47   631.73   697.93   712.05   716.66
                              732.69   752.78   786.25   831.75   921.81
                              938.28  1013.00  1022.74  1055.82  1071.13
                             1095.12  1113.51  1151.24  1191.75  1238.15
                             1269.63  1335.74  1354.36  1374.42  1397.92
                             1439.64  1492.02  1498.91  1540.97  1633.08
                             1652.24  1691.58  1698.04  1740.26  1765.23
                             1835.73  1838.53  1949.82  1968.11  2012.38
                             2047.77  2106.18  2119.27  2185.94  2212.22
                             2236.22  2264.04  2293.42  2356.55  2376.45
                             4611.85  4615.46  4630.29  4631.74  4643.24
                             4647.73  4657.06  4661.47  5002.28

 Zero-point correction=                           0.186516 (Hartree/Particle)
 Thermal correction to Energy=                    0.198979
 Thermal correction to Enthalpy=                  0.199923
 Thermal correction to Gibbs Free Energy=         0.146823
 Sum of electronic and zero-point Energies=          -1028.501178
 Sum of electronic and thermal Energies=             -1028.488715
 Sum of electronic and thermal Enthalpies=           -1028.487771
 Sum of electronic and thermal Free Energies=        -1028.540871

                     E (Thermal)             CV                S
                      KCal/Mol        Cal/Mol-Kelvin    Cal/Mol-Kelvin
 Total                  124.861             49.978            111.759
 Electronic               0.000              0.000              0.000
 Translational            0.889              2.981             42.162
 Rotational               0.889              2.981             32.581
 Vibrational            123.084             44.016             37.016
 Vibration     1          0.594              1.984              5.813
 Vibration     2          0.599              1.966              4.017
 Vibration     3          0.605              1.947              3.404
 Vibration     4          0.606              1.942              3.291
 Vibration     5          0.631              1.861              2.286
 Vibration     6          0.649              1.803              1.921
 Vibration     7          0.665              1.757              1.706
 Vibration     8          0.673              1.732              1.610
 Vibration     9          0.680              1.711              1.535
 Vibration    10          0.759              1.488              0.993
 Vibration    11          0.764              1.476              0.973
 Vibration    12          0.799              1.385              0.830
 Vibration    13          0.841              1.283              0.696
 Vibration    14          0.851              1.261              0.671
 Vibration    15          0.854              1.254              0.663
 Vibration    16          0.864              1.230              0.635
 Vibration    17          0.878              1.199              0.603
 Vibration    18          0.902              1.147              0.552
 Vibration    19          0.935              1.079              0.489

 Optimization completed.
    -- Stationary point found.
 Normal termination of Gaussian 16 at Mon Jul 13 20:51:51 2020.
