 Gaussian 16, Revision C.01,
 Gaussian 16:  ES64L-G16RevC.01  3-Jul-2019

 ----------------------------------------------------------------------
 #p opt=addgic freq td wb97xd/cc-pvdz nosymm int=ultrafine scrf=(solven
 t=CarbonTetraChloride)
 ----------------------------------------------------------------------

 ------------------------------------------------
 NM 2D-scan of HBT TD-WB97XD pVDZ in CTC Relaxed.
 ------------------------------------------------
 Symbolic Z-matrix:
 Charge =  0 Multiplicity = 1

 SCF Done:  E(RwB97XD) =  -1028.77197835     A.U. after   16 cycles
 Total Energy, E(TD-HF/TD-DFT) =  -1028.66442265
 SCF Done:  E(RwB97XD) =  -1028.79600252     A.U. after   14 cycles
 Total Energy, E(TD-HF/TD-DFT) =  -1028.69358156
 SCF Done:  E(RwB97XD) =  -1028.80113148     A.U. after   13 cycles
 Total Energy, E(TD-HF/TD-DFT) =  -1028.69772756
 SCF Done:  E(RwB97XD) =  -1028.80162062     A.U. after   12 cycles
 Total Energy, E(TD-HF/TD-DFT) =  -1028.69818247
 SCF Done:  E(RwB97XD) =  -1028.80163462     A.U. after    9 cycles
 Total Energy, E(TD-HF/TD-DFT) =  -1028.69818891
 Optimization completed.
    -- Stationary point found.
 Normal termination of Gaussian 16 at Tue Jul 14 16:37:06 2020.

 ----------------------------------------------------------------------
 #P Geom=AllCheck Guess=TCheck SCRF=Check GenChk RwB97XD TD(FC,Read)/CC
 -pVDZ Freq
 ----------------------------------------------------------------------

 Structure from the checkpoint file:  "config_9_19.chk"
 ------------------------------------------------
 NM 2D-scan of HBT TD-WB97XD pVDZ in CTC Relaxed.
 ------------------------------------------------
 Charge =  0 Multiplicity = 1

                          Input orientation:
 ---------------------------------------------------------------------
 Center     Atomic      Atomic             Coordinates (Angstroms)
 Number     Number       Type             X           Y           Z
 ---------------------------------------------------------------------
      1          6           0        1.527795   -3.287784   -0.000025
      2          6           0        0.999235   -2.001832   -0.000018
      3          6           0        1.816382   -0.848972   -0.000015
      4          6           0        3.211693   -1.003033   -0.000022
      5          6           0        3.735787   -2.293149   -0.000028
      6          6           0        2.912299   -3.428344   -0.000029
      7          1           0        0.869839   -4.157396   -0.000026
      8          1           0        3.864606   -0.129733   -0.000020
      9          1           0        4.819497   -2.420280   -0.000032
     10          1           0        3.356308   -4.424283   -0.000033
     11          7           0        1.072977    0.308722   -0.000009
     12         16           0       -0.693399   -1.569179   -0.000013
     13          6           0       -1.302870    1.125701    0.000023
     14          6           0       -2.645216    0.753562    0.000034
     15          6           0       -0.944851    2.556933    0.000034
     16          6           0       -3.677321    1.718608    0.000035
     17          1           0       -2.924715   -0.302361    0.000039
     18          6           0       -2.026531    3.489742    0.000028
     19          6           0       -3.366084    3.076835    0.000027
     20          1           0       -4.716154    1.385922    0.000039
     21          1           0       -1.761263    4.548510    0.000029
     22          1           0       -4.164998    3.819888    0.000023
     23          6           0       -0.280005    0.126048    0.000002
     24          8           0        0.271988    2.902808    0.000045
     25          1           0        1.368034    1.299318    0.000015
 ---------------------------------------------------------------------

 SCF Done:  E(RwB97XD) =  -1028.80163462     A.U. after    1 cycles

 Excitation energies and oscillator strengths:

 Excited state symmetry could not be determined.
 Excited State   1:      Singlet-?Sym    2.8149 eV  440.46 nm  f=0.4437  <S**2>=0.000
      59 -> 60         0.69752
 This state for optimization and/or second-order correction.
 Total Energy, E(TD-HF/TD-DFT) =  -1028.69818891
 Copying the excited state density for this state as the 1-particle RhoCI density.

 Excited state symmetry could not be determined.
 Excited State   2:      Singlet-?Sym    3.5025 eV  353.99 nm  f=0.0000  <S**2>=0.000
      58 -> 60         0.68351
      58 -> 62         0.11660
      58 -> 64         0.11056

 Excited state symmetry could not be determined.
 Excited State   3:      Singlet-?Sym    4.2569 eV  291.26 nm  f=0.3490  <S**2>=0.000
      57 -> 60         0.68430

 Alpha  occ. eigenvalues --  -89.10214 -19.20637 -14.53311 -10.42096 -10.37910
 Alpha  occ. eigenvalues --  -10.36189 -10.35555 -10.33376 -10.33231 -10.32682
 Alpha  occ. eigenvalues --  -10.32467 -10.31431 -10.30808 -10.30788 -10.29181
 Alpha  occ. eigenvalues --  -10.28347  -8.12288  -6.07155  -6.06782  -6.06307
 Alpha  occ. eigenvalues --   -1.12825  -1.08678  -0.98533  -0.95755  -0.93311
 Alpha  occ. eigenvalues --   -0.89079  -0.86928  -0.83689  -0.81184  -0.75863
 Alpha  occ. eigenvalues --   -0.73525  -0.72294  -0.68861  -0.67636  -0.65256
 Alpha  occ. eigenvalues --   -0.61067  -0.59703  -0.56653  -0.56017  -0.55858
 Alpha  occ. eigenvalues --   -0.55082  -0.53952  -0.53059  -0.50289  -0.48684
 Alpha  occ. eigenvalues --   -0.48632  -0.48608  -0.47035  -0.45564  -0.44915
 Alpha  occ. eigenvalues --   -0.44042  -0.42872  -0.42301  -0.39932  -0.36855
 Alpha  occ. eigenvalues --   -0.33734  -0.31411  -0.31227  -0.25728
 Alpha virt. eigenvalues --   -0.02120   0.03668   0.05472   0.06761   0.09434
 Alpha virt. eigenvalues --    0.10815   0.13942   0.14800   0.16219   0.17278
 Alpha virt. eigenvalues --    0.17917   0.19862   0.20553   0.21183   0.22416

 Mulliken charges:
               1
     1  C    0.021844
     2  C   -0.232014
     3  C    0.246201
     4  C   -0.011226
     5  C    0.009789
     6  C    0.003842
     7  H    0.025385
     8  H    0.030944
     9  H    0.027983
    10  H    0.027224
    11  N   -0.143217
    12  S    0.199608
    13  C   -0.068444
    14  C   -0.040869
    15  C    0.101670
    16  C   -0.032563
    17  H    0.015365
    18  C   -0.036306
    19  C    0.033471
    20  H    0.001272
    21  H    0.001206
    22  H    0.014548
    23  C    0.062316
    24  O   -0.399981
    25  H    0.141951
 Sum of Mulliken charges =  -0.00000

 Dipole moment (field-independent basis, Debye):
    X=              2.1042    Y=             -6.0616    Z=             -0.0001  Tot=              6.4164
 Quadrupole moment (field-independent basis, Debye-Ang):
   XX=            -81.4603   YY=            -97.5006   ZZ=           -104.1673
   XY=             -6.1732   XZ=             -0.0001   YZ=             -0.0001

  Exact polarizability:     346.490    -120.573     296.580      -0.002       0.002      63.185
 Approx polarizability:     272.874     -36.400     264.608      -0.001       0.001      81.942

 ******    1 imaginary frequencies (negative Signs) ******

                      1                      2                      3
                      A                      A                      A
 Frequencies --    -28.5452                45.0966                98.7159
 Red. masses --      5.0646                 5.8697                 5.7418
 Frc consts  --      0.0024                 0.0070                 0.0330
 IR Inten    --      1.4308                 0.9642                10.7183

                      4                      5                      6
                      A                      A                      A
 Frequencies --    117.4442               183.6980               225.2223
 Red. masses --      5.8799                 5.7276                 5.5573
 Frc consts  --      0.0478                 0.1139                 0.1661
 IR Inten    --      1.5591                 0.0315                 0.2415

                      7                      8                      9
                      A                      A                      A
 Frequencies --    253.5675               273.7174               283.8582
 Red. masses --      8.4322                 4.5665                 7.1015
 Frc consts  --      0.3194                 0.2016                 0.3371
 IR Inten    --      3.4505                 0.3801                 1.4458

                     10                     11                     12
                      A                      A                      A
 Frequencies --    350.8882               391.0075               432.0954
 Red. masses --      4.7033                 7.8295                 3.6100
 Frc consts  --      0.3412                 0.7053                 0.3971
 IR Inten    --      1.1992                 7.9149                 2.0403

                     13                     14                     15
                      A                      A                      A
 Frequencies --    452.1108               506.4076               512.2074
 Red. masses --      4.1542                 8.4991                 3.2226
 Frc consts  --      0.5003                 1.2842                 0.4981
 IR Inten    --      4.2972                13.1697                 0.2590

                     16                     17                     18
                      A                      A                      A
 Frequencies --    540.8243               543.8588               559.7659
 Red. masses --      6.2977                 8.3992                 3.8536
 Frc consts  --      1.0853                 1.4637                 0.7114
 IR Inten    --     39.1033                 6.6943                 0.5280

                     19                     20                     21
                      A                      A                      A
 Frequencies --    567.9394               631.5070               695.0322
 Red. masses --      7.2131                 6.1376                 1.4891
 Frc consts  --      1.3708                 1.4421                 0.4238
 IR Inten    --     11.0357                32.0177                45.6303

                     22                     23                     24
                      A                      A                      A
 Frequencies --    720.3483               731.5857               744.1061
 Red. masses --      5.8843                 7.8110                 2.6082
 Frc consts  --      1.7990                 2.4631                 0.8509
 IR Inten    --      2.7338                 4.4202                 9.9391

                     25                     26                     27
                      A                      A                      A
 Frequencies --    756.2279               766.6379               803.4468
 Red. masses --      1.6362                 1.6110                 1.1020
 Frc consts  --      0.5513                 0.5579                 0.4191
 IR Inten    --      1.3483                93.2765                68.3892

                     28                     29                     30
                      A                      A                      A
 Frequencies --    824.8544               831.2916               863.9045
 Red. masses --      6.0465                 2.0517                 4.4408
 Frc consts  --      2.4239                 0.8354                 1.9527
 IR Inten    --     17.6190                 4.7891                 3.0663

                     31                     32                     33
                      A                      A                      A
 Frequencies --    871.1463               899.0605               951.6120
 Red. masses --      1.3741                 1.4495                 1.3597
 Frc consts  --      0.6144                 0.6903                 0.7255
 IR Inten    --      0.3977                 8.8813                 0.4453

                     34                     35                     36
                      A                      A                      A
 Frequencies --    958.9835               959.5202              1004.3703
 Red. masses --      1.3525                 5.1690                 1.2987
 Frc consts  --      0.7328                 2.8039                 0.7719
 IR Inten    --      1.4673                 0.2689                 0.0112

                     37                     38                     39
                      A                      A                      A
 Frequencies --   1043.6344              1052.6058              1093.9637
 Red. masses --      2.0100                 2.0754                 3.7959
 Frc consts  --      1.2898                 1.3548                 2.6765
 IR Inten    --      4.0485                 5.4248                 1.4747

                     40                     41                     42
                      A                      A                      A
 Frequencies --   1112.2466              1153.6194              1161.6559
 Red. masses --      1.5439                 1.2440                 1.3290
 Frc consts  --      1.1253                 0.9754                 1.0567
 IR Inten    --     27.7288                36.8187                33.2019

                     43                     44                     45
                      A                      A                      A
 Frequencies --   1176.5768              1197.8049              1234.0899
 Red. masses --      1.1684                 1.5811                 2.1248
 Frc consts  --      0.9529                 1.3366                 1.9066
 IR Inten    --     39.1152                44.1651                22.8533

                     46                     47                     48
                      A                      A                      A
 Frequencies --   1262.3672              1296.9644              1339.0868
 Red. masses --      2.3492                 1.8247                 4.6252
 Frc consts  --      2.2056                 1.8084                 4.8865
 IR Inten    --     30.4741                 3.5233                 6.0730

                     49                     50                     51
                      A                      A                      A
 Frequencies --   1361.7093              1388.8018              1400.2002
 Red. masses --      5.0245                 3.2994                 2.4960
 Frc consts  --      5.4893                 3.7494                 2.8832
 IR Inten    --    159.2332                14.4060                 9.5374

                     52                     53                     54
                      A                      A                      A
 Frequencies --   1428.1883              1478.8234              1501.2890
 Red. masses --      3.0000                 3.1536                 3.0900
 Frc consts  --      3.6053                 4.0634                 4.1034
 IR Inten    --    270.5320                 2.1957                37.9858

                     55                     56                     57
                      A                      A                      A
 Frequencies --   1524.0793              1550.5482              1578.0157
 Red. masses --      3.8077                 4.8878                 4.7246
 Frc consts  --      5.2111                 6.9236                 6.9317
 IR Inten    --     34.4170               217.1412                88.5768

                     58                     59                     60
                      A                      A                      A
 Frequencies --   1610.9034              1647.0031              1666.4218
 Red. masses --      7.1011                 6.5616                 6.8030
 Frc consts  --     10.8571                10.4870                11.1306
 IR Inten    --    170.0190                48.3733               105.2766

                     61                     62                     63
                      A                      A                      A
 Frequencies --   3198.2871              3210.4721              3210.5792
 Red. masses --      1.0882                 1.0866                 1.0863
 Frc consts  --      6.5586                 6.5987                 6.5971
 IR Inten    --     23.0882                 2.8536                 6.7099

                     64                     65                     66
                      A                      A                      A
 Frequencies --   3220.5804              3222.8867              3229.0174
 Red. masses --      1.0900                 1.0923                 1.0959
 Frc consts  --      6.6614                 6.6845                 6.7323
 IR Inten    --      2.4116                14.4677                 7.1608

                     67                     68                     69
                      A                      A                      A
 Frequencies --   3235.1434              3237.3997              3350.4891
 Red. masses --      1.0987                 1.0997                 1.0838
 Frc consts  --      6.7754                 6.7909                 7.1686
 IR Inten    --     30.1872                12.4367               506.7351

 - Thermochemistry -
 -------------------
 Temperature   298.150 Kelvin.  Pressure   1.00000 Atm.
 Atom     1 has atomic number  6 and mass  12.00000

 Molecular mass:   227.04049 amu.
 Principal axes and moments of inertia in atomic units:
                           1         2         3
     Eigenvalues --  1276.307276467.879107744.18638
           X           -0.70153   0.71264   0.00000
           Y            0.71264   0.70153  -0.00001
           Z            0.00001   0.00000   1.00000
 This molecule is an asymmetric top.
 Rotational symmetry number  1.
 Warning -- assumption of classical behavior for rotation
           may cause significant error
 Rotational temperatures (Kelvin)      0.06786     0.01339     0.01118
 Rotational constants (GHZ):           1.41403     0.27903     0.23304
    1 imaginary frequencies ignored.
 Zero-point vibrational energy     488839.1 (Joules/Mol)
                                  116.83535 (Kcal/Mol)
 Warning -- explicit consideration of  18 degrees of freedom as
           vibrations may cause significant error
 Vibrational temperatures:     64.88   142.03   168.98   264.30   324.04
          (Kelvin)            364.83   393.82   408.41   504.85   562.57
                              621.69   650.49   728.61   736.95   778.13
                              782.49   805.38   817.14   908.60  1000.00
                             1036.42  1052.59  1070.60  1088.04  1103.02
                             1155.98  1186.78  1196.04  1242.97  1253.39
                             1293.55  1369.16  1379.76  1380.54  1445.06
                             1501.56  1514.46  1573.97  1600.27  1659.80
                             1671.36  1692.83  1723.37  1775.58  1816.26
                             1866.04  1926.65  1959.20  1998.18  2014.58
                             2054.84  2127.70  2160.02  2192.81  2230.89
                             2270.41  2317.73  2369.67  2397.61  4601.62
                             4619.15  4619.31  4633.70  4637.02  4645.84
                             4654.65  4657.90  4820.61

 Zero-point correction=                           0.186189 (Hartree/Particle)
 Thermal correction to Energy=                    0.197794
 Thermal correction to Enthalpy=                  0.198738
 Thermal correction to Gibbs Free Energy=         0.148021
 Sum of electronic and zero-point Energies=          -1028.512000
 Sum of electronic and thermal Energies=             -1028.500395
 Sum of electronic and thermal Enthalpies=           -1028.499451
 Sum of electronic and thermal Free Energies=        -1028.550167

                     E (Thermal)             CV                S
                      KCal/Mol        Cal/Mol-Kelvin    Cal/Mol-Kelvin
 Total                  124.117             47.780            106.741
 Electronic               0.000              0.000              0.000
 Translational            0.889              2.981             42.162
 Rotational               0.889              2.981             32.525
 Vibrational            122.340             41.818             32.054
 Vibration     1          0.595              1.979              5.022
 Vibration     2          0.604              1.950              3.480
 Vibration     3          0.608              1.935              3.142
 Vibration     4          0.631              1.862              2.290
 Vibration     5          0.650              1.803              1.917
 Vibration     6          0.665              1.757              1.706
 Vibration     7          0.676              1.722              1.573
 Vibration     8          0.682              1.704              1.510
 Vibration     9          0.728              1.573              1.162
 Vibration    10          0.759              1.489              0.996
 Vibration    11          0.793              1.400              0.852
 Vibration    12          0.811              1.356              0.789
 Vibration    13          0.862              1.236              0.642
 Vibration    14          0.867              1.223              0.628
 Vibration    15          0.896              1.160              0.564
 Vibration    16          0.899              1.153              0.557
 Vibration    17          0.915              1.118              0.524
 Vibration    18          0.924              1.101              0.508

 Optimization completed.
    -- Stationary point found.
 Normal termination of Gaussian 16 at Tue Jul 14 16:54:35 2020.
