 Gaussian 16, Revision C.01,
 Gaussian 16:  ES64L-G16RevC.01  3-Jul-2019

 ----------------------------------------------------------------------
 #p opt=addgic freq td wb97xd/cc-pvdz nosymm int=ultrafine scrf=(solven
 t=CarbonTetraChloride)
 ----------------------------------------------------------------------

 ------------------------------------------------
 NM 2D-scan of HBT TD-WB97XD pVDZ in CTC Relaxed.
 ------------------------------------------------
 Symbolic Z-matrix:
 Charge =  0 Multiplicity = 1

 SCF Done:  E(RwB97XD) =  -1028.56343295     A.U. after   16 cycles
 Total Energy, E(TD-HF/TD-DFT) =  -1028.45917124
 SCF Done:  E(RwB97XD) =  -1028.72341334     A.U. after   14 cycles
 Total Energy, E(TD-HF/TD-DFT) =  -1028.62243374
 SCF Done:  E(RwB97XD) =  -1028.76853351     A.U. after   15 cycles
 Total Energy, E(TD-HF/TD-DFT) =  -1028.67377296
 SCF Done:  E(RwB97XD) =  -1028.78646655     A.U. after   14 cycles
 Total Energy, E(TD-HF/TD-DFT) =  -1028.68898987
 SCF Done:  E(RwB97XD) =  -1028.78943622     A.U. after   13 cycles
 Total Energy, E(TD-HF/TD-DFT) =  -1028.69101182
 SCF Done:  E(RwB97XD) =  -1028.79030146     A.U. after   12 cycles
 Total Energy, E(TD-HF/TD-DFT) =  -1028.69125877
 SCF Done:  E(RwB97XD) =  -1028.79037963     A.U. after   11 cycles
 Total Energy, E(TD-HF/TD-DFT) =  -1028.69127425
 Optimization completed.
    -- Stationary point found.
 Normal termination of Gaussian 16 at Tue Jul 14 16:52:11 2020.

 ----------------------------------------------------------------------
 #P Geom=AllCheck Guess=TCheck SCRF=Check GenChk RwB97XD TD(FC,Read)/CC
 -pVDZ Freq
 ----------------------------------------------------------------------

 Structure from the checkpoint file:  "config_11_20.chk"
 ------------------------------------------------
 NM 2D-scan of HBT TD-WB97XD pVDZ in CTC Relaxed.
 ------------------------------------------------
 Charge =  0 Multiplicity = 1

                          Input orientation:
 ---------------------------------------------------------------------
 Center     Atomic      Atomic             Coordinates (Angstroms)
 Number     Number       Type             X           Y           Z
 ---------------------------------------------------------------------
      1          6           0        1.525818   -3.293280   -0.000013
      2          6           0        1.011488   -2.004697   -0.000013
      3          6           0        1.837537   -0.877650   -0.000022
      4          6           0        3.231781   -1.030455   -0.000031
      5          6           0        3.745110   -2.327591   -0.000030
      6          6           0        2.909403   -3.450393   -0.000021
      7          1           0        0.859191   -4.155691   -0.000005
      8          1           0        3.893647   -0.163309   -0.000037
      9          1           0        4.827656   -2.464079   -0.000036
     10          1           0        3.341474   -4.451380   -0.000020
     11          7           0        1.086212    0.274461   -0.000023
     12         16           0       -0.676898   -1.535193   -0.000001
     13          6           0       -1.322997    1.147270    0.000017
     14          6           0       -2.651476    0.761836    0.000020
     15          6           0       -0.964198    2.571787    0.000037
     16          6           0       -3.707509    1.720707    0.000027
     17          1           0       -2.923007   -0.296433    0.000015
     18          6           0       -2.068806    3.496683    0.000038
     19          6           0       -3.413258    3.074979    0.000032
     20          1           0       -4.739803    1.367663    0.000028
     21          1           0       -1.821575    4.560342    0.000052
     22          1           0       -4.218671    3.811538    0.000034
     23          6           0       -0.278305    0.149738   -0.000000
     24          8           0        0.248426    2.876767    0.000064
     25          1           0        1.595900    1.130573   -0.000014
 ---------------------------------------------------------------------

 SCF Done:  E(RwB97XD) =  -1028.79037963     A.U. after    1 cycles

 Excitation energies and oscillator strengths:

 Excited state symmetry could not be determined.
 Excited State   1:      Singlet-?Sym    2.6968 eV  459.75 nm  f=0.4406  <S**2>=0.000
      59 -> 60         0.69806
 This state for optimization and/or second-order correction.
 Total Energy, E(TD-HF/TD-DFT) =  -1028.69127423
 Copying the excited state density for this state as the 1-particle RhoCI density.

 Excited state symmetry could not be determined.
 Excited State   2:      Singlet-?Sym    3.2842 eV  377.51 nm  f=0.0000  <S**2>=0.000
      58 -> 60         0.68423
      58 -> 62         0.11327
      58 -> 64         0.10113

 Excited state symmetry could not be determined.
 Excited State   3:      Singlet-?Sym    4.2376 eV  292.58 nm  f=0.3769  <S**2>=0.000
      57 -> 60         0.68546

 Alpha  occ. eigenvalues --  -89.10259 -19.19934 -14.53610 -10.42631 -10.37688
 Alpha  occ. eigenvalues --  -10.36081 -10.35148 -10.33520 -10.33477 -10.32902
 Alpha  occ. eigenvalues --  -10.32584 -10.31299 -10.30696 -10.30592 -10.29019
 Alpha  occ. eigenvalues --  -10.28161  -8.12361  -6.07232  -6.06841  -6.06382
 Alpha  occ. eigenvalues --   -1.13217  -1.08755  -0.98717  -0.96017  -0.93287
 Alpha  occ. eigenvalues --   -0.89020  -0.87009  -0.83870  -0.80752  -0.75814
 Alpha  occ. eigenvalues --   -0.74604  -0.72258  -0.69346  -0.67537  -0.65007
 Alpha  occ. eigenvalues --   -0.61102  -0.59735  -0.56539  -0.56268  -0.56166
 Alpha  occ. eigenvalues --   -0.55133  -0.53852  -0.53047  -0.50213  -0.48697
 Alpha  occ. eigenvalues --   -0.48668  -0.48198  -0.47115  -0.45638  -0.44909
 Alpha  occ. eigenvalues --   -0.43881  -0.42720  -0.42335  -0.39748  -0.36933
 Alpha  occ. eigenvalues --   -0.33860  -0.31501  -0.30493  -0.25286
 Alpha virt. eigenvalues --   -0.02268   0.03538   0.05458   0.06919   0.09753
 Alpha virt. eigenvalues --    0.10963   0.13912   0.14590   0.15920   0.16655
 Alpha virt. eigenvalues --    0.17696   0.19698   0.20678   0.21171   0.22504

 Mulliken charges:
               1
     1  C    0.020709
     2  C   -0.232350
     3  C    0.206952
     4  C   -0.011136
     5  C    0.010344
     6  C    0.005482
     7  H    0.024961
     8  H    0.031590
     9  H    0.029248
    10  H    0.027943
    11  N   -0.110640
    12  S    0.198914
    13  C   -0.055413
    14  C   -0.045711
    15  C    0.094525
    16  C   -0.035936
    17  H    0.014718
    18  C   -0.058046
    19  C    0.035065
    20  H    0.000239
    21  H   -0.000976
    22  H    0.013760
    23  C    0.087995
    24  O   -0.377851
    25  H    0.125611
 Sum of Mulliken charges =  -0.00000

 Dipole moment (field-independent basis, Debye):
    X=              2.7417    Y=             -6.4182    Z=             -0.0001  Tot=              6.9793
 Quadrupole moment (field-independent basis, Debye-Ang):
   XX=            -80.7468   YY=            -98.2352   ZZ=           -104.1110
   XY=             -5.6571   XZ=             -0.0002   YZ=             -0.0003

  Exact polarizability:     345.371    -116.892     289.695      -0.002       0.001      63.225
 Approx polarizability:     275.272     -39.090     264.156      -0.001       0.001      81.930

 ******    1 imaginary frequencies (negative Signs) ******

                      1                      2                      3
                      A                      A                      A
 Frequencies --    -79.6272                52.7109               101.7447
 Red. masses --      4.4752                 6.2990                 5.8862
 Frc consts  --      0.0167                 0.0103                 0.0359
 IR Inten    --      3.1451                 0.6667                 0.4342

                      4                      5                      6
                      A                      A                      A
 Frequencies --    103.9505               179.4369               223.7115
 Red. masses --      5.8193                 5.4521                 5.6624
 Frc consts  --      0.0370                 0.1034                 0.1670
 IR Inten    --      6.6410                 0.0003                 3.0990

                      7                      8                      9
                      A                      A                      A
 Frequencies --    253.6269               268.1338               278.1910
 Red. masses --      9.2680                 3.6578                 7.2056
 Frc consts  --      0.3513                 0.1549                 0.3286
 IR Inten    --      1.7532                 6.4265                 1.5177

                     10                     11                     12
                      A                      A                      A
 Frequencies --    338.5859               382.9032               399.9127
 Red. masses --      4.1035                 6.9612                 2.4381
 Frc consts  --      0.2772                 0.6013                 0.2297
 IR Inten    --      2.2282                 6.7907                31.6062

                     13                     14                     15
                      A                      A                      A
 Frequencies --    440.8601               468.1606               504.4423
 Red. masses --      3.6667                 1.4763                 8.3099
 Frc consts  --      0.4199                 0.1906                 1.2459
 IR Inten    --     10.5217                33.5555                12.3785

                     16                     17                     18
                      A                      A                      A
 Frequencies --    515.8817               532.1928               544.5599
 Red. masses --      3.2475                 6.1222                 8.7029
 Frc consts  --      0.5092                 1.0216                 1.5206
 IR Inten    --      0.6570                29.9325                19.0335

                     19                     20                     21
                      A                      A                      A
 Frequencies --    560.8899               566.2031               638.7925
 Red. masses --      3.8189                 7.3389                 6.4618
 Frc consts  --      0.7078                 1.3862                 1.5535
 IR Inten    --      0.0464                 5.7385                10.9582

                     22                     23                     24
                      A                      A                      A
 Frequencies --    692.0090               716.7048               740.7965
 Red. masses --      1.4711                 5.5897                 7.4132
 Frc consts  --      0.4151                 1.6917                 2.3969
 IR Inten    --     34.9694                 1.6211                 5.6982

                     25                     26                     27
                      A                      A                      A
 Frequencies --    745.8251               754.5591               766.8378
 Red. masses --      2.3744                 1.6502                 1.7347
 Frc consts  --      0.7782                 0.5536                 0.6010
 IR Inten    --     26.8700                11.7633                73.8391

                     28                     29                     30
                      A                      A                      A
 Frequencies --    825.2507               833.4184               867.2630
 Red. masses --      6.1867                 2.1742                 1.3811
 Frc consts  --      2.4824                 0.8898                 0.6120
 IR Inten    --     14.9569                 1.7783                 0.9454

                     31                     32                     33
                      A                      A                      A
 Frequencies --    885.0507               896.1756               951.7657
 Red. masses --      5.4564                 1.4672                 1.3563
 Frc consts  --      2.5182                 0.6943                 0.7239
 IR Inten    --      3.1057                 9.1111                 0.2330

                     34                     35                     36
                      A                      A                      A
 Frequencies --    957.8355               968.2070              1003.7406
 Red. masses --      1.3546                 4.9114                 1.2989
 Frc consts  --      0.7322                 2.7127                 0.7710
 IR Inten    --      1.6923                 1.9840                 0.0032

                     37                     38                     39
                      A                      A                      A
 Frequencies --   1046.2924              1055.0253              1094.6720
 Red. masses --      2.1778                 2.0839                 2.9247
 Frc consts  --      1.4047                 1.3667                 2.0649
 IR Inten    --      1.2762                 8.6908                10.7875

                     40                     41                     42
                      A                      A                      A
 Frequencies --   1101.8630              1154.6457              1158.8282
 Red. masses --      1.8908                 1.2248                 1.4347
 Frc consts  --      1.3526                 0.9621                 1.1352
 IR Inten    --     16.7804                32.5907                37.3802

                     43                     44                     45
                      A                      A                      A
 Frequencies --   1173.2239              1182.2190              1227.1712
 Red. masses --      1.3026                 1.2165                 3.0272
 Frc consts  --      1.0564                 1.0018                 2.6860
 IR Inten    --     25.5481                 3.5902                22.2875

                     46                     47                     48
                      A                      A                      A
 Frequencies --   1246.4356              1298.4164              1330.3845
 Red. masses --      2.1793                 1.6347                 3.8889
 Frc consts  --      1.9948                 1.6238                 4.0554
 IR Inten    --     29.5769                 1.4403                 0.9800

                     49                     50                     51
                      A                      A                      A
 Frequencies --   1354.0101              1398.1744              1409.2445
 Red. masses --      2.7113                 5.2021                 2.5455
 Frc consts  --      2.9287                 5.9917                 2.9785
 IR Inten    --     73.7045                69.4809                38.6147

                     52                     53                     54
                      A                      A                      A
 Frequencies --   1438.7181              1467.5534              1515.1777
 Red. masses --      2.6981                 3.5343                 3.4403
 Frc consts  --      3.2905                 4.4848                 4.6535
 IR Inten    --    102.7931                 9.7304                88.9772

                     55                     56                     57
                      A                      A                      A
 Frequencies --   1517.3419              1536.3024              1607.7280
 Red. masses --      3.0801                 4.4242                 5.1363
 Frc consts  --      4.1781                 6.1523                 7.8221
 IR Inten    --      5.2672               184.7375                87.7702

                     58                     59                     60
                      A                      A                      A
 Frequencies --   1630.9794              1666.3240              1672.5100
 Red. masses --      8.7468                 6.8867                 7.1737
 Frc consts  --     13.7087                11.2663                11.8231
 IR Inten    --    168.7913                86.8646                31.1672

                     61                     62                     63
                      A                      A                      A
 Frequencies --   3197.0424              3205.8899              3210.5858
 Red. masses --      1.0880                 1.0869                 1.0866
 Frc consts  --      6.5521                 6.5818                 6.5993
 IR Inten    --     28.3364                 6.0048                 3.9632

                     64                     65                     66
                      A                      A                      A
 Frequencies --   3217.9706              3221.0993              3228.4489
 Red. masses --      1.0917                 1.0904                 1.0956
 Frc consts  --      6.6606                 6.6654                 6.7282
 IR Inten    --     15.1575                 1.2608                 8.1743

                     67                     68                     69
                      A                      A                      A
 Frequencies --   3232.1332              3239.1180              3841.2186
 Red. masses --      1.0989                 1.0995                 1.0792
 Frc consts  --      6.7638                 6.7967                 9.3819
 IR Inten    --     26.7517                13.0178               191.7415

 - Thermochemistry -
 -------------------
 Temperature   298.150 Kelvin.  Pressure   1.00000 Atm.
 Atom     1 has atomic number  6 and mass  12.00000

 Molecular mass:   227.04049 amu.
 Principal axes and moments of inertia in atomic units:
                           1         2         3
     Eigenvalues --  1252.117216550.648227802.76543
           X           -0.70472   0.70949   0.00000
           Y            0.70949   0.70472  -0.00001
           Z            0.00001   0.00000   1.00000
 This molecule is an asymmetric top.
 Rotational symmetry number  1.
 Warning -- assumption of classical behavior for rotation
           may cause significant error
 Rotational temperatures (Kelvin)      0.06917     0.01322     0.01110
 Rotational constants (GHZ):           1.44135     0.27551     0.23130
    1 imaginary frequencies ignored.
 Zero-point vibrational energy     489494.4 (Joules/Mol)
                                  116.99198 (Kcal/Mol)
 Warning -- explicit consideration of  19 degrees of freedom as
           vibrations may cause significant error
 Vibrational temperatures:     75.84   146.39   149.56   258.17   321.87
          (Kelvin)            364.91   385.78   400.25   487.15   550.91
                              575.39   634.30   673.58   725.78   742.24
                              765.71   783.50   807.00   814.64   919.08
                              995.65  1031.18  1065.84  1073.08  1085.64
                             1103.31  1187.35  1199.10  1247.80  1273.39
                             1289.40  1369.38  1378.11  1393.03  1444.16
                             1505.38  1517.95  1574.99  1585.34  1661.28
                             1667.30  1688.01  1700.95  1765.63  1793.34
                             1868.13  1914.13  1948.12  2011.66  2027.59
                             2069.99  2111.48  2180.00  2183.12  2210.40
                             2313.16  2346.62  2397.47  2406.37  4599.83
                             4612.56  4619.32  4629.94  4634.44  4645.02
                             4650.32  4660.37  5526.66

 Zero-point correction=                           0.186439 (Hartree/Particle)
 Thermal correction to Energy=                    0.198301
 Thermal correction to Enthalpy=                  0.199245
 Thermal correction to Gibbs Free Energy=         0.148167
 Sum of electronic and zero-point Energies=          -1028.504836
 Sum of electronic and thermal Energies=             -1028.492973
 Sum of electronic and thermal Enthalpies=           -1028.492029
 Sum of electronic and thermal Free Energies=        -1028.543107

                     E (Thermal)             CV                S
                      KCal/Mol        Cal/Mol-Kelvin    Cal/Mol-Kelvin
 Total                  124.436             48.607            107.502
 Electronic               0.000              0.000              0.000
 Translational            0.889              2.981             42.162
 Rotational               0.889              2.981             32.526
 Vibrational            122.658             42.645             32.814
 Vibration     1          0.596              1.977              4.713
 Vibration     2          0.604              1.948              3.421
 Vibration     3          0.605              1.946              3.379
 Vibration     4          0.629              1.868              2.334
 Vibration     5          0.649              1.805              1.929
 Vibration     6          0.665              1.757              1.705
 Vibration     7          0.673              1.732              1.608
 Vibration     8          0.679              1.714              1.545
 Vibration     9          0.719              1.598              1.219
 Vibration    10          0.752              1.507              1.028
 Vibration    11          0.766              1.470              0.963
 Vibration    12          0.801              1.381              0.824
 Vibration    13          0.825              1.321              0.743
 Vibration    14          0.860              1.240              0.647
 Vibration    15          0.871              1.215              0.620
 Vibration    16          0.887              1.179              0.582
 Vibration    17          0.900              1.152              0.556
 Vibration    18          0.917              1.116              0.522
 Vibration    19          0.922              1.104              0.512

 Optimization completed.
    -- Stationary point found.
 Normal termination of Gaussian 16 at Tue Jul 14 17:09:36 2020.
