 Gaussian 16, Revision C.01,
 Gaussian 16:  ES64L-G16RevC.01  3-Jul-2019

 ----------------------------------------------------------------------
 #p opt=addgic freq td wb97xd/cc-pvdz nosymm int=ultrafine scrf=(solven
 t=CarbonTetraChloride)
 ----------------------------------------------------------------------

 ------------------------------------------------
 NM 2D-scan of HBT TD-WB97XD pVDZ in CTC Relaxed.
 ------------------------------------------------
 Symbolic Z-matrix:
 Charge =  0 Multiplicity = 1

 SCF Done:  E(RwB97XD) =  -1028.30351542     A.U. after   16 cycles
 Total Energy, E(TD-HF/TD-DFT) =  -1028.20015678
 SCF Done:  E(RwB97XD) =  -1028.62487888     A.U. after   14 cycles
 Total Energy, E(TD-HF/TD-DFT) =  -1028.52438068
 SCF Done:  E(RwB97XD) =  -1028.76186022     A.U. after   15 cycles
 Total Energy, E(TD-HF/TD-DFT) =  -1028.66675731
 SCF Done:  E(RwB97XD) =  -1028.77598297     A.U. after   14 cycles
 Total Energy, E(TD-HF/TD-DFT) =  -1028.68113351
 SCF Done:  E(RwB97XD) =  -1028.78041836     A.U. after   13 cycles
 Total Energy, E(TD-HF/TD-DFT) =  -1028.68326339
 SCF Done:  E(RwB97XD) =  -1028.78075395     A.U. after   12 cycles
 Total Energy, E(TD-HF/TD-DFT) =  -1028.68343159
 SCF Done:  E(RwB97XD) =  -1028.78090065     A.U. after   11 cycles
 Total Energy, E(TD-HF/TD-DFT) =  -1028.68345258
 SCF Done:  E(RwB97XD) =  -1028.78091994     A.U. after    8 cycles
 Total Energy, E(TD-HF/TD-DFT) =  -1028.68345308
 Optimization completed.
    -- Stationary point found.
 Normal termination of Gaussian 16 at Tue Jul 14 16:47:40 2020.

 ----------------------------------------------------------------------
 #P Geom=AllCheck Guess=TCheck SCRF=Check GenChk RwB97XD TD(FC,Read)/CC
 -pVDZ Freq
 ----------------------------------------------------------------------

 Structure from the checkpoint file:  "config_12_19.chk"
 ------------------------------------------------
 NM 2D-scan of HBT TD-WB97XD pVDZ in CTC Relaxed.
 ------------------------------------------------
 Charge =  0 Multiplicity = 1

                          Input orientation:
 ---------------------------------------------------------------------
 Center     Atomic      Atomic             Coordinates (Angstroms)
 Number     Number       Type             X           Y           Z
 ---------------------------------------------------------------------
      1          6           0        1.543469   -3.296374    0.000120
      2          6           0        1.014850   -2.014377    0.000059
      3          6           0        1.833139   -0.891139   -0.000066
      4          6           0        3.228683   -1.021128   -0.000126
      5          6           0        3.756492   -2.312336   -0.000064
      6          6           0        2.929304   -3.440073    0.000057
      7          1           0        0.887686   -4.166769    0.000211
      8          1           0        3.878699   -0.144637   -0.000220
      9          1           0        4.840282   -2.438277   -0.000111
     10          1           0        3.369834   -4.437262    0.000100
     11          7           0        1.073556    0.255531   -0.000126
     12         16           0       -0.676838   -1.539775    0.000100
     13          6           0       -1.343615    1.146964   -0.000030
     14          6           0       -2.671367    0.775216   -0.000121
     15          6           0       -0.963053    2.564104    0.000112
     16          6           0       -3.721451    1.749804   -0.000066
     17          1           0       -2.954264   -0.280333   -0.000244
     18          6           0       -2.061109    3.503481    0.000166
     19          6           0       -3.413917    3.098000    0.000079
     20          1           0       -4.756903    1.405520   -0.000134
     21          1           0       -1.804573    4.565021    0.000307
     22          1           0       -4.211945    3.842657    0.000130
     23          6           0       -0.294479    0.145513   -0.000040
     24          8           0        0.253612    2.829921    0.000226
     25          1           0        1.673202    1.041705   -0.000226
 ---------------------------------------------------------------------

 SCF Done:  E(RwB97XD) =  -1028.78091994     A.U. after    1 cycles

 Excitation energies and oscillator strengths:

 Excited state symmetry could not be determined.
 Excited State   1:      Singlet-?Sym    2.6522 eV  467.48 nm  f=0.4343  <S**2>=0.000
      59 -> 60         0.69811
 This state for optimization and/or second-order correction.
 Total Energy, E(TD-HF/TD-DFT) =  -1028.68345312
 Copying the excited state density for this state as the 1-particle RhoCI density.

 Excited state symmetry could not be determined.
 Excited State   2:      Singlet-?Sym    3.2164 eV  385.48 nm  f=0.0000  <S**2>=0.000
      58 -> 60         0.68475
      58 -> 62         0.11118

 Excited state symmetry could not be determined.
 Excited State   3:      Singlet-?Sym    4.2386 eV  292.51 nm  f=0.3979  <S**2>=0.000
      57 -> 60         0.68549

 Alpha  occ. eigenvalues --  -89.10328 -19.19742 -14.53584 -10.42875 -10.37515
 Alpha  occ. eigenvalues --  -10.36054 -10.35031 -10.33609 -10.33540 -10.32995
 Alpha  occ. eigenvalues --  -10.32634 -10.31284 -10.30675 -10.30540 -10.28973
 Alpha  occ. eigenvalues --  -10.28118  -8.12426  -6.07301  -6.06903  -6.06449
 Alpha  occ. eigenvalues --   -1.13349  -1.08874  -0.98770  -0.96118  -0.93280
 Alpha  occ. eigenvalues --   -0.89016  -0.86986  -0.83991  -0.80593  -0.75956
 Alpha  occ. eigenvalues --   -0.74908  -0.72154  -0.69486  -0.67463  -0.64743
 Alpha  occ. eigenvalues --   -0.61110  -0.59758  -0.56540  -0.56330  -0.56156
 Alpha  occ. eigenvalues --   -0.55126  -0.53756  -0.53038  -0.50216  -0.48701
 Alpha  occ. eigenvalues --   -0.48694  -0.48091  -0.47124  -0.45645  -0.44922
 Alpha  occ. eigenvalues --   -0.43830  -0.42691  -0.42319  -0.39713  -0.36974
 Alpha  occ. eigenvalues --   -0.33898  -0.31558  -0.30298  -0.25152
 Alpha virt. eigenvalues --   -0.02342   0.03476   0.05493   0.06892   0.09858
 Alpha virt. eigenvalues --    0.10992   0.13774   0.14416   0.15729   0.16406
 Alpha virt. eigenvalues --    0.17662   0.19670   0.20732   0.21182   0.22541

 Mulliken charges:
               1
     1  C    0.018658
     2  C   -0.232270
     3  C    0.188005
     4  C   -0.012350
     5  C    0.010978
     6  C    0.005902
     7  H    0.024902
     8  H    0.032310
     9  H    0.029788
    10  H    0.028197
    11  N   -0.096144
    12  S    0.199059
    13  C   -0.053723
    14  C   -0.046140
    15  C    0.096054
    16  C   -0.037749
    17  H    0.013251
    18  C   -0.066090
    19  C    0.035380
    20  H    0.000062
    21  H   -0.001639
    22  H    0.013626
    23  C    0.098327
    24  O   -0.371441
    25  H    0.123046
 Sum of Mulliken charges =  -0.00000

 Dipole moment (field-independent basis, Debye):
    X=              2.9376    Y=             -6.4998    Z=             -0.0006  Tot=              7.1328
 Quadrupole moment (field-independent basis, Debye-Ang):
   XX=            -80.4848   YY=            -98.1153   ZZ=           -104.1021
   XY=             -5.6399   XZ=             -0.0011   YZ=             -0.0017

  Exact polarizability:     344.063    -114.912     286.154      -0.001       0.001      63.251
 Approx polarizability:     276.743     -40.442     264.050      -0.002       0.001      81.955

 ******    2 imaginary frequencies (negative Signs) ******

                      1                      2                      3
                      A                      A                      A
 Frequencies --   -173.3164               -54.7616                65.1928
 Red. masses --      1.5697                 6.2040                 6.2930
 Frc consts  --      0.0278                 0.0110                 0.0158
 IR Inten    --     44.3271                 0.1331                 1.7540

                      4                      5                      6
                      A                      A                      A
 Frequencies --    111.6644               141.7614               177.9998
 Red. masses --      5.8314                 3.3233                 5.6450
 Frc consts  --      0.0428                 0.0393                 0.1054
 IR Inten    --      5.1787                23.1649                 0.7711

                      7                      8                      9
                      A                      A                      A
 Frequencies --    241.3912               256.8679               277.9583
 Red. masses --      4.0104                 9.5705                 7.2419
 Frc consts  --      0.1377                 0.3721                 0.3297
 IR Inten    --      4.2052                 1.7155                 1.5884

                     10                     11                     12
                      A                      A                      A
 Frequencies --    308.1683               334.5378               380.8646
 Red. masses --      3.2166                 4.5394                 6.8633
 Frc consts  --      0.1800                 0.2993                 0.5866
 IR Inten    --     10.3464                 0.0133                 5.8993

                     13                     14                     15
                      A                      A                      A
 Frequencies --    430.1232               441.5093               504.1843
 Red. masses --      3.9562                 3.1418                 8.3306
 Frc consts  --      0.4312                 0.3608                 1.2477
 IR Inten    --      5.5616                 0.5002                10.8277

                     16                     17                     18
                      A                      A                      A
 Frequencies --    517.4799               531.3890               544.5916
 Red. masses --      3.2471                 6.2218                 8.6219
 Frc consts  --      0.5123                 1.0351                 1.5066
 IR Inten    --      0.3723                32.1242                21.3225

                     19                     20                     21
                      A                      A                      A
 Frequencies --    560.3555               565.3533               640.8465
 Red. masses --      3.8038                 7.4268                 6.6048
 Frc consts  --      0.7037                 1.3986                 1.5982
 IR Inten    --      0.1573                 3.3450                 6.7647

                     22                     23                     24
                      A                      A                      A
 Frequencies --    690.4348               714.2792               742.2089
 Red. masses --      1.4724                 5.6408                 7.3246
 Frc consts  --      0.4135                 1.6956                 2.3773
 IR Inten    --     35.3375                 1.3334                 5.7484

                     25                     26                     27
                      A                      A                      A
 Frequencies --    744.6387               754.8588               766.2227
 Red. masses --      2.2924                 1.6417                 1.7744
 Frc consts  --      0.7489                 0.5511                 0.6138
 IR Inten    --     24.5789                13.4179                75.7357

                     28                     29                     30
                      A                      A                      A
 Frequencies --    824.4639               834.6033               864.5251
 Red. masses --      6.2569                 2.1911                 1.3839
 Frc consts  --      2.5058                 0.8992                 0.6094
 IR Inten    --     13.8247                 1.8247                 0.9882

                     31                     32                     33
                      A                      A                      A
 Frequencies --    890.6342               896.2003               952.5743
 Red. masses --      5.8847                 1.4659                 1.3553
 Frc consts  --      2.7503                 0.6937                 0.7246
 IR Inten    --      4.7786                 9.4005                 0.2089

                     34                     35                     36
                      A                      A                      A
 Frequencies --    957.1391               973.1786              1002.9539
 Red. masses --      1.3548                 5.2690                 1.2984
 Frc consts  --      0.7313                 2.9401                 0.7695
 IR Inten    --      1.6765                 4.9431                 0.0002

                     37                     38                     39
                      A                      A                      A
 Frequencies --   1044.5545              1056.0867              1090.5946
 Red. masses --      2.3238                 2.1117                 2.3537
 Frc consts  --      1.4939                 1.3876                 1.6494
 IR Inten    --      0.7602                 9.2402                19.5696

                     40                     41                     42
                      A                      A                      A
 Frequencies --   1100.2298              1155.1437              1158.9262
 Red. masses --      2.2869                 1.3546                 1.2719
 Frc consts  --      1.6310                 1.0649                 1.0065
 IR Inten    --      6.5747                 8.5472                47.2634

                     43                     44                     45
                      A                      A                      A
 Frequencies --   1176.7155              1181.3499              1218.4931
 Red. masses --      1.2792                 1.2209                 3.8849
 Frc consts  --      1.0436                 1.0039                 3.3984
 IR Inten    --     27.5111                 2.0429                28.4013

                     46                     47                     48
                      A                      A                      A
 Frequencies --   1243.3118              1303.8265              1328.5245
 Red. masses --      2.0743                 1.5457                 3.3949
 Frc consts  --      1.8893                 1.5482                 3.5303
 IR Inten    --     28.3077                 3.9405                 7.6511

                     49                     50                     51
                      A                      A                      A
 Frequencies --   1351.3264              1403.2895              1415.6578
 Red. masses --      2.5465                 6.0019                 2.3323
 Frc consts  --      2.7398                 6.9635                 2.7539
 IR Inten    --     44.1365                70.8932                52.1823

                     52                     53                     54
                      A                      A                      A
 Frequencies --   1442.9730              1458.9481              1510.4693
 Red. masses --      2.6680                 3.6519                 3.6644
 Frc consts  --      3.2730                 4.5798                 4.9258
 IR Inten    --     64.0891                15.6013                85.0698

                     55                     56                     57
                      A                      A                      A
 Frequencies --   1525.8557              1530.2526              1620.5332
 Red. masses --      2.7630                 4.4392                 5.1102
 Frc consts  --      3.7902                 6.1247                 7.9068
 IR Inten    --      0.1512               195.7561                74.8575

                     58                     59                     60
                      A                      A                      A
 Frequencies --   1645.3565              1665.3537              1687.6547
 Red. masses --      9.5278                 6.8547                 7.3940
 Frc consts  --     15.1972                11.2009                12.4079
 IR Inten    --    175.9707                80.6350                19.2490

                     61                     62                     63
                      A                      A                      A
 Frequencies --   3193.6782              3205.6791              3209.2613
 Red. masses --      1.0885                 1.0866                 1.0873
 Frc consts  --      6.5410                 6.5787                 6.5980
 IR Inten    --     30.8525                 4.3451                 4.0056

                     64                     65                     66
                      A                      A                      A
 Frequencies --   3217.3074              3220.3979              3229.1231
 Red. masses --      1.0913                 1.0911                 1.0946
 Frc consts  --      6.6554                 6.6669                 6.7249
 IR Inten    --     15.6929                 1.8027                 8.1160

                     67                     68                     69
                      A                      A                      A
 Frequencies --   3231.4749              3240.8669              3938.4659
 Red. masses --      1.0991                 1.0990                 1.0788
 Frc consts  --      6.7621                 6.8007                 9.8597
 IR Inten    --     26.3461                12.4874               152.8029

 - Thermochemistry -
 -------------------
 Temperature   298.150 Kelvin.  Pressure   1.00000 Atm.
 Atom     1 has atomic number  6 and mass  12.00000

 Molecular mass:   227.04049 amu.
 Principal axes and moments of inertia in atomic units:
                           1         2         3
     Eigenvalues --  1243.397716575.021567818.41925
           X           -0.70655   0.70766   0.00000
           Y            0.70766   0.70655  -0.00001
           Z            0.00001   0.00000   1.00000
 This molecule is an asymmetric top.
 Rotational symmetry number  1.
 Warning -- assumption of classical behavior for rotation
           may cause significant error
 Rotational temperatures (Kelvin)      0.06966     0.01317     0.01108
 Rotational constants (GHZ):           1.45146     0.27448     0.23083
    2 imaginary frequencies ignored.
 Zero-point vibrational energy     488332.6 (Joules/Mol)
                                  116.71430 (Kcal/Mol)
 Warning -- explicit consideration of  18 degrees of freedom as
           vibrations may cause significant error
 Vibrational temperatures:     93.80   160.66   203.96   256.10   347.31
          (Kelvin)            369.58   399.92   443.39   481.33   547.98
                              618.85   635.23   725.41   744.54   764.55
                              783.55   806.23   813.42   922.04   993.38
                             1027.69  1067.87  1071.37  1086.07  1102.42
                             1186.22  1200.81  1243.86  1281.42  1289.43
                             1370.54  1377.11  1400.19  1443.03  1502.88
                             1519.47  1569.12  1582.99  1661.99  1667.44
                             1693.03  1699.70  1753.14  1788.85  1875.92
                             1911.45  1944.26  2019.02  2036.82  2076.12
                             2099.10  2173.23  2195.37  2201.69  2331.59
                             2367.30  2396.07  2428.16  4594.99  4612.26
                             4617.41  4628.99  4633.43  4645.99  4649.37
                             4662.88  5666.57

 Zero-point correction=                           0.185996 (Hartree/Particle)
 Thermal correction to Energy=                    0.197395
 Thermal correction to Enthalpy=                  0.198339
 Thermal correction to Gibbs Free Energy=         0.148401
 Sum of electronic and zero-point Energies=          -1028.497457
 Sum of electronic and thermal Energies=             -1028.486059
 Sum of electronic and thermal Enthalpies=           -1028.485114
 Sum of electronic and thermal Free Energies=        -1028.535052

                     E (Thermal)             CV                S
                      KCal/Mol        Cal/Mol-Kelvin    Cal/Mol-Kelvin
 Total                  123.867             47.075            105.102
 Electronic               0.000              0.000              0.000
 Translational            0.889              2.981             42.162
 Rotational               0.889              2.981             32.525
 Vibrational            122.090             41.113             30.415
 Vibration     1          0.597              1.971              4.293
 Vibration     2          0.607              1.940              3.240
 Vibration     3          0.615              1.911              2.780
 Vibration     4          0.628              1.869              2.349
 Vibration     5          0.658              1.777              1.793
 Vibration     6          0.666              1.751              1.683
 Vibration     7          0.679              1.714              1.546
 Vibration     8          0.698              1.658              1.372
 Vibration     9          0.716              1.607              1.238
 Vibration    10          0.751              1.511              1.036
 Vibration    11          0.791              1.405              0.858
 Vibration    12          0.801              1.380              0.822
 Vibration    13          0.859              1.241              0.648
 Vibration    14          0.872              1.211              0.616
 Vibration    15          0.886              1.181              0.584
 Vibration    16          0.900              1.152              0.555
 Vibration    17          0.916              1.117              0.523
 Vibration    18          0.921              1.106              0.513

 Optimization completed.
    -- Stationary point found.
 Normal termination of Gaussian 16 at Tue Jul 14 17:05:13 2020.
