 Gaussian 16, Revision C.01,
 Gaussian 16:  ES64L-G16RevC.01  3-Jul-2019

 ----------------------------------------------------------------------
 #p opt=addgic freq td wb97xd/cc-pvdz nosymm int=ultrafine scrf=(solven
 t=CarbonTetraChloride)
 ----------------------------------------------------------------------

 ------------------------------------------------
 NM 2D-scan of HBT TD-WB97XD pVDZ in CTC Relaxed.
 ------------------------------------------------
 Symbolic Z-matrix:
 Charge =  0 Multiplicity = 1

 SCF Done:  E(RwB97XD) =  -1028.72495637     A.U. after   15 cycles
 Total Energy, E(TD-HF/TD-DFT) =  -1028.59434589
 SCF Done:  E(RwB97XD) =  -1028.80665119     A.U. after   13 cycles
 Total Energy, E(TD-HF/TD-DFT) =  -1028.67727723
 SCF Done:  E(RwB97XD) =  -1028.79412456     A.U. after   14 cycles
 Total Energy, E(TD-HF/TD-DFT) =  -1028.66845771
 SCF Done:  E(RwB97XD) =  -1028.81577408     A.U. after   12 cycles
 Total Energy, E(TD-HF/TD-DFT) =  -1028.68833906
 SCF Done:  E(RwB97XD) =  -1028.81674404     A.U. after   11 cycles
 Total Energy, E(TD-HF/TD-DFT) =  -1028.68876654
 SCF Done:  E(RwB97XD) =  -1028.81725342     A.U. after   11 cycles
 Total Energy, E(TD-HF/TD-DFT) =  -1028.68888592
 SCF Done:  E(RwB97XD) =  -1028.81725043     A.U. after    9 cycles
 Total Energy, E(TD-HF/TD-DFT) =  -1028.68888780
 Optimization completed.
    -- Stationary point found.
 Normal termination of Gaussian 16 at Tue Jul 14 16:49:59 2020.

 ----------------------------------------------------------------------
 #P Geom=AllCheck Guess=TCheck SCRF=Check GenChk RwB97XD TD(FC,Read)/CC
 -pVDZ Freq
 ----------------------------------------------------------------------

 Structure from the checkpoint file:  "config_1_20.chk"
 ------------------------------------------------
 NM 2D-scan of HBT TD-WB97XD pVDZ in CTC Relaxed.
 ------------------------------------------------
 Charge =  0 Multiplicity = 1

                          Input orientation:
 ---------------------------------------------------------------------
 Center     Atomic      Atomic             Coordinates (Angstroms)
 Number     Number       Type             X           Y           Z
 ---------------------------------------------------------------------
      1          6           0        1.497409   -3.282755   -0.000020
      2          6           0        0.972095   -1.993534   -0.000012
      3          6           0        1.791504   -0.807396   -0.000024
      4          6           0        3.203262   -1.001284   -0.000050
      5          6           0        3.712353   -2.287319   -0.000057
      6          6           0        2.877904   -3.429321   -0.000041
      7          1           0        0.835925   -4.149876   -0.000009
      8          1           0        3.862629   -0.132688   -0.000060
      9          1           0        4.794971   -2.427845   -0.000075
     10          1           0        3.320843   -4.426098   -0.000047
     11          7           0        1.120767    0.363410   -0.000002
     12         16           0       -0.702993   -1.569867    0.000013
     13          6           0       -1.253643    1.103456    0.000058
     14          6           0       -2.629781    0.717241    0.000062
     15          6           0       -0.955217    2.533812    0.000050
     16          6           0       -3.632906    1.663609    0.000021
     17          1           0       -2.889864   -0.341321    0.000086
     18          6           0       -1.995881    3.468949   -0.000000
     19          6           0       -3.323871    3.042733   -0.000020
     20          1           0       -4.675819    1.343364    0.000015
     21          1           0       -1.736024    4.527926   -0.000013
     22          1           0       -4.128594    3.778960   -0.000059
     23          6           0       -0.228307    0.146982    0.000030
     24          8           0        0.303534    2.937409    0.000110
     25          1           0        0.899299    2.133296    0.000174
 ---------------------------------------------------------------------

 SCF Done:  E(RwB97XD) =  -1028.81725043     A.U. after    1 cycles

 Excitation energies and oscillator strengths:

 Excited state symmetry could not be determined.
 Excited State   1:      Singlet-?Sym    3.4929 eV  354.96 nm  f=0.7269  <S**2>=0.000
      59 -> 60         0.68886
 This state for optimization and/or second-order correction.
 Total Energy, E(TD-HF/TD-DFT) =  -1028.68888780
 Copying the excited state density for this state as the 1-particle RhoCI density.

 Excited state symmetry could not be determined.
 Excited State   2:      Singlet-?Sym    4.3681 eV  283.84 nm  f=0.0682  <S**2>=0.000
      57 -> 60         0.65887
      59 -> 61         0.11199
      59 -> 62        -0.13476

 Excited state symmetry could not be determined.
 Excited State   3:      Singlet-?Sym    4.5505 eV  272.47 nm  f=0.1366  <S**2>=0.000
      58 -> 60         0.63289
      58 -> 62         0.10044
      59 -> 61         0.18001
      59 -> 62         0.12178

 Alpha  occ. eigenvalues --  -89.08434 -19.29313 -14.47325 -10.39504 -10.38372
 Alpha  occ. eigenvalues --  -10.35092 -10.34371 -10.32602 -10.32408 -10.32235
 Alpha  occ. eigenvalues --  -10.31871 -10.31414 -10.31258 -10.31160 -10.30785
 Alpha  occ. eigenvalues --  -10.30711  -8.10500  -6.05331  -6.04996  -6.04567
 Alpha  occ. eigenvalues --   -1.17620  -1.07866  -0.96919  -0.95746  -0.92034
 Alpha  occ. eigenvalues --   -0.88764  -0.85260  -0.84578  -0.82095  -0.76011
 Alpha  occ. eigenvalues --   -0.71468  -0.70206  -0.69139  -0.68152  -0.63685
 Alpha  occ. eigenvalues --   -0.60309  -0.59125  -0.58621  -0.56230  -0.54535
 Alpha  occ. eigenvalues --   -0.53666  -0.53542  -0.52853  -0.50636  -0.50390
 Alpha  occ. eigenvalues --   -0.49174  -0.47665  -0.46009  -0.45588  -0.44850
 Alpha  occ. eigenvalues --   -0.44097  -0.43074  -0.41878  -0.39918  -0.37724
 Alpha  occ. eigenvalues --   -0.36430  -0.31865  -0.31746  -0.28139
 Alpha virt. eigenvalues --   -0.01913   0.05276   0.06817   0.07016   0.08006
 Alpha virt. eigenvalues --    0.11225   0.14326   0.15264   0.17098   0.18051
 Alpha virt. eigenvalues --    0.18567   0.20703   0.21501   0.22314   0.22626

 Mulliken charges:
               1
     1  C    0.021268
     2  C   -0.210765
     3  C    0.195560
     4  C   -0.021100
     5  C    0.003495
     6  C   -0.005441
     7  H    0.015723
     8  H    0.015785
     9  H    0.017710
    10  H    0.019375
    11  N   -0.360000
    12  S    0.148351
    13  C   -0.061128
    14  C   -0.029875
    15  C    0.075603
    16  C   -0.004918
    17  H    0.028423
    18  C    0.009270
    19  C    0.021910
    20  H    0.012460
    21  H    0.021614
    22  H    0.024202
    23  C    0.081382
    24  O   -0.190640
    25  H    0.171736
 Sum of Mulliken charges =  -0.00000

 Dipole moment (field-independent basis, Debye):
    X=             -0.9581    Y=             -1.8050    Z=              0.0001  Tot=              2.0435
 Quadrupole moment (field-independent basis, Debye-Ang):
   XX=            -83.1138   YY=            -89.3645   ZZ=           -104.3431
   XY=             -7.0000   XZ=              0.0001   YZ=             -0.0001

  Exact polarizability:     399.449    -195.970     393.645      -0.003       0.003      63.326
 Approx polarizability:     278.510     -37.000     261.073      -0.001      -0.000      82.353

                      1                      2                      3
                      A                      A                      A
 Frequencies --     46.1698                61.8966               106.3365
 Red. masses --      6.3277                 4.8129                 5.6556
 Frc consts  --      0.0079                 0.0109                 0.0377
 IR Inten    --      1.2977                 0.0031                 2.0452

                      4                      5                      6
                      A                      A                      A
 Frequencies --    110.9971               181.0889               226.4779
 Red. masses --      5.1974                 6.7537                 5.3379
 Frc consts  --      0.0377                 0.1305                 0.1613
 IR Inten    --      0.2039                 1.5818                 0.0259

                      7                      8                      9
                      A                      A                      A
 Frequencies --    261.7243               274.2898               288.9770
 Red. masses --      7.9155                 4.8595                 6.5871
 Frc consts  --      0.3195                 0.2154                 0.3241
 IR Inten    --     17.3532                 0.0047                14.1538

                     10                     11                     12
                      A                      A                      A
 Frequencies --    392.3049               409.6101               442.7659
 Red. masses --      4.4425                 9.1411                 3.2598
 Frc consts  --      0.4028                 0.9036                 0.3765
 IR Inten    --      0.0455                15.4441                 3.7646

                     13                     14                     15
                      A                      A                      A
 Frequencies --    491.2078               499.9299               511.8906
 Red. masses --      4.3689                 7.8151                 3.1422
 Frc consts  --      0.6211                 1.1508                 0.4851
 IR Inten    --      0.2675                 3.2832                 0.2172

                     16                     17                     18
                      A                      A                      A
 Frequencies --    514.7951               524.7711               552.5985
 Red. masses --      5.1144                 8.3014                 3.9689
 Frc consts  --      0.7986                 1.3469                 0.7141
 IR Inten    --     18.2302                36.2659                 0.2207

                     19                     20                     21
                      A                      A                      A
 Frequencies --    575.4850               644.7668               694.3496
 Red. masses --      7.7083                 6.6795                10.5669
 Frc consts  --      1.5041                 1.6361                 3.0016
 IR Inten    --     46.5482                 3.0728                70.7636

                     22                     23                     24
                      A                      A                      A
 Frequencies --    719.6408               720.7078               734.1914
 Red. masses --      6.3968                 1.3508                 2.3143
 Frc consts  --      1.9518                 0.4134                 0.7350
 IR Inten    --      9.3469                84.8258                 8.3409

                     25                     26                     27
                      A                      A                      A
 Frequencies --    739.1748               771.4543               811.1586
 Red. masses --      1.8447                 2.3841                 1.7594
 Frc consts  --      0.5938                 0.8360                 0.6820
 IR Inten    --     22.4290                44.2999                10.5589

                     28                     29                     30
                      A                      A                      A
 Frequencies --    819.9878               859.9564               879.0989
 Red. masses --      6.2655                 1.4399                 6.3686
 Frc consts  --      2.4821                 0.6274                 2.8998
 IR Inten    --     22.3090                 0.5349                72.2677

                     31                     32                     33
                      A                      A                      A
 Frequencies --    882.4238               921.2364               953.5442
 Red. masses --      1.0751                 1.3424                 1.3447
 Frc consts  --      0.4932                 0.6712                 0.7204
 IR Inten    --     68.7293                 0.3612                 2.0345

                     34                     35                     36
                      A                      A                      A
 Frequencies --    958.9534               968.0450               998.9720
 Red. masses --      7.4193                 1.3441                 1.3086
 Frc consts  --      4.0198                 0.7421                 0.7694
 IR Inten    --     17.3674                 0.2279                 0.0045

                     37                     38                     39
                      A                      A                      A
 Frequencies --   1039.7066              1040.7381              1091.9168
 Red. masses --      2.1127                 2.1036                 4.0250
 Frc consts  --      1.3456                 1.3424                 2.8275
 IR Inten    --      0.1563                 6.4204                49.8546

                     40                     41                     42
                      A                      A                      A
 Frequencies --   1139.2180              1154.6495              1175.9210
 Red. masses --      1.4831                 1.3580                 1.2024
 Frc consts  --      1.1340                 1.0668                 0.9796
 IR Inten    --     46.8606                17.4222                28.4680

                     43                     44                     45
                      A                      A                      A
 Frequencies --   1180.0417              1201.9141              1234.9060
 Red. masses --      1.2748                 3.4860                 1.7903
 Frc consts  --      1.0459                 2.9670                 1.6086
 IR Inten    --     13.2685                48.4246               131.7421

                     46                     47                     48
                      A                      A                      A
 Frequencies --   1275.7191              1323.7194              1352.6436
 Red. masses --      1.7246                 3.3872                 2.9483
 Frc consts  --      1.6537                 3.4969                 3.1783
 IR Inten    --      0.7866               181.9310                43.2058

                     49                     50                     51
                      A                      A                      A
 Frequencies --   1368.1969              1392.0027              1436.1051
 Red. masses --      4.5277                 2.1229                 2.6466
 Frc consts  --      4.9938                 2.4236                 3.2159
 IR Inten    --     57.0564                 5.8042               195.5377

                     52                     53                     54
                      A                      A                      A
 Frequencies --   1469.7171              1494.6401              1509.5232
 Red. masses --      3.5808                 3.3511                 2.1601
 Frc consts  --      4.5572                 4.4108                 2.9000
 IR Inten    --     98.1618                45.9403               196.5376

                     55                     56                     57
                      A                      A                      A
 Frequencies --   1546.5393              1579.2672              1592.5093
 Red. masses --      5.0747                 6.1469                 2.7203
 Frc consts  --      7.1513                 9.0327                 4.0648
 IR Inten    --    110.8231                 8.4968               755.0770

                     58                     59                     60
                      A                      A                      A
 Frequencies --   1601.3368              1631.5785              1643.1408
 Red. masses --      4.9313                 4.7327                 5.0625
 Frc consts  --      7.4503                 7.4229                 8.0531
 IR Inten    --     50.9787               150.4089               269.2593

                     61                     62                     63
                      A                      A                      A
 Frequencies --   3127.3828              3205.2117              3213.9890
 Red. masses --      1.0737                 1.0862                 1.0859
 Frc consts  --      6.1872                 6.5747                 6.6089
 IR Inten    --      9.7511                 9.0998                 3.3360

                     64                     65                     66
                      A                      A                      A
 Frequencies --   3215.6636              3223.3931              3227.0296
 Red. masses --      1.0896                 1.0885                 1.0954
 Frc consts  --      6.6384                 6.6637                 6.7207
 IR Inten    --      2.1486                12.2476                10.2946

                     67                     68                     69
                      A                      A                      A
 Frequencies --   3233.1286              3233.5497              3240.0736
 Red. masses --      1.0947                 1.0992                 1.0987
 Frc consts  --      6.7421                 6.7718                 6.7958
 IR Inten    --      6.5230                43.1969                27.8246

 - Thermochemistry -
 -------------------
 Temperature   298.150 Kelvin.  Pressure   1.00000 Atm.
 Atom     1 has atomic number  6 and mass  12.00000

 Molecular mass:   227.04049 amu.
 Principal axes and moments of inertia in atomic units:
                           1         2         3
     Eigenvalues --  1304.703586351.860467656.56404
           X           -0.69762   0.71646   0.00000
           Y            0.71646   0.69762  -0.00001
           Z            0.00001   0.00000   1.00000
 This molecule is an asymmetric top.
 Rotational symmetry number  1.
 Warning -- assumption of classical behavior for rotation
           may cause significant error
 Rotational temperatures (Kelvin)      0.06639     0.01364     0.01131
 Rotational constants (GHZ):           1.38326     0.28413     0.23571
 Zero-point vibrational energy     490146.2 (Joules/Mol)
                                  117.14776 (Kcal/Mol)
 Warning -- explicit consideration of  19 degrees of freedom as
           vibrations may cause significant error
 Vibrational temperatures:     66.43    89.06   152.99   159.70   260.55
          (Kelvin)            325.85   376.56   394.64   415.77   564.44
                              589.34   637.04   706.74   719.29   736.50
                              740.68   755.03   795.07   827.99   927.68
                              999.01  1035.40  1036.94  1056.34  1063.51
                             1109.95  1167.08  1179.78  1237.29  1264.83
                             1269.61  1325.45  1371.94  1379.72  1392.80
                             1437.30  1495.91  1497.39  1571.02  1639.08
                             1661.28  1691.89  1697.82  1729.29  1776.75
                             1835.48  1904.54  1946.15  1968.53  2002.78
                             2066.23  2114.60  2150.45  2171.87  2225.13
                             2272.21  2291.27  2303.97  2347.48  2364.11
                             4499.61  4611.58  4624.21  4626.62  4637.74
                             4642.98  4651.75  4652.36  4661.74

 Zero-point correction=                           0.186687 (Hartree/Particle)
 Thermal correction to Energy=                    0.198993
 Thermal correction to Enthalpy=                  0.199937
 Thermal correction to Gibbs Free Energy=         0.147361
 Sum of electronic and zero-point Energies=          -1028.502201
 Sum of electronic and thermal Energies=             -1028.489895
 Sum of electronic and thermal Enthalpies=           -1028.488951
 Sum of electronic and thermal Free Energies=        -1028.541526

                     E (Thermal)             CV                S
                      KCal/Mol        Cal/Mol-Kelvin    Cal/Mol-Kelvin
 Total                  124.870             49.431            110.654
 Electronic               0.000              0.000              0.000
 Translational            0.889              2.981             42.162
 Rotational               0.889              2.981             32.517
 Vibrational            123.092             43.469             35.975
 Vibration     1          0.595              1.979              4.975
 Vibration     2          0.597              1.972              4.396
 Vibration     3          0.605              1.944              3.335
 Vibration     4          0.607              1.940              3.251
 Vibration     5          0.630              1.865              2.317
 Vibration     6          0.650              1.801              1.907
 Vibration     7          0.669              1.743              1.650
 Vibration     8          0.677              1.721              1.569
 Vibration     9          0.686              1.694              1.480
 Vibration    10          0.760              1.487              0.991
 Vibration    11          0.774              1.449              0.928
 Vibration    12          0.802              1.377              0.818
 Vibration    13          0.847              1.270              0.680
 Vibration    14          0.855              1.250              0.658
 Vibration    15          0.867              1.224              0.629
 Vibration    16          0.870              1.217              0.622
 Vibration    17          0.880              1.195              0.599
 Vibration    18          0.908              1.134              0.539
 Vibration    19          0.932              1.084              0.494

 Optimization completed.
    -- Stationary point found.
 Normal termination of Gaussian 16 at Tue Jul 14 17:07:29 2020.
