 Gaussian 16, Revision C.01,
 Gaussian 16:  ES64L-G16RevC.01  3-Jul-2019

 ----------------------------------------------------------------------
 #p opt=addgic freq td wb97xd/cc-pvdz nosymm int=ultrafine scrf=(solven
 t=CarbonTetraChloride)
 ----------------------------------------------------------------------

 ------------------------------------------------
 NM 2D-scan of HBT TD-WB97XD pVDZ in CTC Relaxed.
 ------------------------------------------------
 Symbolic Z-matrix:
 Charge =  0 Multiplicity = 1

 SCF Done:  E(RwB97XD) =  -1028.79716778     A.U. after   16 cycles
 Total Energy, E(TD-HF/TD-DFT) =  -1028.68646462
 SCF Done:  E(RwB97XD) =  -1028.79827573     A.U. after   14 cycles
 Total Energy, E(TD-HF/TD-DFT) =  -1028.69475325
 SCF Done:  E(RwB97XD) =  -1028.80263940     A.U. after   13 cycles
 Total Energy, E(TD-HF/TD-DFT) =  -1028.69665909
 SCF Done:  E(RwB97XD) =  -1028.80329362     A.U. after   11 cycles
 Total Energy, E(TD-HF/TD-DFT) =  -1028.69672445
 SCF Done:  E(RwB97XD) =  -1028.80327016     A.U. after   10 cycles
 Total Energy, E(TD-HF/TD-DFT) =  -1028.69672869
 Optimization completed.
    -- Stationary point found.
 Normal termination of Gaussian 16 at Tue Jul 14 13:33:23 2020.

 ----------------------------------------------------------------------
 #P Geom=AllCheck Guess=TCheck SCRF=Check GenChk RwB97XD TD(FC,Read)/CC
 -pVDZ Freq
 ----------------------------------------------------------------------

 Structure from the checkpoint file:  "config_8_17.chk"
 ------------------------------------------------
 NM 2D-scan of HBT TD-WB97XD pVDZ in CTC Relaxed.
 ------------------------------------------------
 Charge =  0 Multiplicity = 1

                          Input orientation:
 ---------------------------------------------------------------------
 Center     Atomic      Atomic             Coordinates (Angstroms)
 Number     Number       Type             X           Y           Z
 ---------------------------------------------------------------------
      1          6           0        1.547702   -3.284407   -0.000064
      2          6           0        0.991587   -2.008023   -0.000030
      3          6           0        1.790506   -0.832112    0.000008
      4          6           0        3.188855   -0.966174    0.000012
      5          6           0        3.737539   -2.243669   -0.000023
      6          6           0        2.935100   -3.395761   -0.000061
      7          1           0        0.909505   -4.168875   -0.000089
      8          1           0        3.823451   -0.079583    0.000043
      9          1           0        4.823454   -2.350928   -0.000021
     10          1           0        3.399327   -4.382576   -0.000086
     11          7           0        1.047078    0.325603    0.000039
     12         16           0       -0.707723   -1.606302   -0.000017
     13          6           0       -1.307023    1.102813    0.000037
     14          6           0       -2.661702    0.758161    0.000061
     15          6           0       -0.926856    2.531078    0.000019
     16          6           0       -3.662952    1.745775    0.000058
     17          1           0       -2.962509   -0.291750    0.000084
     18          6           0       -1.977249    3.488210   -0.000007
     19          6           0       -3.320453    3.101681    0.000020
     20          1           0       -4.710566    1.441976    0.000077
     21          1           0       -1.684798    4.539444   -0.000047
     22          1           0       -4.103874    3.860681    0.000005
     23          6           0       -0.297174    0.100949    0.000021
     24          8           0        0.301429    2.873232   -0.000056
     25          1           0        1.228430    1.385627    0.000119
 ---------------------------------------------------------------------

 SCF Done:  E(RwB97XD) =  -1028.80327016     A.U. after    1 cycles

 Excitation energies and oscillator strengths:

 Excited state symmetry could not be determined.
 Excited State   1:      Singlet-?Sym    2.8991 eV  427.66 nm  f=0.4417  <S**2>=0.000
      59 -> 60         0.69685
 This state for optimization and/or second-order correction.
 Total Energy, E(TD-HF/TD-DFT) =  -1028.69672866
 Copying the excited state density for this state as the 1-particle RhoCI density.

 Excited state symmetry could not be determined.
 Excited State   2:      Singlet-?Sym    3.7101 eV  334.18 nm  f=0.0000  <S**2>=0.000
      57 -> 60         0.68379
      57 -> 62         0.11643
      57 -> 64         0.11553

 Excited state symmetry could not be determined.
 Excited State   3:      Singlet-?Sym    4.2751 eV  290.02 nm  f=0.3399  <S**2>=0.000
      58 -> 60         0.68284

 Alpha  occ. eigenvalues --  -89.10192 -19.21311 -14.52814 -10.41800 -10.37830
 Alpha  occ. eigenvalues --  -10.36201 -10.35890 -10.33288 -10.32977 -10.32506
 Alpha  occ. eigenvalues --  -10.32358 -10.31567 -10.30962 -10.30932 -10.29327
 Alpha  occ. eigenvalues --  -10.28543  -8.12236  -6.07101  -6.06739  -6.06256
 Alpha  occ. eigenvalues --   -1.12470  -1.08888  -0.98302  -0.95602  -0.93270
 Alpha  occ. eigenvalues --   -0.89082  -0.86739  -0.83632  -0.81470  -0.75862
 Alpha  occ. eigenvalues --   -0.72811  -0.72167  -0.68604  -0.67611  -0.65042
 Alpha  occ. eigenvalues --   -0.61026  -0.59647  -0.56782  -0.55742  -0.55464
 Alpha  occ. eigenvalues --   -0.54990  -0.53943  -0.53054  -0.50369  -0.49033
 Alpha  occ. eigenvalues --   -0.48759  -0.48459  -0.46921  -0.45460  -0.44946
 Alpha  occ. eigenvalues --   -0.44124  -0.43016  -0.42196  -0.40145  -0.36793
 Alpha  occ. eigenvalues --   -0.33574  -0.31967  -0.31363  -0.26100
 Alpha virt. eigenvalues --   -0.02050   0.03798   0.05585   0.06617   0.09155
 Alpha virt. eigenvalues --    0.10696   0.13895   0.14819   0.16325   0.17454
 Alpha virt. eigenvalues --    0.18265   0.20064   0.20534   0.21261   0.22425

 Mulliken charges:
               1
     1  C    0.020891
     2  C   -0.228575
     3  C    0.258086
     4  C   -0.012017
     5  C    0.009607
     6  C    0.002314
     7  H    0.025292
     8  H    0.030396
     9  H    0.026935
    10  H    0.026559
    11  N   -0.174868
    12  S    0.198639
    13  C   -0.081846
    14  C   -0.036654
    15  C    0.112487
    16  C   -0.030695
    17  H    0.014796
    18  C   -0.023899
    19  C    0.032202
    20  H    0.002285
    21  H    0.003216
    22  H    0.015443
    23  C    0.056536
    24  O   -0.415364
    25  H    0.168234
 Sum of Mulliken charges =  -0.00000

 Dipole moment (field-independent basis, Debye):
    X=              1.6360    Y=             -5.6669    Z=              0.0002  Tot=              5.8983
 Quadrupole moment (field-independent basis, Debye-Ang):
   XX=            -81.9135   YY=            -96.4323   ZZ=           -104.2207
   XY=             -6.5768   XZ=              0.0002   YZ=              0.0008

  Exact polarizability:     346.665    -122.635     300.214      -0.002       0.002      63.190
 Approx polarizability:     272.354     -35.283     265.009      -0.001       0.001      82.004

                      1                      2                      3
                      A                      A                      A
 Frequencies --     34.3725                52.1285               113.0180
 Red. masses --      6.7755                 4.5257                 5.7764
 Frc consts  --      0.0047                 0.0072                 0.0435
 IR Inten    --      1.8231                 0.3641                15.2470

                      4                      5                      6
                      A                      A                      A
 Frequencies --    120.7846               184.6840               221.3080
 Red. masses --      5.9497                 5.9476                 5.5669
 Frc consts  --      0.0511                 0.1195                 0.1606
 IR Inten    --      1.1763                 0.0631                 0.1927

                      7                      8                      9
                      A                      A                      A
 Frequencies --    260.4612               270.9839               297.9994
 Red. masses --      8.1403                 4.6107                 7.0744
 Frc consts  --      0.3254                 0.1995                 0.3701
 IR Inten    --      7.0853                 0.1657                 5.2522

                     10                     11                     12
                      A                      A                      A
 Frequencies --    356.6786               399.9707               435.0771
 Red. masses --      4.8962                 8.7176                 3.4013
 Frc consts  --      0.3670                 0.8217                 0.3793
 IR Inten    --      1.0173                 5.3187                 2.7159

                     13                     14                     15
                      A                      A                      A
 Frequencies --    458.3459               507.7326               509.4068
 Red. masses --      4.4111                 8.7988                 3.2057
 Frc consts  --      0.5460                 1.3364                 0.4901
 IR Inten    --      2.9855                 9.4761                 0.3516

                     16                     17                     18
                      A                      A                      A
 Frequencies --    543.9067               549.0501               559.1814
 Red. masses --      8.7189                 6.0867                 3.8664
 Frc consts  --      1.5197                 1.0811                 0.7123
 IR Inten    --      5.9981                49.6111                 0.4261

                     19                     20                     21
                      A                      A                      A
 Frequencies --    569.4125               626.6038               696.9675
 Red. masses --      7.1774                 5.9198                 1.5203
 Frc consts  --      1.3711                 1.3694                 0.4351
 IR Inten    --     11.4665                63.7256                41.1715

                     22                     23                     24
                      A                      A                      A
 Frequencies --    718.4777               722.2624               743.3236
 Red. masses --      8.2627                 5.9563                 2.6919
 Frc consts  --      2.5130                 1.8307                 0.8763
 IR Inten    --      4.2637                 1.8892                14.7649

                     25                     26                     27
                      A                      A                      A
 Frequencies --    759.0771               766.9303               825.6438
 Red. masses --      1.6953                 1.6431                 6.2849
 Frc consts  --      0.5755                 0.5694                 2.5243
 IR Inten    --      3.7832                85.8850                16.2268

                     28                     29                     30
                      A                      A                      A
 Frequencies --    828.8114               851.4114               870.3397
 Red. masses --      1.9006                 4.0564                 1.3769
 Frc consts  --      0.7692                 1.7325                 0.6145
 IR Inten    --      0.3272                13.9074                 1.0422

                     31                     32                     33
                      A                      A                      A
 Frequencies --    901.8012               952.2176               957.4354
 Red. masses --      1.4258                 1.3587                 5.4567
 Frc consts  --      0.6832                 0.7258                 2.9471
 IR Inten    --      5.9213                 0.2130                 3.2670

                     34                     35                     36
                      A                      A                      A
 Frequencies --    958.2791               976.1216              1004.0692
 Red. masses --      1.3477                 1.0749                 1.2984
 Frc consts  --      0.7292                 0.6034                 0.7712
 IR Inten    --      5.4965                72.7859                 0.1903

                     37                     38                     39
                      A                      A                      A
 Frequencies --   1051.4765              1053.2097              1090.0780
 Red. masses --      2.1066                 2.0433                 3.9632
 Frc consts  --      1.3722                 1.3354                 2.7747
 IR Inten    --      0.6071                12.6543                 3.7815

                     40                     41                     42
                      A                      A                      A
 Frequencies --   1123.2494              1155.8729              1166.7554
 Red. masses --      1.5268                 1.3630                 1.2534
 Frc consts  --      1.1350                 1.0729                 1.0053
 IR Inten    --     22.4654                36.0114                63.9139

                     43                     44                     45
                      A                      A                      A
 Frequencies --   1175.8854              1207.6892              1255.7726
 Red. masses --      1.1567                 1.6822                 1.8809
 Frc consts  --      0.9423                 1.4456                 1.7476
 IR Inten    --     41.2980                96.8296                66.9069

                     46                     47                     48
                      A                      A                      A
 Frequencies --   1263.2975              1306.0702              1344.1575
 Red. masses --      2.4872                 1.9045                 5.0850
 Frc consts  --      2.3387                 1.9141                 5.4130
 IR Inten    --     28.9754                 8.5876                11.4885

                     49                     50                     51
                      A                      A                      A
 Frequencies --   1357.5991              1389.9921              1402.4877
 Red. masses --      6.8327                 3.0957                 2.1969
 Frc consts  --      7.4197                 3.5240                 2.5460
 IR Inten    --    178.2123                41.4506                 2.6245

                     52                     53                     54
                      A                      A                      A
 Frequencies --   1434.3658              1481.7439              1496.0539
 Red. masses --      2.9874                 2.8837                 3.1923
 Frc consts  --      3.6213                 3.7304                 4.2096
 IR Inten    --    375.0521                 5.3292                42.5189

                     55                     56                     57
                      A                      A                      A
 Frequencies --   1525.0711              1553.6217              1572.0071
 Red. masses --      3.6476                 5.5895                 4.0845
 Frc consts  --      4.9985                 7.9490                 5.9470
 IR Inten    --     65.0216               175.0944                73.9959

                     58                     59                     60
                      A                      A                      A
 Frequencies --   1614.5179              1635.2096              1663.7209
 Red. masses --      6.1849                 6.2221                 6.6868
 Frc consts  --      9.4989                 9.8024                10.9050
 IR Inten    --    245.5530                84.0758               103.9848

                     61                     62                     63
                      A                      A                      A
 Frequencies --   2837.7696              3201.8708              3210.1261
 Red. masses --      1.0901                 1.0875                 1.0861
 Frc consts  --      5.1719                 6.5689                 6.5944
 IR Inten    --    938.0556                28.0212                 3.4388

                     64                     65                     66
                      A                      A                      A
 Frequencies --   3213.7497              3219.7750              3225.5594
 Red. masses --      1.0870                 1.0903                 1.0928
 Frc consts  --      6.6145                 6.6596                 6.6989
 IR Inten    --      5.9193                 3.3091                14.5879

                     67                     68                     69
                      A                      A                      A
 Frequencies --   3229.8482              3236.7262              3237.0075
 Red. masses --      1.0956                 1.0994                 1.0990
 Frc consts  --      6.7339                 6.7862                 6.7848
 IR Inten    --      7.0776                30.6799                 7.9910

 - Thermochemistry -
 -------------------
 Temperature   298.150 Kelvin.  Pressure   1.00000 Atm.
 Atom     1 has atomic number  6 and mass  12.00000

 Molecular mass:   227.04049 amu.
 Principal axes and moments of inertia in atomic units:
                           1         2         3
     Eigenvalues --  1290.477096409.492137699.96922
           X           -0.70070   0.71345   0.00001
           Y            0.71345   0.70070  -0.00000
           Z            0.00001  -0.00000   1.00000
 This molecule is an asymmetric top.
 Rotational symmetry number  1.
 Warning -- assumption of classical behavior for rotation
           may cause significant error
 Rotational temperatures (Kelvin)      0.06712     0.01351     0.01125
 Rotational constants (GHZ):           1.39851     0.28157     0.23438
 Zero-point vibrational energy     487697.2 (Joules/Mol)
                                  116.56244 (Kcal/Mol)
 Warning -- explicit consideration of  19 degrees of freedom as
           vibrations may cause significant error
 Vibrational temperatures:     49.45    75.00   162.61   173.78   265.72
          (Kelvin)            318.41   374.75   389.89   428.75   513.18
                              575.47   625.98   659.46   730.51   732.92
                              782.56   789.96   804.54   819.26   901.54
                             1002.78  1033.73  1039.17  1069.48  1092.14
                             1103.44  1187.92  1192.47  1224.99  1252.22
                             1297.49  1370.03  1377.54  1378.75  1404.42
                             1444.63  1512.84  1515.33  1568.38  1616.11
                             1663.04  1678.70  1691.84  1737.60  1806.78
                             1817.60  1879.14  1933.94  1953.28  1999.89
                             2017.87  2063.73  2131.90  2152.49  2194.24
                             2235.32  2261.77  2322.93  2352.70  2393.72
                             4082.92  4606.78  4618.66  4623.87  4632.54
                             4640.86  4647.03  4656.93  4657.33

 Zero-point correction=                           0.185754 (Hartree/Particle)
 Thermal correction to Energy=                    0.198098
 Thermal correction to Enthalpy=                  0.199042
 Thermal correction to Gibbs Free Energy=         0.146107
 Sum of electronic and zero-point Energies=          -1028.510975
 Sum of electronic and thermal Energies=             -1028.498631
 Sum of electronic and thermal Enthalpies=           -1028.497687
 Sum of electronic and thermal Free Energies=        -1028.550622

                     E (Thermal)             CV                S
                      KCal/Mol        Cal/Mol-Kelvin    Cal/Mol-Kelvin
 Total                  124.308             49.409            111.411
 Electronic               0.000              0.000              0.000
 Translational            0.889              2.981             42.162
 Rotational               0.889              2.981             32.521
 Vibrational            122.531             43.448             36.728
 Vibration     1          0.594              1.983              5.560
 Vibration     2          0.596              1.977              4.735
 Vibration     3          0.607              1.939              3.216
 Vibration     4          0.609              1.932              3.088
 Vibration     5          0.631              1.861              2.281
 Vibration     6          0.648              1.809              1.948
 Vibration     7          0.669              1.745              1.659
 Vibration     8          0.675              1.727              1.590
 Vibration     9          0.691              1.677              1.428
 Vibration    10          0.732              1.562              1.137
 Vibration    11          0.766              1.470              0.963
 Vibration    12          0.796              1.394              0.842
 Vibration    13          0.816              1.342              0.771
 Vibration    14          0.863              1.233              0.639
 Vibration    15          0.865              1.229              0.635
 Vibration    16          0.899              1.153              0.557
 Vibration    17          0.904              1.142              0.546
 Vibration    18          0.915              1.120              0.525
 Vibration    19          0.925              1.097              0.505

 Optimization completed.
    -- Stationary point found.
 Normal termination of Gaussian 16 at Tue Jul 14 13:51:37 2020.
