 Gaussian 16, Revision C.01,
 Gaussian 16:  ES64L-G16RevC.01  3-Jul-2019

 ----------------------------------------------------------------------
 #p opt=addgic freq td wb97xd/cc-pvdz nosymm int=ultrafine scrf=(solven
 t=CarbonTetraChloride)
 ----------------------------------------------------------------------

 ------------------------------------------------
 NM 2D-scan of HBT TD-WB97XD pVDZ in CTC Relaxed.
 ------------------------------------------------
 Symbolic Z-matrix:
 Charge =  0 Multiplicity = 1

 SCF Done:  E(RwB97XD) =  -1028.76697512     A.U. after   16 cycles
 Total Energy, E(TD-HF/TD-DFT) =  -1028.65975437
 SCF Done:  E(RwB97XD) =  -1028.79395996     A.U. after   14 cycles
 Total Energy, E(TD-HF/TD-DFT) =  -1028.69164793
 SCF Done:  E(RwB97XD) =  -1028.79994738     A.U. after   13 cycles
 Total Energy, E(TD-HF/TD-DFT) =  -1028.69681280
 SCF Done:  E(RwB97XD) =  -1028.80046541     A.U. after   12 cycles
 Total Energy, E(TD-HF/TD-DFT) =  -1028.69734900
 SCF Done:  E(RwB97XD) =  -1028.80047590     A.U. after    9 cycles
 Total Energy, E(TD-HF/TD-DFT) =  -1028.69735671
 Optimization completed.
    -- Stationary point found.
 Normal termination of Gaussian 16 at Tue Jul 14 17:32:06 2020.

 ----------------------------------------------------------------------
 #P Geom=AllCheck Guess=TCheck SCRF=Check GenChk RwB97XD TD(FC,Read)/CC
 -pVDZ Freq
 ----------------------------------------------------------------------

 Structure from the checkpoint file:  "config_9_20.chk"
 ------------------------------------------------
 NM 2D-scan of HBT TD-WB97XD pVDZ in CTC Relaxed.
 ------------------------------------------------
 Charge =  0 Multiplicity = 1

                          Input orientation:
 ---------------------------------------------------------------------
 Center     Atomic      Atomic             Coordinates (Angstroms)
 Number     Number       Type             X           Y           Z
 ---------------------------------------------------------------------
      1          6           0        1.514850   -3.287820   -0.000029
      2          6           0        0.999279   -1.996758   -0.000020
      3          6           0        1.824685   -0.849924   -0.000014
      4          6           0        3.218620   -1.017994   -0.000020
      5          6           0        3.730524   -2.313506   -0.000027
      6          6           0        2.897518   -3.441744   -0.000031
      7          1           0        0.847570   -4.150272   -0.000032
      8          1           0        3.880915   -0.151772   -0.000015
      9          1           0        4.813083   -2.450146   -0.000030
     10          1           0        3.332652   -4.441583   -0.000037
     11          7           0        1.087823    0.313883   -0.000006
     12         16           0       -0.688641   -1.553879   -0.000017
     13          6           0       -1.295585    1.132166    0.000026
     14          6           0       -2.634313    0.746033    0.000042
     15          6           0       -0.951999    2.566128    0.000032
     16          6           0       -3.676865    1.699212    0.000038
     17          1           0       -2.904666   -0.312059    0.000053
     18          6           0       -2.044077    3.487419    0.000022
     19          6           0       -3.379515    3.060323    0.000023
     20          1           0       -4.711994    1.355205    0.000045
     21          1           0       -1.790863    4.549165    0.000018
     22          1           0       -4.186029    3.795181    0.000016
     23          6           0       -0.266701    0.138155    0.000004
     24          8           0        0.261729    2.921881    0.000044
     25          1           0        1.391627    1.300430    0.000020
 ---------------------------------------------------------------------

 SCF Done:  E(RwB97XD) =  -1028.80047590     A.U. after    1 cycles

 Excitation energies and oscillator strengths:

 Excited state symmetry could not be determined.
 Excited State   1:      Singlet-?Sym    2.8060 eV  441.85 nm  f=0.4446  <S**2>=0.000
      59 -> 60         0.69763
 This state for optimization and/or second-order correction.
 Total Energy, E(TD-HF/TD-DFT) =  -1028.69735672
 Copying the excited state density for this state as the 1-particle RhoCI density.

 Excited state symmetry could not be determined.
 Excited State   2:      Singlet-?Sym    3.4805 eV  356.22 nm  f=0.0000  <S**2>=0.000
      58 -> 60         0.68351
      58 -> 62         0.11641
      58 -> 64         0.10974

 Excited state symmetry could not be determined.
 Excited State   3:      Singlet-?Sym    4.2472 eV  291.92 nm  f=0.3408  <S**2>=0.000
      57 -> 60         0.68467

 Alpha  occ. eigenvalues --  -89.10172 -19.20574 -14.53424 -10.42119 -10.37956
 Alpha  occ. eigenvalues --  -10.36171 -10.35519 -10.33370 -10.33264 -10.32694
 Alpha  occ. eigenvalues --  -10.32476 -10.31416 -10.30794 -10.30783 -10.29174
 Alpha  occ. eigenvalues --  -10.28343  -8.12257  -6.07124  -6.06750  -6.06276
 Alpha  occ. eigenvalues --   -1.12820  -1.08615  -0.98555  -0.95802  -0.93312
 Alpha  occ. eigenvalues --   -0.89072  -0.86960  -0.83663  -0.81178  -0.75849
 Alpha  occ. eigenvalues --   -0.73588  -0.72313  -0.68876  -0.67631  -0.65279
 Alpha  occ. eigenvalues --   -0.61073  -0.59701  -0.56657  -0.56027  -0.55897
 Alpha  occ. eigenvalues --   -0.55093  -0.53970  -0.53054  -0.50249  -0.48672
 Alpha  occ. eigenvalues --   -0.48629  -0.48574  -0.47045  -0.45577  -0.44919
 Alpha  occ. eigenvalues --   -0.44014  -0.42843  -0.42315  -0.39904  -0.36858
 Alpha  occ. eigenvalues --   -0.33748  -0.31404  -0.31156  -0.25701
 Alpha virt. eigenvalues --   -0.02131   0.03661   0.05434   0.06820   0.09455
 Alpha virt. eigenvalues --    0.10825   0.13975   0.14827   0.16210   0.17280
 Alpha virt. eigenvalues --    0.17832   0.19823   0.20518   0.21166   0.22366

 Mulliken charges:
               1
     1  C    0.022363
     2  C   -0.230859
     3  C    0.244419
     4  C   -0.011432
     5  C    0.009436
     6  C    0.004191
     7  H    0.025317
     8  H    0.030894
     9  H    0.028025
    10  H    0.027280
    11  N   -0.144531
    12  S    0.199435
    13  C   -0.065575
    14  C   -0.042296
    15  C    0.099533
    16  C   -0.032484
    17  H    0.016673
    18  C   -0.037291
    19  C    0.033599
    20  H    0.001184
    21  H    0.001173
    22  H    0.014507
    23  C    0.063055
    24  O   -0.398132
    25  H    0.141517
 Sum of Mulliken charges =  -0.00000

 Dipole moment (field-independent basis, Debye):
    X=              2.1456    Y=             -6.1118    Z=             -0.0001  Tot=              6.4774
 Quadrupole moment (field-independent basis, Debye-Ang):
   XX=            -81.3493   YY=            -97.7432   ZZ=           -104.1630
   XY=             -6.1015   XZ=             -0.0001   YZ=             -0.0001

  Exact polarizability:     346.429    -120.446     296.533      -0.002       0.002      63.182
 Approx polarizability:     272.826     -36.374     264.635      -0.001       0.001      81.933

 ******    1 imaginary frequencies (negative Signs) ******

                      1                      2                      3
                      A                      A                      A
 Frequencies --    -35.1160                45.9913               114.5445
 Red. masses --      4.9924                 5.8636                 5.9084
 Frc consts  --      0.0036                 0.0073                 0.0457
 IR Inten    --      1.3763                 0.9415                 9.5453

                      4                      5                      6
                      A                      A                      A
 Frequencies --    118.3389               183.8997               225.9776
 Red. masses --      5.8650                 5.7496                 5.5755
 Frc consts  --      0.0484                 0.1146                 0.1678
 IR Inten    --      1.6919                 0.0227                 0.2498

                      7                      8                      9
                      A                      A                      A
 Frequencies --    257.5943               273.9696               292.7094
 Red. masses --      8.8013                 4.5535                 7.2445
 Frc consts  --      0.3441                 0.2014                 0.3657
 IR Inten    --      2.9218                 0.3681                 1.2853

                     10                     11                     12
                      A                      A                      A
 Frequencies --    350.7259               394.1250               431.8005
 Red. masses --      4.6888                 7.7040                 3.6220
 Frc consts  --      0.3398                 0.7051                 0.3979
 IR Inten    --      1.2293                 7.2210                 1.9904

                     13                     14                     15
                      A                      A                      A
 Frequencies --    451.8267               507.5055               512.3569
 Red. masses --      4.1216                 8.6742                 3.2257
 Frc consts  --      0.4957                 1.3163                 0.4989
 IR Inten    --      4.3818                11.7840                 0.2290

                     16                     17                     18
                      A                      A                      A
 Frequencies --    541.5984               544.5055               559.9968
 Red. masses --      6.5940                 8.0477                 3.8575
 Frc consts  --      1.1396                 1.4058                 0.7127
 IR Inten    --     41.3493                 4.0047                 0.5025

                     19                     20                     21
                      A                      A                      A
 Frequencies --    568.1348               631.5900               695.1910
 Red. masses --      7.2110                 6.2148                 1.4785
 Frc consts  --      1.3713                 1.4607                 0.4210
 IR Inten    --      9.9856                29.5180                47.2924

                     22                     23                     24
                      A                      A                      A
 Frequencies --    722.4285               731.8042               743.4635
 Red. masses --      5.9539                 7.7168                 2.5427
 Frc consts  --      1.8308                 2.4349                 0.8281
 IR Inten    --      3.2827                 4.4550                 6.8911

                     25                     26                     27
                      A                      A                      A
 Frequencies --    755.5690               766.5322               790.6555
 Red. masses --      1.6270                 1.5744                 1.1331
 Frc consts  --      0.5473                 0.5450                 0.4173
 IR Inten    --      0.4928               103.8666                62.2467

                     28                     29                     30
                      A                      A                      A
 Frequencies --    827.6996               830.7094               865.5361
 Red. masses --      6.5299                 2.0926                 4.6143
 Frc consts  --      2.6357                 0.8508                 2.0367
 IR Inten    --     18.2002                 3.6284                 2.6285

                     31                     32                     33
                      A                      A                      A
 Frequencies --    871.0820               898.5887               951.3413
 Red. masses --      1.3749                 1.4532                 1.3591
 Frc consts  --      0.6147                 0.6913                 0.7247
 IR Inten    --      0.3919                 8.8377                 0.3978

                     34                     35                     36
                      A                      A                      A
 Frequencies --    959.0615               961.1326              1004.6489
 Red. masses --      1.3530                 5.2876                 1.2992
 Frc consts  --      0.7332                 2.8779                 0.7726
 IR Inten    --      1.4428                 0.0535                 0.0102

                     37                     38                     39
                      A                      A                      A
 Frequencies --   1052.0774              1062.1579              1096.4070
 Red. masses --      2.0802                 2.0526                 3.8032
 Frc consts  --      1.3566                 1.3644                 2.6937
 IR Inten    --      3.8280                 9.4545                 1.0658

                     40                     41                     42
                      A                      A                      A
 Frequencies --   1120.9764              1157.0265              1166.3200
 Red. masses --      1.6579                 1.3845                 1.2813
 Frc consts  --      1.2275                 1.0920                 1.0269
 IR Inten    --     14.6408                16.6622                62.6240

                     43                     44                     45
                      A                      A                      A
 Frequencies --   1178.3880              1206.6066              1261.5371
 Red. masses --      1.1631                 1.7668                 2.4906
 Frc consts  --      0.9516                 1.5156                 2.3353
 IR Inten    --     23.2567                48.9459                17.7212

                     46                     47                     48
                      A                      A                      A
 Frequencies --   1273.6824              1297.4296              1338.6721
 Red. masses --      1.9413                 1.9047                 4.4116
 Frc consts  --      1.8555                 1.8890                 4.6579
 IR Inten    --     72.7975                 2.4378                12.6314

                     49                     50                     51
                      A                      A                      A
 Frequencies --   1361.5149              1394.2295              1408.9721
 Red. masses --      5.0249                 3.0046                 2.6867
 Frc consts  --      5.4881                 3.4412                 3.1425
 IR Inten    --    185.5535                 2.4258                32.2729

                     52                     53                     54
                      A                      A                      A
 Frequencies --   1449.4322              1478.9105              1501.0597
 Red. masses --      2.1425                 3.1278                 3.0758
 Frc consts  --      2.6520                 4.0307                 4.0833
 IR Inten    --    144.9675                 3.3754                37.4170

                     55                     56                     57
                      A                      A                      A
 Frequencies --   1523.6980              1551.6760              1581.9159
 Red. masses --      3.7781                 4.6788                 4.6735
 Frc consts  --      5.1680                 6.6372                 6.8907
 IR Inten    --     35.7823               209.3935               117.1174

                     58                     59                     60
                      A                      A                      A
 Frequencies --   1617.8546              1647.2263              1666.4339
 Red. masses --      5.1519                 6.5311                 6.7797
 Frc consts  --      7.9450                10.4410                11.0926
 IR Inten    --    167.5394                47.9200               102.2988

                     61                     62                     63
                      A                      A                      A
 Frequencies --   3203.1777              3210.3528              3210.6921
 Red. masses --      1.0863                 1.0873                 1.0862
 Frc consts  --      6.5672                 6.6025                 6.5974
 IR Inten    --     25.1357                10.7562                 4.8846

                     64                     65                     66
                      A                      A                      A
 Frequencies --   3220.6034              3222.8526              3228.9031
 Red. masses --      1.0900                 1.0925                 1.0959
 Frc consts  --      6.6614                 6.6859                 6.7320
 IR Inten    --      2.3121                16.0234                 7.5313

                     67                     68                     69
                      A                      A                      A
 Frequencies --   3234.9555              3237.5148              3366.0521
 Red. masses --      1.0988                 1.0998                 1.0843
 Frc consts  --      6.7748                 6.7916                 7.2381
 IR Inten    --     25.9752                12.9337               468.0913

 - Thermochemistry -
 -------------------
 Temperature   298.150 Kelvin.  Pressure   1.00000 Atm.
 Atom     1 has atomic number  6 and mass  12.00000

 Molecular mass:   227.04049 amu.
 Principal axes and moments of inertia in atomic units:
                           1         2         3
     Eigenvalues --  1274.017366474.752117748.76946
           X           -0.70132   0.71284   0.00000
           Y            0.71284   0.70132  -0.00001
           Z            0.00001   0.00000   1.00000
 This molecule is an asymmetric top.
 Rotational symmetry number  1.
 Warning -- assumption of classical behavior for rotation
           may cause significant error
 Rotational temperatures (Kelvin)      0.06798     0.01338     0.01118
 Rotational constants (GHZ):           1.41658     0.27874     0.23291
    1 imaginary frequencies ignored.
 Zero-point vibrational energy     489942.2 (Joules/Mol)
                                  117.09900 (Kcal/Mol)
 Warning -- explicit consideration of  18 degrees of freedom as
           vibrations may cause significant error
 Vibrational temperatures:     66.17   164.80   170.26   264.59   325.13
          (Kelvin)            370.62   394.18   421.14   504.62   567.06
                              621.26   650.08   730.19   737.17   779.24
                              783.42   805.71   817.42   908.72  1000.22
                             1039.41  1052.90  1069.68  1087.10  1102.87
                             1137.58  1190.88  1195.21  1245.31  1253.29
                             1292.87  1368.77  1379.88  1382.86  1445.47
                             1513.70  1528.21  1577.49  1612.84  1664.70
                             1678.07  1695.44  1736.04  1815.07  1832.54
                             1866.71  1926.05  1958.92  2005.99  2027.20
                             2085.41  2127.82  2159.69  2192.26  2232.52
                             2276.02  2327.73  2369.99  2397.63  4608.66
                             4618.98  4619.47  4633.73  4636.97  4645.67
                             4654.38  4658.06  4843.00

 Zero-point correction=                           0.186609 (Hartree/Particle)
 Thermal correction to Energy=                    0.198151
 Thermal correction to Enthalpy=                  0.199095
 Thermal correction to Gibbs Free Energy=         0.148599
 Sum of electronic and zero-point Energies=          -1028.510748
 Sum of electronic and thermal Energies=             -1028.499205
 Sum of electronic and thermal Enthalpies=           -1028.498261
 Sum of electronic and thermal Free Energies=        -1028.548758

                     E (Thermal)             CV                S
                      KCal/Mol        Cal/Mol-Kelvin    Cal/Mol-Kelvin
 Total                  124.342             47.666            106.279
 Electronic               0.000              0.000              0.000
 Translational            0.889              2.981             42.162
 Rotational               0.889              2.981             32.525
 Vibrational            122.564             41.704             31.592
 Vibration     1          0.595              1.979              4.983
 Vibration     2          0.607              1.937              3.190
 Vibration     3          0.608              1.934              3.127
 Vibration     4          0.631              1.862              2.288
 Vibration     5          0.650              1.801              1.911
 Vibration     6          0.667              1.750              1.678
 Vibration     7          0.676              1.721              1.571
 Vibration     8          0.688              1.687              1.458
 Vibration     9          0.728              1.574              1.163
 Vibration    10          0.761              1.483              0.984
 Vibration    11          0.793              1.401              0.853
 Vibration    12          0.810              1.357              0.790
 Vibration    13          0.863              1.233              0.640
 Vibration    14          0.867              1.223              0.628
 Vibration    15          0.897              1.158              0.562
 Vibration    16          0.900              1.152              0.556
 Vibration    17          0.916              1.118              0.524
 Vibration    18          0.924              1.100              0.508

 Optimization completed.
    -- Stationary point found.
 Normal termination of Gaussian 16 at Tue Jul 14 17:49:32 2020.
