 Gaussian 16, Revision C.01,
 Gaussian 16:  ES64L-G16RevC.01  3-Jul-2019

 ----------------------------------------------------------------------
 #p opt=addgic freq td wb97xd/cc-pvdz nosymm int=ultrafine scrf=(solven
 t=CarbonTetraChloride)
 ----------------------------------------------------------------------

 ------------------------------------------------
 NM 2D-scan of HBT TD-WB97XD pVDZ in CTC Relaxed.
 ------------------------------------------------
 Symbolic Z-matrix:
 Charge =  0 Multiplicity = 1

 SCF Done:  E(RwB97XD) =  -1028.80916906     A.U. after   15 cycles
 Total Energy, E(TD-HF/TD-DFT) =  -1028.69074207
 SCF Done:  E(RwB97XD) =  -1028.80929250     A.U. after   10 cycles
 Total Energy, E(TD-HF/TD-DFT) =  -1028.69080137
 SCF Done:  E(RwB97XD) =  -1028.80922233     A.U. after    9 cycles
 Total Energy, E(TD-HF/TD-DFT) =  -1028.69080495
 SCF Done:  E(RwB97XD) =  -1028.80909952     A.U. after   10 cycles
 Total Energy, E(TD-HF/TD-DFT) =  -1028.69080738
 Optimization completed.
    -- Stationary point found.
 Normal termination of Gaussian 16 at Mon Jul 13 15:06:23 2020.

 ----------------------------------------------------------------------
 #P Geom=AllCheck Guess=TCheck SCRF=Check GenChk RwB97XD TD(FC,Read)/CC
 -pVDZ Freq
 ----------------------------------------------------------------------

 Structure from the checkpoint file:  "config_7_3.chk"
 ------------------------------------------------
 NM 2D-scan of HBT TD-WB97XD pVDZ in CTC Relaxed.
 ------------------------------------------------
 Charge =  0 Multiplicity = 1

                          Input orientation:
 ---------------------------------------------------------------------
 Center     Atomic      Atomic             Coordinates (Angstroms)
 Number     Number       Type             X           Y           Z
 ---------------------------------------------------------------------
      1          6           0        1.734782   -3.269746   -0.000030
      2          6           0        1.002792   -2.082778   -0.000016
      3          6           0        1.671511   -0.827638   -0.000009
      4          6           0        3.078498   -0.766515   -0.000013
      5          6           0        3.791236   -1.951274   -0.000026
      6          6           0        3.130307   -3.192773   -0.000035
      7          1           0        1.234503   -4.239004   -0.000036
      8          1           0        3.572542    0.205572   -0.000006
      9          1           0        4.882245   -1.923586   -0.000030
     10          1           0        3.714592   -4.113941   -0.000046
     11          7           0        0.851683    0.239780   -0.000001
     12         16           0       -0.746723   -1.829310   -0.000007
     13          6           0       -1.412596    1.006242    0.000008
     14          6           0       -2.810868    0.882809   -0.000004
     15          6           0       -0.862832    2.393073    0.000032
     16          6           0       -3.641648    2.015888    0.000019
     17          1           0       -3.264047   -0.110439   -0.000029
     18          6           0       -1.741058    3.500708    0.000056
     19          6           0       -3.118832    3.322242    0.000052
     20          1           0       -4.723342    1.871448    0.000011
     21          1           0       -1.280322    4.489160    0.000077
     22          1           0       -3.788423    4.182422    0.000071
     23          6           0       -0.470560   -0.065238   -0.000000
     24          8           0        0.408163    2.606718    0.000031
     25          1           0        0.908371    1.482385    0.000016
 ---------------------------------------------------------------------

 SCF Done:  E(RwB97XD) =  -1028.80909952     A.U. after    1 cycles

 Excitation energies and oscillator strengths:

 Excited state symmetry could not be determined.
 Excited State   1:      Singlet-?Sym    3.2189 eV  385.18 nm  f=0.4903  <S**2>=0.000
      59 -> 60         0.69361
 This state for optimization and/or second-order correction.
 Total Energy, E(TD-HF/TD-DFT) =  -1028.69080737
 Copying the excited state density for this state as the 1-particle RhoCI density.

 Excited state symmetry could not be determined.
 Excited State   2:      Singlet-?Sym    4.3688 eV  283.79 nm  f=0.3973  <S**2>=0.000
      57 -> 60        -0.11401
      58 -> 60         0.66910

 Excited state symmetry could not be determined.
 Excited State   3:      Singlet-?Sym    4.5269 eV  273.88 nm  f=0.0000  <S**2>=0.000
      56 -> 60         0.68833
      56 -> 64        -0.10399

 Alpha  occ. eigenvalues --  -89.10047 -19.24525 -14.49101 -10.41065 -10.37148
 Alpha  occ. eigenvalues --  -10.36102 -10.35677 -10.32903 -10.32088 -10.32036
 Alpha  occ. eigenvalues --  -10.31947 -10.31938 -10.31901 -10.31362 -10.29772
 Alpha  occ. eigenvalues --  -10.29270  -8.11938  -6.06809  -6.06452  -6.05973
 Alpha  occ. eigenvalues --   -1.13910  -1.09733  -0.97326  -0.95190  -0.92395
 Alpha  occ. eigenvalues --   -0.88970  -0.85577  -0.83904  -0.82037  -0.75928
 Alpha  occ. eigenvalues --   -0.71477  -0.70757  -0.68559  -0.68196  -0.63638
 Alpha  occ. eigenvalues --   -0.60808  -0.59230  -0.57708  -0.55387  -0.54724
 Alpha  occ. eigenvalues --   -0.54320  -0.53403  -0.52551  -0.51190  -0.49949
 Alpha  occ. eigenvalues --   -0.49474  -0.47474  -0.46372  -0.45469  -0.45008
 Alpha  occ. eigenvalues --   -0.43981  -0.43027  -0.42031  -0.40649  -0.36600
 Alpha  occ. eigenvalues --   -0.34851  -0.32896  -0.31185  -0.27241
 Alpha virt. eigenvalues --   -0.01846   0.04411   0.06636   0.06692   0.08144
 Alpha virt. eigenvalues --    0.10582   0.12849   0.14913   0.16012   0.17744
 Alpha virt. eigenvalues --    0.18863   0.20703   0.21513   0.22040   0.22655

 Mulliken charges:
               1
     1  C    0.011426
     2  C   -0.236837
     3  C    0.274996
     4  C   -0.014077
     5  C    0.011551
     6  C   -0.003822
     7  H    0.022993
     8  H    0.025888
     9  H    0.023230
    10  H    0.023766
    11  N   -0.283476
    12  S    0.181038
    13  C   -0.120851
    14  C   -0.018281
    15  C    0.121249
    16  C   -0.029261
    17  H    0.005732
    18  C   -0.006344
    19  C    0.029286
    20  H    0.006629
    21  H    0.010149
    22  H    0.018476
    23  C    0.072313
    24  O   -0.342975
    25  H    0.217201
 Sum of Mulliken charges =  -0.00000

 Dipole moment (field-independent basis, Debye):
    X=              0.6399    Y=             -3.6828    Z=             -0.0000  Tot=              3.7380
 Quadrupole moment (field-independent basis, Debye-Ang):
   XX=            -83.2450   YY=            -91.5257   ZZ=           -104.3518
   XY=             -6.8853   XZ=             -0.0001   YZ=              0.0002

  Exact polarizability:     363.463    -143.016     323.570      -0.002       0.003      63.387
 Approx polarizability:     275.692     -35.558     264.081      -0.001       0.002      82.363

 ******    1 imaginary frequencies (negative Signs) ******

                      1                      2                      3
                      A                      A                      A
 Frequencies --   -984.0249                14.0896                43.3278
 Red. masses --      1.0926                 6.7280                 6.7603
 Frc consts  --      0.6233                 0.0008                 0.0075
 IR Inten    --   1790.3995                 0.0316                 1.6782

                      4                      5                      6
                      A                      A                      A
 Frequencies --    106.9353               134.1993               176.3128
 Red. masses --      4.6081                 5.7384                 5.7642
 Frc consts  --      0.0310                 0.0609                 0.1056
 IR Inten    --      0.0084                 3.2937                 0.4438

                      7                      8                      9
                      A                      A                      A
 Frequencies --    220.7434               268.7401               272.4896
 Red. masses --      5.3370                 4.7329                 7.4162
 Frc consts  --      0.1532                 0.2014                 0.3244
 IR Inten    --      0.0997                 0.2262                10.6915

                     10                     11                     12
                      A                      A                      A
 Frequencies --    371.5022               377.5683               402.7961
 Red. masses --      5.0185                 6.3058                11.2542
 Frc consts  --      0.4081                 0.5296                 1.0758
 IR Inten    --      0.6038                 6.1897                 3.6936

                     13                     14                     15
                      A                      A                      A
 Frequencies --    437.3224               473.9544               495.6161
 Red. masses --      3.2212                 4.7892                 3.1516
 Frc consts  --      0.3630                 0.6338                 0.4561
 IR Inten    --      5.1802                 0.1604                 0.4653

                     16                     17                     18
                      A                      A                      A
 Frequencies --    505.3620               541.0117               555.9443
 Red. masses --      8.9038                 8.4239                 3.8783
 Frc consts  --      1.3398                 1.4527                 0.7062
 IR Inten    --      1.2211                 1.1114                 0.3381

                     19                     20                     21
                      A                      A                      A
 Frequencies --    579.7829               605.2375               665.1430
 Red. masses --      7.4763                 7.4307                 6.8417
 Frc consts  --      1.4807                 1.6037                 1.7834
 IR Inten    --      9.2056                10.6451               119.0529

                     22                     23                     24
                      A                      A                      A
 Frequencies --    695.3141               707.4069               739.9403
 Red. masses --      1.6509                 6.4314                 2.2359
 Frc consts  --      0.4703                 1.8963                 0.7213
 IR Inten    --     38.5333                16.8111                17.9725

                     25                     26                     27
                      A                      A                      A
 Frequencies --    751.4423               764.3408               767.4020
 Red. masses --      8.5962                 1.9074                 1.7949
 Frc consts  --      2.8599                 0.6565                 0.6228
 IR Inten    --     18.9536                 6.7459                82.6549

                     28                     29                     30
                      A                      A                      A
 Frequencies --    815.5924               827.9900               862.1805
 Red. masses --      6.2772                 1.6103                 1.4036
 Frc consts  --      2.4602                 0.6504                 0.6148
 IR Inten    --     11.6785                 0.0403                 1.0115

                     31                     32                     33
                      A                      A                      A
 Frequencies --    909.6747               918.2053               954.1275
 Red. masses --      1.3798                 6.7196                 1.3461
 Frc consts  --      0.6727                 3.3379                 0.7220
 IR Inten    --      5.5287                20.4651                 1.7252

                     34                     35                     36
                      A                      A                      A
 Frequencies --    956.3136               991.4956              1000.7440
 Red. masses --      1.3802                 7.3695                 1.2942
 Frc consts  --      0.7437                 4.2685                 0.7637
 IR Inten    --      0.7383                47.2433                 0.0039

                     37                     38                     39
                      A                      A                      A
 Frequencies --   1040.7195              1047.8604              1082.2722
 Red. masses --      2.1786                 2.1158                 4.4494
 Frc consts  --      1.3902                 1.3688                 3.0706
 IR Inten    --      0.1836                 2.3442                59.5016

                     40                     41                     42
                      A                      A                      A
 Frequencies --   1127.8482              1149.7170              1167.9278
 Red. masses --      1.4499                 1.3192                 1.1731
 Frc consts  --      1.0866                 1.0274                 0.9428
 IR Inten    --     34.6548                10.0425               117.7066

                     43                     44                     45
                      A                      A                      A
 Frequencies --   1178.0488              1236.9119              1254.8097
 Red. masses --      1.1518                 1.0540                 1.8475
 Frc consts  --      0.9418                 0.9501                 1.7139
 IR Inten    --     20.5041                63.3219                90.9335

                     46                     47                     48
                      A                      A                      A
 Frequencies --   1264.3057              1296.7175              1344.1528
 Red. masses --      2.8542                 2.0875                 3.8451
 Frc consts  --      2.6881                 2.0681                 4.0932
 IR Inten    --     31.6447                15.6367               156.9893

                     49                     50                     51
                      A                      A                      A
 Frequencies --   1367.0020              1396.4616              1404.6656
 Red. masses --      6.2064                 2.6244                 2.1923
 Frc consts  --      6.8332                 3.0154                 2.5485
 IR Inten    --    201.2221                18.6995                 7.1811

                     52                     53                     54
                      A                      A                      A
 Frequencies --   1446.9974              1476.4840              1498.3458
 Red. masses --      2.9041                 4.0554                 3.8030
 Frc consts  --      3.5826                 5.2088                 5.0304
 IR Inten    --    502.4152               232.2330               208.2438

                     55                     56                     57
                      A                      A                      A
 Frequencies --   1533.0158              1543.2556              1562.5737
 Red. masses --      5.2436                 5.1563                 4.2064
 Frc consts  --      7.2607                 7.2354                 6.0512
 IR Inten    --     38.9777               109.4976               235.5523

                     58                     59                     60
                      A                      A                      A
 Frequencies --   1623.4868              1644.7465              1658.5923
 Red. masses --      6.0573                 6.0786                 6.4314
 Frc consts  --      9.4064                 9.6884                10.4240
 IR Inten    --     52.8339               885.7379                64.1360

                     61                     62                     63
                      A                      A                      A
 Frequencies --   1869.4216              3202.1487              3209.1125
 Red. masses --      1.1023                 1.0877                 1.0861
 Frc consts  --      2.2697                 6.5713                 6.5898
 IR Inten    --    118.3336                15.7518                 6.6482

                     64                     65                     66
                      A                      A                      A
 Frequencies --   3216.2122              3219.1053              3225.6214
 Red. masses --      1.0886                 1.0901                 1.0925
 Frc consts  --      6.6345                 6.6555                 6.6973
 IR Inten    --      2.7564                 3.0810                19.1325

                     67                     68                     69
                      A                      A                      A
 Frequencies --   3229.9141              3236.9047              3238.3984
 Red. masses --      1.0954                 1.0993                 1.0987
 Frc consts  --      6.7327                 6.7864                 6.7889
 IR Inten    --     10.4996                26.0550                11.7446

 - Thermochemistry -
 -------------------
 Temperature   298.150 Kelvin.  Pressure   1.00000 Atm.
 Atom     1 has atomic number  6 and mass  12.00000

 Molecular mass:   227.04049 amu.
 Principal axes and moments of inertia in atomic units:
                           1         2         3
     Eigenvalues --  1331.396706319.738817651.13551
           X           -0.70201   0.71217   0.00000
           Y            0.71217   0.70201  -0.00001
           Z            0.00001   0.00001   1.00000
 This molecule is an asymmetric top.
 Rotational symmetry number  1.
 Warning -- assumption of classical behavior for rotation
           may cause significant error
 Rotational temperatures (Kelvin)      0.06505     0.01371     0.01132
 Rotational constants (GHZ):           1.35552     0.28557     0.23588
    1 imaginary frequencies ignored.
 Zero-point vibrational energy     477932.1 (Joules/Mol)
                                  114.22851 (Kcal/Mol)
 Warning -- explicit consideration of  19 degrees of freedom as
           vibrations may cause significant error
 Vibrational temperatures:     20.27    62.34   153.86   193.08   253.67
          (Kelvin)            317.60   386.66   392.05   534.51   543.24
                              579.53   629.21   681.91   713.08   727.10
                              778.40   799.88   834.18   870.80   956.99
                             1000.40  1017.80  1064.61  1081.16  1099.72
                             1104.12  1173.46  1191.29  1240.49  1308.82
                             1321.09  1372.78  1375.92  1426.54  1439.85
                             1497.36  1507.64  1557.15  1622.72  1654.19
                             1680.39  1694.95  1779.64  1805.39  1819.05
                             1865.69  1933.94  1966.81  2009.20  2021.00
                             2081.91  2124.33  2155.79  2205.67  2220.40
                             2248.20  2335.84  2366.42  2386.34  2689.68
                             4607.18  4617.20  4627.41  4631.57  4640.95
                             4647.13  4657.18  4659.33

 Zero-point correction=                           0.182035 (Hartree/Particle)
 Thermal correction to Energy=                    0.194202
 Thermal correction to Enthalpy=                  0.195147
 Thermal correction to Gibbs Free Energy=         0.141601
 Sum of electronic and zero-point Energies=          -1028.508773
 Sum of electronic and thermal Energies=             -1028.496605
 Sum of electronic and thermal Enthalpies=           -1028.495661
 Sum of electronic and thermal Free Energies=        -1028.549207

                     E (Thermal)             CV                S
                      KCal/Mol        Cal/Mol-Kelvin    Cal/Mol-Kelvin
 Total                  121.864             48.463            112.697
 Electronic               0.000              0.000              0.000
 Translational            0.889              2.981             42.162
 Rotational               0.889              2.981             32.532
 Vibrational            120.086             42.501             38.003
 Vibration     1          0.593              1.986              7.330
 Vibration     2          0.595              1.980              5.101
 Vibration     3          0.606              1.944              3.324
 Vibration     4          0.613              1.919              2.885
 Vibration     5          0.628              1.872              2.367
 Vibration     6          0.647              1.809              1.953
 Vibration     7          0.673              1.731              1.604
 Vibration     8          0.675              1.724              1.580
 Vibration     9          0.743              1.531              1.074
 Vibration    10          0.748              1.518              1.049
 Vibration    11          0.768              1.464              0.952
 Vibration    12          0.798              1.389              0.835
 Vibration    13          0.831              1.308              0.727
 Vibration    14          0.851              1.260              0.669
 Vibration    15          0.861              1.238              0.645
 Vibration    16          0.896              1.159              0.563
 Vibration    17          0.911              1.127              0.532
 Vibration    18          0.936              1.075              0.486
 Vibration    19          0.964              1.021              0.441

 Optimization completed.
    -- Stationary point found.
 Normal termination of Gaussian 16 at Mon Jul 13 15:25:13 2020.
