 Gaussian 16, Revision C.01,
 Gaussian 16:  ES64L-G16RevC.01  3-Jul-2019

 ----------------------------------------------------------------------
 #p opt=addgic freq td wb97xd/cc-pvdz nosymm int=ultrafine scrf=(solven
 t=CarbonTetraChloride)
 ----------------------------------------------------------------------

 ------------------------------------------------
 NM 2D-scan of HBT TD-WB97XD pVDZ in CTC Relaxed.
 ------------------------------------------------
 Symbolic Z-matrix:
 Charge =  0 Multiplicity = 1

 SCF Done:  E(RwB97XD) =  -1028.58048118     A.U. after   16 cycles
 Total Energy, E(TD-HF/TD-DFT) =  -1028.47596334
 SCF Done:  E(RwB97XD) =  -1028.73143627     A.U. after   14 cycles
 Total Energy, E(TD-HF/TD-DFT) =  -1028.63024803
 SCF Done:  E(RwB97XD) =  -1028.76948745     A.U. after   15 cycles
 Total Energy, E(TD-HF/TD-DFT) =  -1028.67460307
 SCF Done:  E(RwB97XD) =  -1028.78790579     A.U. after   14 cycles
 Total Energy, E(TD-HF/TD-DFT) =  -1028.68996055
 SCF Done:  E(RwB97XD) =  -1028.79042698     A.U. after   13 cycles
 Total Energy, E(TD-HF/TD-DFT) =  -1028.69180623
 SCF Done:  E(RwB97XD) =  -1028.79134147     A.U. after   12 cycles
 Total Energy, E(TD-HF/TD-DFT) =  -1028.69206804
 SCF Done:  E(RwB97XD) =  -1028.79144199     A.U. after   11 cycles
 Total Energy, E(TD-HF/TD-DFT) =  -1028.69208302
 Optimization completed.
    -- Stationary point found.
 Normal termination of Gaussian 16 at Tue Jul 14 16:42:18 2020.

 ----------------------------------------------------------------------
 #P Geom=AllCheck Guess=TCheck SCRF=Check GenChk RwB97XD TD(FC,Read)/CC
 -pVDZ Freq
 ----------------------------------------------------------------------

 Structure from the checkpoint file:  "config_11_19.chk"
 ------------------------------------------------
 NM 2D-scan of HBT TD-WB97XD pVDZ in CTC Relaxed.
 ------------------------------------------------
 Charge =  0 Multiplicity = 1

                          Input orientation:
 ---------------------------------------------------------------------
 Center     Atomic      Atomic             Coordinates (Angstroms)
 Number     Number       Type             X           Y           Z
 ---------------------------------------------------------------------
      1          6           0        1.539027   -3.293801    0.000001
      2          6           0        1.011765   -2.010265   -0.000005
      3          6           0        1.829523   -0.877188   -0.000026
      4          6           0        3.224967   -1.015839   -0.000041
      5          6           0        3.750509   -2.307559   -0.000035
      6          6           0        2.924475   -3.437469   -0.000014
      7          1           0        0.881690   -4.163338    0.000018
      8          1           0        3.877534   -0.141699   -0.000057
      9          1           0        4.834221   -2.434392   -0.000046
     10          1           0        3.365541   -4.434532   -0.000009
     11          7           0        1.071352    0.268600   -0.000032
     12         16           0       -0.681548   -1.550781    0.000012
     13          6           0       -1.329992    1.141241    0.000013
     14          6           0       -2.662211    0.769932    0.000004
     15          6           0       -0.957072    2.563229    0.000046
     16          6           0       -3.708154    1.740480    0.000017
     17          1           0       -2.943789   -0.285876   -0.000016
     18          6           0       -2.051630    3.499284    0.000053
     19          6           0       -3.400139    3.091758    0.000037
     20          1           0       -4.744137    1.398429    0.000008
     21          1           0       -1.792528    4.560106    0.000080
     22          1           0       -4.197892    3.836565    0.000045
     23          6           0       -0.291839    0.137427   -0.000003
     24          8           0        0.257879    2.858969    0.000082
     25          1           0        1.572988    1.129438   -0.000034
 ---------------------------------------------------------------------

 SCF Done:  E(RwB97XD) =  -1028.79144199     A.U. after    1 cycles

 Excitation energies and oscillator strengths:

 Excited state symmetry could not be determined.
 Excited State   1:      Singlet-?Sym    2.7037 eV  458.57 nm  f=0.4400  <S**2>=0.000
      59 -> 60         0.69798
 This state for optimization and/or second-order correction.
 Total Energy, E(TD-HF/TD-DFT) =  -1028.69208301
 Copying the excited state density for this state as the 1-particle RhoCI density.

 Excited state symmetry could not be determined.
 Excited State   2:      Singlet-?Sym    3.2966 eV  376.09 nm  f=0.0000  <S**2>=0.000
      58 -> 60         0.68418
      58 -> 62         0.11359
      58 -> 64         0.10195

 Excited state symmetry could not be determined.
 Excited State   3:      Singlet-?Sym    4.2474 eV  291.91 nm  f=0.3859  <S**2>=0.000
      57 -> 60         0.68512

 Alpha  occ. eigenvalues --  -89.10301 -19.19969 -14.53526 -10.42611 -10.37655
 Alpha  occ. eigenvalues --  -10.36104 -10.35173 -10.33494 -10.33487 -10.32895
 Alpha  occ. eigenvalues --  -10.32580 -10.31312 -10.30708 -10.30590 -10.29020
 Alpha  occ. eigenvalues --  -10.28155  -8.12391  -6.07263  -6.06873  -6.06412
 Alpha  occ. eigenvalues --   -1.13233  -1.08793  -0.98706  -0.95964  -0.93288
 Alpha  occ. eigenvalues --   -0.89028  -0.86985  -0.83895  -0.80751  -0.75828
 Alpha  occ. eigenvalues --   -0.74568  -0.72234  -0.69334  -0.67534  -0.65004
 Alpha  occ. eigenvalues --   -0.61099  -0.59743  -0.56531  -0.56267  -0.56145
 Alpha  occ. eigenvalues --   -0.55127  -0.53832  -0.53047  -0.50248  -0.48685
 Alpha  occ. eigenvalues --   -0.48673  -0.48230  -0.47110  -0.45629  -0.44903
 Alpha  occ. eigenvalues --   -0.43905  -0.42739  -0.42322  -0.39765  -0.36932
 Alpha  occ. eigenvalues --   -0.33853  -0.31509  -0.30530  -0.25300
 Alpha virt. eigenvalues --   -0.02257   0.03540   0.05488   0.06867   0.09747
 Alpha virt. eigenvalues --    0.10957   0.13851   0.14576   0.15943   0.16671
 Alpha virt. eigenvalues --    0.17727   0.19721   0.20695   0.21182   0.22532

 Mulliken charges:
               1
     1  C    0.020211
     2  C   -0.233914
     3  C    0.209336
     4  C   -0.011057
     5  C    0.010700
     6  C    0.005164
     7  H    0.025104
     8  H    0.031701
     9  H    0.029229
    10  H    0.027918
    11  N   -0.108012
    12  S    0.199274
    13  C   -0.057504
    14  C   -0.044719
    15  C    0.096087
    16  C   -0.036226
    17  H    0.013510
    18  C   -0.057199
    19  C    0.034973
    20  H    0.000303
    21  H   -0.001029
    22  H    0.013755
    23  C    0.086582
    24  O   -0.379235
    25  H    0.125047
 Sum of Mulliken charges =  -0.00000

 Dipole moment (field-independent basis, Debye):
    X=              2.7094    Y=             -6.3790    Z=             -0.0002  Tot=              6.9306
 Quadrupole moment (field-independent basis, Debye-Ang):
   XX=            -80.8531   YY=            -98.0270   ZZ=           -104.1161
   XY=             -5.7194   XZ=             -0.0003   YZ=             -0.0005

  Exact polarizability:     345.435    -117.071     289.871      -0.002       0.001      63.229
 Approx polarizability:     275.283     -39.123     264.157      -0.001       0.001      81.934

 ******    1 imaginary frequencies (negative Signs) ******

                      1                      2                      3
                      A                      A                      A
 Frequencies --    -78.4614                52.0174               101.6806
 Red. masses --      4.5599                 6.3288                 5.8274
 Frc consts  --      0.0165                 0.0101                 0.0355
 IR Inten    --      3.2174                 0.7185                 0.4192

                      4                      5                      6
                      A                      A                      A
 Frequencies --    110.7520               178.7379               223.8428
 Red. masses --      5.8414                 5.3872                 5.6629
 Frc consts  --      0.0422                 0.1014                 0.1672
 IR Inten    --      6.4120                 0.0016                 2.9518

                      7                      8                      9
                      A                      A                      A
 Frequencies --    258.0213               268.2187               282.0472
 Red. masses --      9.2747                 3.7113                 7.2957
 Frc consts  --      0.3638                 0.1573                 0.3419
 IR Inten    --      1.7840                 6.1109                 1.6647

                     10                     11                     12
                      A                      A                      A
 Frequencies --    338.6694               382.5219               403.0001
 Red. masses --      4.1256                 6.9520                 2.5454
 Frc consts  --      0.2788                 0.5993                 0.2436
 IR Inten    --      2.0914                 6.7896                28.9389

                     13                     14                     15
                      A                      A                      A
 Frequencies --    440.9461               470.9082               504.4350
 Red. masses --      3.7060                 1.4280                 8.3689
 Frc consts  --      0.4246                 0.1866                 1.2547
 IR Inten    --     10.1920                36.2258                11.8462

                     16                     17                     18
                      A                      A                      A
 Frequencies --    515.9950               534.4543               544.1695
 Red. masses --      3.2447                 6.1749                 8.7284
 Frc consts  --      0.5090                 1.0392                 1.5228
 IR Inten    --      0.7667                31.4216                18.9121

                     19                     20                     21
                      A                      A                      A
 Frequencies --    560.6594               566.2689               639.1228
 Red. masses --      3.8113                 7.3290                 6.4407
 Frc consts  --      0.7059                 1.3846                 1.5501
 IR Inten    --      0.0236                 5.5602                11.7675

                     22                     23                     24
                      A                      A                      A
 Frequencies --    692.0240               715.9717               740.2667
 Red. masses --      1.4781                 5.6367                 7.4397
 Frc consts  --      0.4171                 1.7024                 2.4021
 IR Inten    --     34.3336                 1.6553                 5.6975

                     25                     26                     27
                      A                      A                      A
 Frequencies --    745.5102               755.2703               766.6110
 Red. masses --      2.3593                 1.6563                 1.7467
 Frc consts  --      0.7726                 0.5566                 0.6048
 IR Inten    --     25.9625                11.9013                75.3125

                     28                     29                     30
                      A                      A                      A
 Frequencies --    825.2840               834.2460               866.8886
 Red. masses --      6.3250                 2.1344                 1.3822
 Frc consts  --      2.5381                 0.8752                 0.6120
 IR Inten    --     15.5244                 1.6678                 1.0113

                     31                     32                     33
                      A                      A                      A
 Frequencies --    885.8011               897.0378               952.0075
 Red. masses --      5.4392                 1.4632                 1.3567
 Frc consts  --      2.5145                 0.6937                 0.7245
 IR Inten    --      2.8122                 9.1381                 0.2500

                     34                     35                     36
                      A                      A                      A
 Frequencies --    957.6427               967.5365              1003.3774
 Red. masses --      1.3545                 4.9156                 1.2988
 Frc consts  --      0.7319                 2.7112                 0.7704
 IR Inten    --      1.7396                 1.8187                 0.0030

                     37                     38                     39
                      A                      A                      A
 Frequencies --   1052.0868              1055.4344              1094.5071
 Red. masses --      2.2418                 2.0910                 3.3164
 Frc consts  --      1.4620                 1.3724                 2.3408
 IR Inten    --      0.3399                 9.1314                 7.0056

                     40                     41                     42
                      A                      A                      A
 Frequencies --   1102.4186              1155.0104              1158.2803
 Red. masses --      1.8147                 1.2664                 1.3843
 Frc consts  --      1.2994                 0.9954                 1.0942
 IR Inten    --     21.9046                23.9475                52.7059

                     43                     44                     45
                      A                      A                      A
 Frequencies --   1174.6882              1182.2734              1235.4336
 Red. masses --      1.2780                 1.2506                 3.4967
 Frc consts  --      1.0390                 1.0299                 3.1444
 IR Inten    --     25.4862                 3.1782                25.4120

                     46                     47                     48
                      A                      A                      A
 Frequencies --   1253.0578              1299.2866              1331.6937
 Red. masses --      2.0057                 1.6307                 3.9515
 Frc consts  --      1.8555                 1.6219                 4.1288
 IR Inten    --     36.9685                 3.4343                 1.5494

                     49                     50                     51
                      A                      A                      A
 Frequencies --   1355.5522              1398.9185              1417.2406
 Red. masses --      2.7016                 5.3163                 2.3852
 Frc consts  --      2.9249                 6.1298                 2.8227
 IR Inten    --     78.5745                49.2943                21.8738

                     52                     53                     54
                      A                      A                      A
 Frequencies --   1441.2029              1468.0084              1515.7137
 Red. masses --      2.5411                 3.5026                 3.3912
 Frc consts  --      3.1098                 4.4473                 4.5903
 IR Inten    --    113.6394                 7.2147                87.7460

                     55                     56                     57
                      A                      A                      A
 Frequencies --   1518.0703              1537.7393              1610.0324
 Red. masses --      3.1089                 4.5302                 5.0212
 Frc consts  --      4.2213                 6.3115                 7.6688
 IR Inten    --      4.5196               188.8438               100.7194

                     58                     59                     60
                      A                      A                      A
 Frequencies --   1633.0438              1666.5609              1672.5619
 Red. masses --      8.1102                 6.8976                 7.1729
 Frc consts  --     12.7432                11.2874                11.8225
 IR Inten    --    159.0752                84.6958                35.5764

                     61                     62                     63
                      A                      A                      A
 Frequencies --   3195.7628              3206.1890              3210.6484
 Red. masses --      1.0881                 1.0868                 1.0866
 Frc consts  --      6.5476                 6.5823                 6.5993
 IR Inten    --     29.6053                 5.2573                 4.1793

                     64                     65                     66
                      A                      A                      A
 Frequencies --   3218.3008              3221.5981              3228.9406
 Red. masses --      1.0916                 1.0904                 1.0956
 Frc consts  --      6.6616                 6.6677                 6.7302
 IR Inten    --     14.5629                 1.5440                 7.9432

                     67                     68                     69
                      A                      A                      A
 Frequencies --   3232.7239              3239.4437              3837.9318
 Red. masses --      1.0989                 1.0993                 1.0793
 Frc consts  --      6.7661                 6.7970                 9.3668
 IR Inten    --     27.1954                12.5878               199.2067

 - Thermochemistry -
 -------------------
 Temperature   298.150 Kelvin.  Pressure   1.00000 Atm.
 Atom     1 has atomic number  6 and mass  12.00000

 Molecular mass:   227.04049 amu.
 Principal axes and moments of inertia in atomic units:
                           1         2         3
     Eigenvalues --  1254.394846545.682607800.07744
           X           -0.70485   0.70936   0.00000
           Y            0.70936   0.70485  -0.00001
           Z            0.00001   0.00000   1.00000
 This molecule is an asymmetric top.
 Rotational symmetry number  1.
 Warning -- assumption of classical behavior for rotation
           may cause significant error
 Rotational temperatures (Kelvin)      0.06905     0.01323     0.01110
 Rotational constants (GHZ):           1.43873     0.27571     0.23137
    1 imaginary frequencies ignored.
 Zero-point vibrational energy     489884.5 (Joules/Mol)
                                  117.08521 (Kcal/Mol)
 Warning -- explicit consideration of  19 degrees of freedom as
           vibrations may cause significant error
 Vibrational temperatures:     74.84   146.30   159.35   257.16   322.06
          (Kelvin)            371.24   385.91   405.80   487.27   550.36
                              579.83   634.42   677.53   725.77   742.40
                              768.96   782.94   806.66   814.73   919.56
                              995.67  1030.12  1065.08  1072.62  1086.67
                             1102.98  1187.40  1200.29  1247.26  1274.47
                             1290.64  1369.73  1377.83  1392.07  1443.64
                             1513.72  1518.53  1574.75  1586.13  1661.80
                             1666.51  1690.11  1701.03  1777.51  1802.87
                             1869.38  1916.01  1950.34  2012.73  2039.09
                             2073.57  2112.14  2180.77  2184.16  2212.46
                             2316.48  2349.59  2397.81  2406.44  4597.99
                             4612.99  4619.41  4630.42  4635.16  4645.73
                             4651.17  4660.84  5521.93

 Zero-point correction=                           0.186587 (Hartree/Particle)
 Thermal correction to Energy=                    0.198419
 Thermal correction to Enthalpy=                  0.199363
 Thermal correction to Gibbs Free Energy=         0.148367
 Sum of electronic and zero-point Energies=          -1028.505496
 Sum of electronic and thermal Energies=             -1028.493664
 Sum of electronic and thermal Enthalpies=           -1028.492720
 Sum of electronic and thermal Free Energies=        -1028.543716

                     E (Thermal)             CV                S
                      KCal/Mol        Cal/Mol-Kelvin    Cal/Mol-Kelvin
 Total                  124.510             48.548            107.331
 Electronic               0.000              0.000              0.000
 Translational            0.889              2.981             42.162
 Rotational               0.889              2.981             32.527
 Vibrational            122.732             42.586             32.642
 Vibration     1          0.596              1.977              4.739
 Vibration     2          0.604              1.948              3.422
 Vibration     3          0.607              1.941              3.256
 Vibration     4          0.629              1.868              2.342
 Vibration     5          0.649              1.805              1.928
 Vibration     6          0.667              1.749              1.675
 Vibration     7          0.673              1.732              1.608
 Vibration     8          0.681              1.707              1.521
 Vibration     9          0.719              1.598              1.218
 Vibration    10          0.752              1.507              1.029
 Vibration    11          0.768              1.464              0.952
 Vibration    12          0.801              1.381              0.824
 Vibration    13          0.828              1.315              0.735
 Vibration    14          0.860              1.240              0.647
 Vibration    15          0.871              1.215              0.619
 Vibration    16          0.889              1.174              0.577
 Vibration    17          0.899              1.152              0.556
 Vibration    18          0.916              1.116              0.523
 Vibration    19          0.922              1.104              0.511

 Optimization completed.
    -- Stationary point found.
 Normal termination of Gaussian 16 at Tue Jul 14 17:00:00 2020.
