 Gaussian 16, Revision C.01,
 Gaussian 16:  ES64L-G16RevC.01  3-Jul-2019

 ----------------------------------------------------------------------
 #p opt=addgic freq td wb97xd/cc-pvdz nosymm int=ultrafine scrf=(solven
 t=CarbonTetraChloride)
 ----------------------------------------------------------------------

 ------------------------------------------------
 NM 2D-scan of HBT TD-WB97XD pVDZ in CTC Relaxed.
 ------------------------------------------------
 Symbolic Z-matrix:
 Charge =  0 Multiplicity = 1

 SCF Done:  E(RwB97XD) =  -1028.80533265     A.U. after   15 cycles
 Total Energy, E(TD-HF/TD-DFT) =  -1028.67549074
 SCF Done:  E(RwB97XD) =  -1028.81649053     A.U. after   13 cycles
 Total Energy, E(TD-HF/TD-DFT) =  -1028.68811039
 SCF Done:  E(RwB97XD) =  -1028.81546164     A.U. after   13 cycles
 Total Energy, E(TD-HF/TD-DFT) =  -1028.68913135
 SCF Done:  E(RwB97XD) =  -1028.81624739     A.U. after   11 cycles
 Total Energy, E(TD-HF/TD-DFT) =  -1028.68963528
 SCF Done:  E(RwB97XD) =  -1028.81636709     A.U. after   10 cycles
 Total Energy, E(TD-HF/TD-DFT) =  -1028.68965136
 SCF Done:  E(RwB97XD) =  -1028.81637498     A.U. after    9 cycles
 Total Energy, E(TD-HF/TD-DFT) =  -1028.68965337
 Optimization completed.
    -- Stationary point found.
 Normal termination of Gaussian 16 at Mon Jul 13 14:10:54 2020.

 ----------------------------------------------------------------------
 #P Geom=AllCheck Guess=TCheck SCRF=Check GenChk RwB97XD TD(FC,Read)/CC
 -pVDZ Freq
 ----------------------------------------------------------------------

 Structure from the checkpoint file:  "config_4_4.chk"
 ------------------------------------------------
 NM 2D-scan of HBT TD-WB97XD pVDZ in CTC Relaxed.
 ------------------------------------------------
 Charge =  0 Multiplicity = 1

                          Input orientation:
 ---------------------------------------------------------------------
 Center     Atomic      Atomic             Coordinates (Angstroms)
 Number     Number       Type             X           Y           Z
 ---------------------------------------------------------------------
      1          6           0        1.720554   -3.287210   -0.000029
      2          6           0        0.985155   -2.101947   -0.000003
      3          6           0        1.660075   -0.839727   -0.000001
      4          6           0        3.076053   -0.786092   -0.000021
      5          6           0        3.785414   -1.966458   -0.000047
      6          6           0        3.117011   -3.209372   -0.000052
      7          1           0        1.224330   -4.258589   -0.000032
      8          1           0        3.565968    0.188158   -0.000018
      9          1           0        4.876646   -1.944475   -0.000065
     10          1           0        3.700001   -4.131626   -0.000073
     11          7           0        0.879489    0.239903    0.000020
     12         16           0       -0.758045   -1.831034    0.000025
     13          6           0       -1.389665    1.011821    0.000025
     14          6           0       -2.804250    0.876284    0.000001
     15          6           0       -0.882919    2.410969    0.000036
     16          6           0       -3.640243    1.987700    0.000004
     17          1           0       -3.239750   -0.124465   -0.000020
     18          6           0       -1.761552    3.504375    0.000043
     19          6           0       -3.132611    3.308337    0.000029
     20          1           0       -4.720699    1.834170   -0.000012
     21          1           0       -1.312809    4.498099    0.000058
     22          1           0       -3.813299    4.159816    0.000034
     23          6           0       -0.447874   -0.048483    0.000033
     24          8           0        0.398229    2.693637    0.000052
     25          1           0        0.895096    1.799181    0.000108
 ---------------------------------------------------------------------

 SCF Done:  E(RwB97XD) =  -1028.81637498     A.U. after    1 cycles

 Excitation energies and oscillator strengths:

 Excited state symmetry could not be determined.
 Excited State   1:      Singlet-?Sym    3.4483 eV  359.55 nm  f=0.6571  <S**2>=0.000
      59 -> 60         0.69014
 This state for optimization and/or second-order correction.
 Total Energy, E(TD-HF/TD-DFT) =  -1028.68965338
 Copying the excited state density for this state as the 1-particle RhoCI density.

 Excited state symmetry could not be determined.
 Excited State   2:      Singlet-?Sym    4.3854 eV  282.72 nm  f=0.2716  <S**2>=0.000
      57 -> 60         0.19712
      58 -> 60         0.63454
      59 -> 62         0.12460
      59 -> 64         0.11332

 Excited state symmetry could not be determined.
 Excited State   3:      Singlet-?Sym    4.6034 eV  269.33 nm  f=0.0429  <S**2>=0.000
      56 -> 61        -0.10034
      57 -> 60         0.57998
      57 -> 62        -0.14035
      58 -> 60        -0.18789
      58 -> 61        -0.14120
      59 -> 61         0.24422

 Alpha  occ. eigenvalues --  -89.09330 -19.27909 -14.47030 -10.40120 -10.38077
 Alpha  occ. eigenvalues --  -10.35031 -10.34944 -10.32848 -10.32379 -10.32272
 Alpha  occ. eigenvalues --  -10.31825 -10.31520 -10.31434 -10.31353 -10.30354
 Alpha  occ. eigenvalues --  -10.30095  -8.11184  -6.06048  -6.05704  -6.05233
 Alpha  occ. eigenvalues --   -1.16883  -1.08498  -0.96667  -0.95536  -0.91560
 Alpha  occ. eigenvalues --   -0.88816  -0.84861  -0.84338  -0.82369  -0.75966
 Alpha  occ. eigenvalues --   -0.70988  -0.70183  -0.69050  -0.68323  -0.63315
 Alpha  occ. eigenvalues --   -0.60396  -0.58810  -0.58561  -0.55759  -0.54375
 Alpha  occ. eigenvalues --   -0.53791  -0.53030  -0.52762  -0.51070  -0.50293
 Alpha  occ. eigenvalues --   -0.49417  -0.47816  -0.45901  -0.45529  -0.44721
 Alpha  occ. eigenvalues --   -0.43744  -0.42787  -0.42411  -0.40034  -0.37028
 Alpha  occ. eigenvalues --   -0.36456  -0.32283  -0.31327  -0.27902
 Alpha virt. eigenvalues --   -0.01810   0.05036   0.07030   0.07125   0.07224
 Alpha virt. eigenvalues --    0.11053   0.12976   0.15103   0.15905   0.17916
 Alpha virt. eigenvalues --    0.18637   0.20874   0.21705   0.22344   0.22650

 Mulliken charges:
               1
     1  C    0.008330
     2  C   -0.226320
     3  C    0.246485
     4  C   -0.015777
     5  C    0.009896
     6  C   -0.007921
     7  H    0.019655
     8  H    0.017891
     9  H    0.019196
    10  H    0.021046
    11  N   -0.352715
    12  S    0.156485
    13  C   -0.102108
    14  C   -0.015764
    15  C    0.093144
    16  C   -0.017272
    17  H    0.010132
    18  C    0.009645
    19  C    0.023112
    20  H    0.010998
    21  H    0.017609
    22  H    0.021849
    23  C    0.082343
    24  O   -0.209662
    25  H    0.179722
 Sum of Mulliken charges =  -0.00000

 Dipole moment (field-independent basis, Debye):
    X=             -0.1664    Y=             -2.0802    Z=              0.0000  Tot=              2.0869
 Quadrupole moment (field-independent basis, Debye-Ang):
   XX=            -83.2778   YY=            -89.2748   ZZ=           -104.4648
   XY=             -6.9157   XZ=             -0.0000   YZ=              0.0003

  Exact polarizability:     399.718    -186.346     377.575      -0.002       0.003      63.507
 Approx polarizability:     279.566     -36.318     262.611      -0.001       0.002      82.479

                      1                      2                      3
                      A                      A                      A
 Frequencies --     36.7962                49.0669               106.1334
 Red. masses --      5.8100                 6.8243                 4.5705
 Frc consts  --      0.0046                 0.0097                 0.0303
 IR Inten    --      1.4518                 0.0500                 0.2381

                      4                      5                      6
                      A                      A                      A
 Frequencies --    113.2793               178.9924               223.3016
 Red. masses --      5.6165                 6.3227                 5.3584
 Frc consts  --      0.0425                 0.1193                 0.1574
 IR Inten    --      1.7653                 0.8699                 0.0073

                      7                      8                      9
                      A                      A                      A
 Frequencies --    265.6446               268.0781               307.8229
 Red. masses --      7.6576                 4.8106                 6.6879
 Frc consts  --      0.3184                 0.2037                 0.3734
 IR Inten    --     23.8048                 0.1806                 6.0411

                     10                     11                     12
                      A                      A                      A
 Frequencies --    389.7752               394.2789               437.6844
 Red. masses --      4.7151                 9.0961                 3.2446
 Frc consts  --      0.4221                 0.8331                 0.3662
 IR Inten    --      0.2458                11.9228                 4.6509

                     13                     14                     15
                      A                      A                      A
 Frequencies --    490.2770               498.0372               500.4863
 Red. masses --      4.5797                 6.9918                 3.1481
 Frc consts  --      0.6486                 1.0218                 0.4646
 IR Inten    --      0.2087                10.5860                 0.0002

                     16                     17                     18
                      A                      A                      A
 Frequencies --    510.5709               526.2572               551.1364
 Red. masses --      5.2950                 8.0829                 3.9669
 Frc consts  --      0.8133                 1.3189                 0.7099
 IR Inten    --     22.6545                19.0180                 0.1278

                     19                     20                     21
                      A                      A                      A
 Frequencies --    579.9301               638.4875               682.6760
 Red. masses --      7.6379                 6.8036                 8.2684
 Frc consts  --      1.5135                 1.6342                 2.2704
 IR Inten    --     30.2560                58.5260                12.4429

                     22                     23                     24
                      A                      A                      A
 Frequencies --    711.3019               712.3955               735.2523
 Red. masses --      1.7943                 7.6729                 1.9136
 Frc consts  --      0.5349                 2.2943                 0.6095
 IR Inten    --     41.1678                14.4583                27.3687

                     25                     26                     27
                      A                      A                      A
 Frequencies --    753.2586               770.1649               805.5215
 Red. masses --      1.8647                 2.0146                 6.4682
 Frc consts  --      0.6234                 0.7041                 2.4728
 IR Inten    --     30.5090                53.6196                13.2269

                     28                     29                     30
                      A                      A                      A
 Frequencies --    823.6894               858.3445               894.9040
 Red. masses --      1.6142                 1.4250                 6.4218
 Frc consts  --      0.6453                 0.6186                 3.0301
 IR Inten    --      0.4625                 0.8030                46.0976

                     31                     32                     33
                      A                      A                      A
 Frequencies --    919.0448               952.5529               958.2262
 Red. masses --      1.3497                 1.3435                 7.0909
 Frc consts  --      0.6717                 0.7182                 3.8361
 IR Inten    --      6.8072                 1.6552                 8.1081

                     34                     35                     36
                      A                      A                      A
 Frequencies --    963.8890               999.1759              1018.9423
 Red. masses --      1.3609                 1.2972                 1.0673
 Frc consts  --      0.7450                 0.7630                 0.6529
 IR Inten    --      0.3264                 0.3935                65.6322

                     37                     38                     39
                      A                      A                      A
 Frequencies --   1037.5896              1040.7935              1070.7827
 Red. masses --      2.2271                 2.1581                 4.6440
 Frc consts  --      1.4127                 1.3773                 3.1372
 IR Inten    --      2.3731                 0.8362                43.8587

                     40                     41                     42
                      A                      A                      A
 Frequencies --   1132.2887              1146.6288              1174.1892
 Red. masses --      1.4801                 1.3096                 1.1325
 Frc consts  --      1.1181                 1.0144                 0.9200
 IR Inten    --     62.3714                14.1209                 8.3173

                     43                     44                     45
                      A                      A                      A
 Frequencies --   1176.8990              1234.6245              1241.6029
 Red. masses --      1.1809                 4.8938                 1.7959
 Frc consts  --      0.9637                 4.3950                 1.6311
 IR Inten    --     40.5486               111.1276               115.2345

                     46                     47                     48
                      A                      A                      A
 Frequencies --   1280.0823              1299.7970              1364.8312
 Red. masses --      1.6667                 3.2561                 2.9041
 Frc consts  --      1.6091                 3.2411                 3.1873
 IR Inten    --     14.2700               296.4011                41.8247

                     49                     50                     51
                      A                      A                      A
 Frequencies --   1376.0843              1402.9371              1441.4972
 Red. masses --      4.9750                 2.0201                 2.5538
 Frc consts  --      5.5505                 2.3426                 3.1265
 IR Inten    --     46.0251                 2.7858               151.1712

                     52                     53                     54
                      A                      A                      A
 Frequencies --   1476.4091              1506.4305              1521.1364
 Red. masses --      3.2772                 4.0325                 3.5947
 Frc consts  --      4.2088                 5.3917                 4.9005
 IR Inten    --    104.2718               170.0263               131.3164

                     55                     56                     57
                      A                      A                      A
 Frequencies --   1526.7748              1551.6951              1593.2016
 Red. masses --      4.9853                 5.1839                 3.3259
 Frc consts  --      6.8468                 7.3539                 4.9739
 IR Inten    --    224.0247               490.3194               205.2066

                     58                     59                     60
                      A                      A                      A
 Frequencies --   1619.5559              1628.4110              1654.6111
 Red. masses --      3.2334                 3.3813                 4.9841
 Frc consts  --      4.9969                 5.2828                 8.0395
 IR Inten    --     90.7856               614.4464               104.4386

                     61                     62                     63
                      A                      A                      A
 Frequencies --   2639.2432              3204.5248              3207.5071
 Red. masses --      1.0830                 1.0870                 1.0860
 Frc consts  --      4.4446                 6.5764                 6.5829
 IR Inten    --    192.0412                 5.7280                 8.3809

                     64                     65                     66
                      A                      A                      A
 Frequencies --   3217.3834              3217.6535              3226.0452
 Red. masses --      1.0898                 1.0893                 1.0933
 Frc consts  --      6.6467                 6.6447                 6.7039
 IR Inten    --      2.8551                 2.0202                19.8466

                     67                     68                     69
                      A                      A                      A
 Frequencies --   3228.5738              3235.4419              3238.6745
 Red. masses --      1.0953                 1.0993                 1.0989
 Frc consts  --      6.7270                 6.7801                 6.7911
 IR Inten    --     10.8115                40.2910                22.1525

 - Thermochemistry -
 -------------------
 Temperature   298.150 Kelvin.  Pressure   1.00000 Atm.
 Atom     1 has atomic number  6 and mass  12.00000

 Molecular mass:   227.04049 amu.
 Principal axes and moments of inertia in atomic units:
                           1         2         3
     Eigenvalues --  1350.336296340.144167690.48045
           X           -0.69841   0.71569   0.00000
           Y            0.71569   0.69841  -0.00001
           Z            0.00001   0.00000   1.00000
 This molecule is an asymmetric top.
 Rotational symmetry number  1.
 Warning -- assumption of classical behavior for rotation
           may cause significant error
 Rotational temperatures (Kelvin)      0.06414     0.01366     0.01126
 Rotational constants (GHZ):           1.33651     0.28465     0.23467
 Zero-point vibrational energy     487713.2 (Joules/Mol)
                                  116.56625 (Kcal/Mol)
 Warning -- explicit consideration of  19 degrees of freedom as
           vibrations may cause significant error
 Vibrational temperatures:     52.94    70.60   152.70   162.98   257.53
          (Kelvin)            321.28   382.20   385.70   442.89   560.80
                              567.28   629.73   705.40   716.56   720.09
                              734.60   757.17   792.96   834.39   918.64
                              982.22  1023.40  1024.98  1057.86  1083.77
                             1108.10  1158.97  1185.11  1234.97  1287.57
                             1322.30  1370.51  1378.67  1386.82  1437.59
                             1466.03  1492.86  1497.47  1540.62  1629.11
                             1649.74  1689.40  1693.30  1776.35  1786.39
                             1841.75  1870.12  1963.69  1979.88  2018.51
                             2073.99  2124.22  2167.42  2188.58  2196.69
                             2232.54  2292.26  2330.18  2342.92  2380.62
                             3797.28  4610.60  4614.89  4629.10  4629.49
                             4641.56  4645.20  4655.08  4659.73

 Zero-point correction=                           0.185760 (Hartree/Particle)
 Thermal correction to Energy=                    0.198115
 Thermal correction to Enthalpy=                  0.199059
 Thermal correction to Gibbs Free Energy=         0.146033
 Sum of electronic and zero-point Energies=          -1028.503893
 Sum of electronic and thermal Energies=             -1028.491539
 Sum of electronic and thermal Enthalpies=           -1028.490594
 Sum of electronic and thermal Free Energies=        -1028.543620

                     E (Thermal)             CV                S
                      KCal/Mol        Cal/Mol-Kelvin    Cal/Mol-Kelvin
 Total                  124.319             49.368            111.602
 Electronic               0.000              0.000              0.000
 Translational            0.889              2.981             42.162
 Rotational               0.889              2.981             32.554
 Vibrational            122.541             43.406             36.886
 Vibration     1          0.594              1.982              5.425
 Vibration     2          0.595              1.978              4.855
 Vibration     3          0.605              1.944              3.338
 Vibration     4          0.607              1.938              3.212
 Vibration     5          0.629              1.868              2.339
 Vibration     6          0.649              1.806              1.932
 Vibration     7          0.671              1.736              1.624
 Vibration     8          0.673              1.732              1.609
 Vibration     9          0.698              1.659              1.374
 Vibration    10          0.758              1.492              1.001
 Vibration    11          0.761              1.482              0.984
 Vibration    12          0.798              1.388              0.834
 Vibration    13          0.846              1.272              0.683
 Vibration    14          0.854              1.254              0.663
 Vibration    15          0.856              1.249              0.657
 Vibration    16          0.866              1.227              0.632
 Vibration    17          0.881              1.192              0.596
 Vibration    18          0.906              1.137              0.542
 Vibration    19          0.937              1.075              0.485

 Optimization completed.
    -- Stationary point found.
 Normal termination of Gaussian 16 at Mon Jul 13 14:28:53 2020.
