 Gaussian 16, Revision C.01,
 Gaussian 16:  ES64L-G16RevC.01  3-Jul-2019

 ----------------------------------------------------------------------
 #p opt=addgic freq td wb97xd/cc-pvdz nosymm int=ultrafine scrf=(solven
 t=CarbonTetraChloride)
 ----------------------------------------------------------------------

 ------------------------------------------------
 NM 2D-scan of HBT TD-WB97XD pVDZ in CTC Relaxed.
 ------------------------------------------------
 Symbolic Z-matrix:
 Charge =  0 Multiplicity = 1

 SCF Done:  E(RwB97XD) =  -1028.71124965     A.U. after   15 cycles
 Total Energy, E(TD-HF/TD-DFT) =  -1028.57918588
 SCF Done:  E(RwB97XD) =  -1028.80704885     A.U. after   13 cycles
 Total Energy, E(TD-HF/TD-DFT) =  -1028.67728454
 SCF Done:  E(RwB97XD) =  -1028.79244285     A.U. after   15 cycles
 Total Energy, E(TD-HF/TD-DFT) =  -1028.66824978
 SCF Done:  E(RwB97XD) =  -1028.81734767     A.U. after   12 cycles
 Total Energy, E(TD-HF/TD-DFT) =  -1028.69038548
 SCF Done:  E(RwB97XD) =  -1028.81835407     A.U. after   11 cycles
 Total Energy, E(TD-HF/TD-DFT) =  -1028.69064363
 SCF Done:  E(RwB97XD) =  -1028.81846709     A.U. after    9 cycles
 Total Energy, E(TD-HF/TD-DFT) =  -1028.69070836
 SCF Done:  E(RwB97XD) =  -1028.81850935     A.U. after    9 cycles
 Total Energy, E(TD-HF/TD-DFT) =  -1028.69070963
 Optimization completed.
    -- Stationary point found.
 Normal termination of Gaussian 16 at Mon Jul 13 18:13:32 2020.

 ----------------------------------------------------------------------
 #P Geom=AllCheck Guess=TCheck SCRF=Check GenChk RwB97XD TD(FC,Read)/CC
 -pVDZ Freq
 ----------------------------------------------------------------------

 Structure from the checkpoint file:  "config_2_9.chk"
 ------------------------------------------------
 NM 2D-scan of HBT TD-WB97XD pVDZ in CTC Relaxed.
 ------------------------------------------------
 Charge =  0 Multiplicity = 1

                          Input orientation:
 ---------------------------------------------------------------------
 Center     Atomic      Atomic             Coordinates (Angstroms)
 Number     Number       Type             X           Y           Z
 ---------------------------------------------------------------------
      1          6           0        1.651975   -3.302865   -0.000017
      2          6           0        0.968487   -2.087079   -0.000009
      3          6           0        1.689911   -0.842295   -0.000015
      4          6           0        3.110573   -0.856925   -0.000029
      5          6           0        3.767016   -2.066179   -0.000038
      6          6           0        3.048506   -3.283716   -0.000032
      7          1           0        1.113018   -4.251207   -0.000013
      8          1           0        3.644308    0.093962   -0.000033
      9          1           0        4.858214   -2.090541   -0.000049
     10          1           0        3.594288   -4.228498   -0.000040
     11          7           0        0.959270    0.272241   -0.000006
     12         16           0       -0.755087   -1.761781    0.000007
     13          6           0       -1.337880    1.044516    0.000014
     14          6           0       -2.750491    0.828358    0.000001
     15          6           0       -0.909153    2.461721    0.000033
     16          6           0       -3.642913    1.885197    0.000014
     17          1           0       -3.126062   -0.196487   -0.000019
     18          6           0       -1.842426    3.502091    0.000049
     19          6           0       -3.200939    3.230450    0.000040
     20          1           0       -4.713977    1.676755    0.000004
     21          1           0       -1.451983    4.520106    0.000068
     22          1           0       -3.924621    4.045971    0.000052
     23          6           0       -0.376598    0.012903    0.000008
     24          8           0        0.361478    2.828888    0.000051
     25          1           0        0.920870    2.008284    0.000068
 ---------------------------------------------------------------------

 SCF Done:  E(RwB97XD) =  -1028.81850935     A.U. after    1 cycles

 Excitation energies and oscillator strengths:

 Excited state symmetry could not be determined.
 Excited State   1:      Singlet-?Sym    3.4776 eV  356.52 nm  f=0.7285  <S**2>=0.000
      59 -> 60         0.68949
 This state for optimization and/or second-order correction.
 Total Energy, E(TD-HF/TD-DFT) =  -1028.69070964
 Copying the excited state density for this state as the 1-particle RhoCI density.

 Excited state symmetry could not be determined.
 Excited State   2:      Singlet-?Sym    4.3868 eV  282.63 nm  f=0.1744  <S**2>=0.000
      57 -> 60         0.32883
      58 -> 60         0.57136
      59 -> 62        -0.16974

 Excited state symmetry could not be determined.
 Excited State   3:      Singlet-?Sym    4.5521 eV  272.36 nm  f=0.0696  <S**2>=0.000
      57 -> 60         0.53245
      57 -> 63        -0.12114
      58 -> 60        -0.31608
      58 -> 61        -0.10990
      59 -> 61         0.23286

 Alpha  occ. eigenvalues --  -89.08991 -19.28922 -14.46926 -10.39794 -10.38330
 Alpha  occ. eigenvalues --  -10.34811 -10.34774 -10.32962 -10.32380 -10.32161
 Alpha  occ. eigenvalues --  -10.31992 -10.31367 -10.31253 -10.31172 -10.30556
 Alpha  occ. eigenvalues --  -10.30368  -8.10874  -6.05728  -6.05394  -6.04930
 Alpha  occ. eigenvalues --   -1.17440  -1.08093  -0.96678  -0.95588  -0.91522
 Alpha  occ. eigenvalues --   -0.88776  -0.85033  -0.84391  -0.82229  -0.75996
 Alpha  occ. eigenvalues --   -0.71124  -0.70120  -0.69121  -0.68261  -0.63398
 Alpha  occ. eigenvalues --   -0.60178  -0.58930  -0.58490  -0.55962  -0.54426
 Alpha  occ. eigenvalues --   -0.53548  -0.53153  -0.52753  -0.50783  -0.50491
 Alpha  occ. eigenvalues --   -0.49169  -0.47964  -0.45842  -0.45515  -0.44729
 Alpha  occ. eigenvalues --   -0.43816  -0.42938  -0.42145  -0.39897  -0.37543
 Alpha  occ. eigenvalues --   -0.36422  -0.32047  -0.31567  -0.27952
 Alpha virt. eigenvalues --   -0.01871   0.05234   0.06933   0.07091   0.07278
 Alpha virt. eigenvalues --    0.11248   0.13451   0.15140   0.16082   0.17948
 Alpha virt. eigenvalues --    0.18525   0.20763   0.21646   0.22303   0.22786

 Mulliken charges:
               1
     1  C    0.010339
     2  C   -0.217032
     3  C    0.220183
     4  C   -0.016081
     5  C    0.008461
     6  C   -0.008869
     7  H    0.018126
     8  H    0.014942
     9  H    0.017820
    10  H    0.020055
    11  N   -0.349355
    12  S    0.148563
    13  C   -0.082261
    14  C   -0.018464
    15  C    0.079292
    16  C   -0.010532
    17  H    0.015202
    18  C    0.015728
    19  C    0.020977
    20  H    0.012082
    21  H    0.019855
    22  H    0.022947
    23  C    0.078420
    24  O   -0.186918
    25  H    0.166520
 Sum of Mulliken charges =  -0.00000

 Dipole moment (field-independent basis, Debye):
    X=             -0.4974    Y=             -1.6925    Z=              0.0000  Tot=              1.7640
 Quadrupole moment (field-independent basis, Debye-Ang):
   XX=            -83.1673   YY=            -89.0259   ZZ=           -104.4769
   XY=             -6.8403   XZ=             -0.0001   YZ=              0.0002

  Exact polarizability:     406.312    -197.427     394.621      -0.003       0.003      63.494
 Approx polarizability:     280.666     -37.181     263.278      -0.001       0.002      82.446

                      1                      2                      3
                      A                      A                      A
 Frequencies --     36.7430                71.2404               109.8442
 Red. masses --      6.0114                 5.6017                 4.8172
 Frc consts  --      0.0048                 0.0168                 0.0342
 IR Inten    --      1.2475                 0.0289                 0.3313

                      4                      5                      6
                      A                      A                      A
 Frequencies --    110.5813               182.8730               224.0669
 Red. masses --      5.6549                 6.7574                 5.4446
 Frc consts  --      0.0407                 0.1331                 0.1611
 IR Inten    --      1.9692                 1.0620                 0.0027

                      7                      8                      9
                      A                      A                      A
 Frequencies --    263.3602               268.9700               291.5777
 Red. masses --      8.0518                 4.8227                 6.6654
 Frc consts  --      0.3290                 0.2056                 0.3339
 IR Inten    --     20.5138                 0.1154                 8.5145

                     10                     11                     12
                      A                      A                      A
 Frequencies --    394.6869               395.7083               439.0449
 Red. masses --      4.6127                 8.8739                 3.3040
 Frc consts  --      0.4234                 0.8187                 0.3752
 IR Inten    --      0.1072                13.2239                 4.2037

                     13                     14                     15
                      A                      A                      A
 Frequencies --    493.8405               494.9178               505.7217
 Red. masses --      4.4508                 6.6176                 5.9570
 Frc consts  --      0.6395                 0.9550                 0.8976
 IR Inten    --      0.1859                15.9743                18.1338

                     16                     17                     18
                      A                      A                      A
 Frequencies --    507.1896               525.1306               549.3093
 Red. masses --      3.1438                 7.9284                 3.9894
 Frc consts  --      0.4765                 1.2882                 0.7092
 IR Inten    --      0.1887                18.5503                 0.1992

                     19                     20                     21
                      A                      A                      A
 Frequencies --    578.2314               642.4119               668.6193
 Red. masses --      7.7103                 6.6335                 9.4716
 Frc consts  --      1.5189                 1.6129                 2.4948
 IR Inten    --     59.1250                30.8690                38.6755

                     22                     23                     24
                      A                      A                      A
 Frequencies --    707.7644               719.2876               735.2841
 Red. masses --      6.8131                 1.7946                 1.8941
 Frc consts  --      2.0108                 0.5470                 0.6034
 IR Inten    --     11.5191                50.1195                34.2087

                     25                     26                     27
                      A                      A                      A
 Frequencies --    746.9729               772.9310               805.8667
 Red. masses --      1.8374                 2.0525                 6.5400
 Frc consts  --      0.6040                 0.7225                 2.5024
 IR Inten    --     25.8139                52.3008                20.2929

                     28                     29                     30
                      A                      A                      A
 Frequencies --    822.2351               859.3423               864.9783
 Red. masses --      1.6468                 1.3154                 1.1539
 Frc consts  --      0.6560                 0.5723                 0.5086
 IR Inten    --      6.8161                 8.6659                56.9655

                     31                     32                     33
                      A                      A                      A
 Frequencies --    886.0069               924.8773               950.1997
 Red. masses --      6.3771                 1.3414                 7.1982
 Frc consts  --      2.9495                 0.6760                 3.8292
 IR Inten    --     56.8689                 1.2170                 6.1047

                     34                     35                     36
                      A                      A                      A
 Frequencies --    954.9936               969.5024              1000.4321
 Red. masses --      1.3413                 1.3450                 1.3006
 Frc consts  --      0.7207                 0.7449                 0.7669
 IR Inten    --      2.0079                 0.0003                 0.0018

                     37                     38                     39
                      A                      A                      A
 Frequencies --   1038.9751              1040.4178              1073.5009
 Red. masses --      2.1229                 2.2196                 5.0340
 Frc consts  --      1.3502                 1.4156                 3.4180
 IR Inten    --      1.6559                 2.8118                35.7120

                     40                     41                     42
                      A                      A                      A
 Frequencies --   1136.2528              1148.4959              1176.3031
 Red. masses --      1.4785                 1.3079                 1.1575
 Frc consts  --      1.1247                 1.0164                 0.9436
 IR Inten    --     48.8214                15.1603                14.8027

                     43                     44                     45
                      A                      A                      A
 Frequencies --   1180.0063              1218.5134              1235.3036
 Red. masses --      1.1804                 6.2268                 1.6049
 Frc consts  --      0.9684                 5.4472                 1.4429
 IR Inten    --     22.8458                60.5086               178.3065

                     46                     47                     48
                      A                      A                      A
 Frequencies --   1277.8216              1299.8325              1360.6725
 Red. masses --      1.6445                 2.8211                 2.9115
 Frc consts  --      1.5820                 2.8083                 3.1760
 IR Inten    --      4.7790               262.7333                81.9861

                     49                     50                     51
                      A                      A                      A
 Frequencies --   1371.6866              1401.9514              1435.9086
 Red. masses --      5.6801                 1.9543                 2.5215
 Frc consts  --      6.2967                 2.2631                 3.0631
 IR Inten    --     22.6317                20.2101               222.5341

                     52                     53                     54
                      A                      A                      A
 Frequencies --   1474.4199              1488.2900              1516.2271
 Red. masses --      3.2387                 2.0190                 5.3600
 Frc consts  --      4.1482                 2.6349                 7.2601
 IR Inten    --     62.3200               192.0639                44.8027

                     55                     56                     57
                      A                      A                      A
 Frequencies --   1539.0347              1559.6112              1582.5017
 Red. masses --      4.5674                 6.7456                 2.9239
 Frc consts  --      6.3741                 9.6673                 4.3143
 IR Inten    --      7.6893               477.7985               281.3100

                     58                     59                     60
                      A                      A                      A
 Frequencies --   1599.2617              1631.4275              1650.8133
 Red. masses --      4.4087                 5.3718                 5.8090
 Frc consts  --      6.6435                 8.4237                 9.3271
 IR Inten    --     69.1897               417.8139               195.8600

                     61                     62                     63
                      A                      A                      A
 Frequencies --   3206.3575              3207.8648              3218.2833
 Red. masses --      1.0867                 1.0862                 1.0883
 Frc consts  --      6.5822                 6.5855                 6.6413
 IR Inten    --      3.3682                 9.2727                 3.8195

                     64                     65                     66
                      A                      A                      A
 Frequencies --   3219.2844              3222.6429              3227.6564
 Red. masses --      1.0882                 1.0742                 1.0934
 Frc consts  --      6.6447                 6.5729                 6.7112
 IR Inten    --      2.9387                13.7356                18.7860

                     67                     68                     69
                      A                      A                      A
 Frequencies --   3230.8245              3237.0735              3239.9248
 Red. masses --      1.0951                 1.0987                 1.0986
 Frc consts  --      6.7351                 6.7832                 6.7945
 IR Inten    --     10.8808                40.2505                32.5068

 - Thermochemistry -
 -------------------
 Temperature   298.150 Kelvin.  Pressure   1.00000 Atm.
 Atom     1 has atomic number  6 and mass  12.00000

 Molecular mass:   227.04049 amu.
 Principal axes and moments of inertia in atomic units:
                           1         2         3
     Eigenvalues --  1348.512566370.550237719.06280
           X           -0.69575   0.71828   0.00000
           Y            0.71828   0.69575  -0.00001
           Z            0.00001   0.00000   1.00000
 This molecule is an asymmetric top.
 Rotational symmetry number  1.
 Warning -- assumption of classical behavior for rotation
           may cause significant error
 Rotational temperatures (Kelvin)      0.06423     0.01360     0.01122
 Rotational constants (GHZ):           1.33832     0.28329     0.23380
 Zero-point vibrational energy     490001.7 (Joules/Mol)
                                  117.11321 (Kcal/Mol)
 Warning -- explicit consideration of  19 degrees of freedom as
           vibrations may cause significant error
 Vibrational temperatures:     52.87   102.50   158.04   159.10   263.11
          (Kelvin)            322.38   378.92   386.99   419.52   567.87
                              569.34   631.69   710.53   712.08   727.62
                              729.73   755.55   790.33   831.95   924.29
                              961.99  1018.32  1034.89  1057.91  1074.73
                             1112.08  1159.46  1183.01  1236.40  1244.51
                             1274.77  1330.69  1367.13  1374.02  1394.90
                             1439.40  1494.85  1496.93  1544.53  1634.81
                             1652.43  1692.44  1697.77  1753.17  1777.33
                             1838.50  1870.17  1957.70  1973.55  2017.10
                             2065.95  2121.36  2141.32  2181.51  2214.33
                             2243.93  2276.87  2300.98  2347.26  2375.15
                             4613.23  4615.40  4630.39  4631.83  4636.66
                             4643.88  4648.44  4657.43  4661.53

 Zero-point correction=                           0.186632 (Hartree/Particle)
 Thermal correction to Energy=                    0.198981
 Thermal correction to Enthalpy=                  0.199925
 Thermal correction to Gibbs Free Energy=         0.147197
 Sum of electronic and zero-point Energies=          -1028.504078
 Sum of electronic and thermal Energies=             -1028.491729
 Sum of electronic and thermal Enthalpies=           -1028.490785
 Sum of electronic and thermal Free Energies=        -1028.543513

                     E (Thermal)             CV                S
                      KCal/Mol        Cal/Mol-Kelvin    Cal/Mol-Kelvin
 Total                  124.862             49.604            110.976
 Electronic               0.000              0.000              0.000
 Translational            0.889              2.981             42.162
 Rotational               0.889              2.981             32.561
 Vibrational            123.085             43.642             36.253
 Vibration     1          0.594              1.982              5.427
 Vibration     2          0.598              1.968              4.119
 Vibration     3          0.606              1.941              3.272
 Vibration     4          0.606              1.941              3.259
 Vibration     5          0.630              1.863              2.299
 Vibration     6          0.649              1.804              1.926
 Vibration     7          0.670              1.740              1.639
 Vibration     8          0.673              1.730              1.603
 Vibration     9          0.687              1.689              1.465
 Vibration    10          0.762              1.482              0.982
 Vibration    11          0.762              1.479              0.979
 Vibration    12          0.799              1.385              0.830
 Vibration    13          0.849              1.264              0.674
 Vibration    14          0.851              1.261              0.671
 Vibration    15          0.861              1.237              0.644
 Vibration    16          0.862              1.234              0.640
 Vibration    17          0.880              1.194              0.598
 Vibration    18          0.905              1.141              0.546
 Vibration    19          0.935              1.078              0.489

 Optimization completed.
    -- Stationary point found.
 Normal termination of Gaussian 16 at Mon Jul 13 18:30:52 2020.
