 Gaussian 16, Revision C.01,
 Gaussian 16:  ES64L-G16RevC.01  3-Jul-2019

 ----------------------------------------------------------------------
 #p opt=addgic freq td wb97xd/cc-pvdz nosymm int=ultrafine scrf=(solven
 t=CarbonTetraChloride)
 ----------------------------------------------------------------------

 ------------------------------------------------
 NM 2D-scan of HBT TD-WB97XD pVDZ in CTC Relaxed.
 ------------------------------------------------
 Symbolic Z-matrix:
 Charge =  0 Multiplicity = 1

 SCF Done:  E(RwB97XD) =  -1028.81064589     A.U. after   15 cycles
 Total Energy, E(TD-HF/TD-DFT) =  -1028.69295086
 SCF Done:  E(RwB97XD) =  -1028.81032837     A.U. after   11 cycles
 Total Energy, E(TD-HF/TD-DFT) =  -1028.69305219
 SCF Done:  E(RwB97XD) =  -1028.80995864     A.U. after   11 cycles
 Total Energy, E(TD-HF/TD-DFT) =  -1028.69310666
 SCF Done:  E(RwB97XD) =  -1028.80954405     A.U. after   11 cycles
 Total Energy, E(TD-HF/TD-DFT) =  -1028.69313866
 SCF Done:  E(RwB97XD) =  -1028.80947465     A.U. after   10 cycles
 Total Energy, E(TD-HF/TD-DFT) =  -1028.69314130
 Optimization completed.
    -- Stationary point found.
 Normal termination of Gaussian 16 at Mon Jul 13 15:25:28 2020.

 ----------------------------------------------------------------------
 #P Geom=AllCheck Guess=TCheck SCRF=Check GenChk RwB97XD TD(FC,Read)/CC
 -pVDZ Freq
 ----------------------------------------------------------------------

 Structure from the checkpoint file:  "config_7_7.chk"
 ------------------------------------------------
 NM 2D-scan of HBT TD-WB97XD pVDZ in CTC Relaxed.
 ------------------------------------------------
 Charge =  0 Multiplicity = 1

                          Input orientation:
 ---------------------------------------------------------------------
 Center     Atomic      Atomic             Coordinates (Angstroms)
 Number     Number       Type             X           Y           Z
 ---------------------------------------------------------------------
      1          6           0        1.677851   -3.270500   -0.000025
      2          6           0        0.998155   -2.054004   -0.000016
      3          6           0        1.704873   -0.817807   -0.000014
      4          6           0        3.112456   -0.818487   -0.000020
      5          6           0        3.776779   -2.033666   -0.000028
      6          6           0        3.073153   -3.250652   -0.000030
      7          1           0        1.134197   -4.216074   -0.000027
      8          1           0        3.651386    0.129435   -0.000018
      9          1           0        4.868051   -2.046366   -0.000033
     10          1           0        3.622627   -4.192886   -0.000037
     11          7           0        0.907771    0.277688   -0.000007
     12         16           0       -0.737603   -1.762139   -0.000009
     13          6           0       -1.382073    1.027831    0.000011
     14          6           0       -2.771229    0.838484    0.000003
     15          6           0       -0.876434    2.424649    0.000034
     16          6           0       -3.647348    1.935253    0.000020
     17          1           0       -3.179813   -0.174102   -0.000016
     18          6           0       -1.799881    3.495875    0.000051
     19          6           0       -3.171035    3.258268    0.000046
     20          1           0       -4.722687    1.750102    0.000015
     21          1           0       -1.384837    4.504423    0.000071
     22          1           0       -3.873491    4.092018    0.000061
     23          6           0       -0.418746   -0.017279   -0.000002
     24          8           0        0.388299    2.663938    0.000043
     25          1           0        0.955938    1.488098    0.000018
 ---------------------------------------------------------------------

 SCF Done:  E(RwB97XD) =  -1028.80947465     A.U. after    1 cycles

 Excitation energies and oscillator strengths:

 Excited state symmetry could not be determined.
 Excited State   1:      Singlet-?Sym    3.1656 eV  391.66 nm  f=0.4754  <S**2>=0.000
      59 -> 60         0.69420
 This state for optimization and/or second-order correction.
 Total Energy, E(TD-HF/TD-DFT) =  -1028.69314129
 Copying the excited state density for this state as the 1-particle RhoCI density.

 Excited state symmetry could not be determined.
 Excited State   2:      Singlet-?Sym    4.3567 eV  284.58 nm  f=0.3799  <S**2>=0.000
      57 -> 60        -0.10464
      58 -> 60         0.67195

 Excited state symmetry could not be determined.
 Excited State   3:      Singlet-?Sym    4.4167 eV  280.72 nm  f=0.0000  <S**2>=0.000
      56 -> 60         0.68746
      56 -> 64        -0.10935

 Alpha  occ. eigenvalues --  -89.10048 -19.23882 -14.49885 -10.41113 -10.36911
 Alpha  occ. eigenvalues --  -10.36508 -10.35756 -10.32935 -10.32247 -10.32026
 Alpha  occ. eigenvalues --  -10.31970 -10.31893 -10.31665 -10.31337 -10.29706
 Alpha  occ. eigenvalues --  -10.29175  -8.11991  -6.06857  -6.06503  -6.06027
 Alpha  occ. eigenvalues --   -1.13155  -1.09818  -0.97495  -0.95296  -0.92691
 Alpha  occ. eigenvalues --   -0.88994  -0.85841  -0.83826  -0.81975  -0.75893
 Alpha  occ. eigenvalues --   -0.71590  -0.71139  -0.68538  -0.67948  -0.63830
 Alpha  occ. eigenvalues --   -0.60873  -0.59343  -0.57484  -0.55326  -0.54911
 Alpha  occ. eigenvalues --   -0.54384  -0.53480  -0.52746  -0.50992  -0.49936
 Alpha  occ. eigenvalues --   -0.49317  -0.47548  -0.46479  -0.45411  -0.45085
 Alpha  occ. eigenvalues --   -0.44085  -0.43134  -0.41954  -0.40723  -0.36632
 Alpha  occ. eigenvalues --   -0.34424  -0.32981  -0.31237  -0.27091
 Alpha virt. eigenvalues --   -0.01869   0.04309   0.06426   0.06663   0.08322
 Alpha virt. eigenvalues --    0.10576   0.13433   0.14872   0.16162   0.17692
 Alpha virt. eigenvalues --    0.18827   0.20650   0.21375   0.21888   0.22758

 Mulliken charges:
               1
     1  C    0.014880
     2  C   -0.233825
     3  C    0.271102
     4  C   -0.013909
     5  C    0.010731
     6  C   -0.002328
     7  H    0.023088
     8  H    0.026547
     9  H    0.023814
    10  H    0.024116
    11  N   -0.270502
    12  S    0.186591
    13  C   -0.114054
    14  C   -0.021808
    15  C    0.125229
    16  C   -0.028891
    17  H    0.007766
    18  C   -0.009437
    19  C    0.029669
    20  H    0.005679
    21  H    0.008965
    22  H    0.018159
    23  C    0.069756
    24  O   -0.374459
    25  H    0.223119
 Sum of Mulliken charges =  -0.00000

 Dipole moment (field-independent basis, Debye):
    X=              0.7267    Y=             -4.0852    Z=             -0.0001  Tot=              4.1493
 Quadrupole moment (field-independent basis, Debye-Ang):
   XX=            -83.0735   YY=            -92.3833   ZZ=           -104.3006
   XY=             -6.9084   XZ=             -0.0001   YZ=              0.0001

  Exact polarizability:     357.353    -136.799     316.010      -0.002       0.003      63.311
 Approx polarizability:     274.460     -35.380     264.006      -0.001       0.002      82.274

 ******    1 imaginary frequencies (negative Signs) ******

                      1                      2                      3
                      A                      A                      A
 Frequencies --  -1004.5702                40.1726                59.7832
 Red. masses --      1.1064                 5.9586                 6.5665
 Frc consts  --      0.6578                 0.0057                 0.0138
 IR Inten    --   2028.3353                 1.3154                 0.4951

                      4                      5                      6
                      A                      A                      A
 Frequencies --    113.9650               135.8984               179.5392
 Red. masses --      5.0576                 5.6989                 5.9662
 Frc consts  --      0.0387                 0.0620                 0.1133
 IR Inten    --      0.0176                 1.3863                 0.4028

                      7                      8                      9
                      A                      A                      A
 Frequencies --    219.5994               269.7653               275.1305
 Red. masses --      5.3983                 4.7110                 7.3173
 Frc consts  --      0.1534                 0.2020                 0.3263
 IR Inten    --      0.1066                 0.1702                 9.3270

                     10                     11                     12
                      A                      A                      A
 Frequencies --    368.7064               377.6400               405.3257
 Red. masses --      5.0320                 6.3913                10.9185
 Frc consts  --      0.4030                 0.5370                 1.0569
 IR Inten    --      0.5905                14.2073                 3.3906

                     13                     14                     15
                      A                      A                      A
 Frequencies --    437.8168               471.4396               498.6548
 Red. masses --      3.2487                 4.7914                 3.1604
 Frc consts  --      0.3669                 0.6274                 0.4630
 IR Inten    --      4.8049                 0.4185                 0.4944

                     16                     17                     18
                      A                      A                      A
 Frequencies --    505.8722               544.0650               557.4993
 Red. masses --      8.8793                 8.5489                 3.8752
 Frc consts  --      1.3388                 1.4910                 0.7096
 IR Inten    --      1.9723                 0.4934                 0.3460

                     19                     20                     21
                      A                      A                      A
 Frequencies --    578.5819               595.8115               660.5380
 Red. masses --      7.6044                 7.0405                 6.7497
 Frc consts  --      1.4998                 1.4726                 1.7351
 IR Inten    --     21.3644                 7.7652                69.0851

                     22                     23                     24
                      A                      A                      A
 Frequencies --    695.3811               712.7446               741.8411
 Red. masses --      1.6075                 6.4039                 2.4302
 Frc consts  --      0.4580                 1.9168                 0.7880
 IR Inten    --     39.9200                 9.0926                15.5323

                     25                     26                     27
                      A                      A                      A
 Frequencies --    756.4207               764.8097               768.5999
 Red. masses --      7.8742                 1.8708                 1.7281
 Frc consts  --      2.6545                 0.6447                 0.6015
 IR Inten    --     28.3784                 4.9774                86.0364

                     28                     29                     30
                      A                      A                      A
 Frequencies --    821.8404               827.0745               866.0113
 Red. masses --      6.2322                 1.6419                 1.3921
 Frc consts  --      2.4801                 0.6617                 0.6151
 IR Inten    --     15.2489                 0.0388                 0.9718

                     31                     32                     33
                      A                      A                      A
 Frequencies --    907.4085               921.7496               956.0785
 Red. masses --      1.3853                 6.6502                 1.3766
 Frc consts  --      0.6721                 3.3290                 0.7414
 IR Inten    --      5.5909                29.8824                 1.3956

                     34                     35                     36
                      A                      A                      A
 Frequencies --    956.4629               998.2310              1002.5605
 Red. masses --      1.3482                 7.2603                 1.2940
 Frc consts  --      0.7267                 4.2625                 0.7663
 IR Inten    --      1.0663                68.9606                 0.0005

                     37                     38                     39
                      A                      A                      A
 Frequencies --   1041.6979              1049.9863              1089.1042
 Red. masses --      2.1328                 2.0929                 4.2571
 Frc consts  --      1.3636                 1.3594                 2.9751
 IR Inten    --      0.5528                 2.4440                67.7360

                     40                     41                     42
                      A                      A                      A
 Frequencies --   1128.3537              1151.8095              1168.1170
 Red. masses --      1.4597                 1.3307                 1.1772
 Frc consts  --      1.0950                 1.0401                 0.9464
 IR Inten    --     19.8553                11.3369               110.5427

                     43                     44                     45
                      A                      A                      A
 Frequencies --   1179.6242              1222.4532              1255.4234
 Red. masses --      1.1575                 1.0529                 1.7853
 Frc consts  --      0.9490                 0.9271                 1.6578
 IR Inten    --     17.5567                65.6296                83.2876

                     46                     47                     48
                      A                      A                      A
 Frequencies --   1267.2815              1302.0285              1347.2977
 Red. masses --      2.6381                 2.2436                 4.4074
 Frc consts  --      2.4963                 2.2410                 4.7136
 IR Inten    --     29.0162                15.4977               130.6070

                     49                     50                     51
                      A                      A                      A
 Frequencies --   1363.6351              1389.5387              1405.8281
 Red. masses --      6.3300                 2.6101                 2.2727
 Frc consts  --      6.9350                 2.9693                 2.6465
 IR Inten    --    198.9416                 1.8634                 8.2587

                     52                     53                     54
                      A                      A                      A
 Frequencies --   1446.5760              1478.9488              1499.9606
 Red. masses --      2.9655                 3.8507                 4.0213
 Frc consts  --      3.6563                 4.9624                 5.3306
 IR Inten    --    542.9692                93.3363               198.2902

                     55                     56                     57
                      A                      A                      A
 Frequencies --   1523.3907              1542.4098              1566.2014
 Red. masses --      4.8203                 4.7800                 4.3667
 Frc consts  --      6.5910                 6.7000                 6.3110
 IR Inten    --    108.6816                76.7406               135.5177

                     58                     59                     60
                      A                      A                      A
 Frequencies --   1624.2910              1637.8073              1659.3014
 Red. masses --      5.9973                 5.8756                 6.4728
 Frc consts  --      9.3225                 9.2861                10.5000
 IR Inten    --     19.7629               804.7895               102.8712

                     61                     62                     63
                      A                      A                      A
 Frequencies --   1911.3348              3201.2726              3209.4771
 Red. masses --      1.1097                 1.0882                 1.0864
 Frc consts  --      2.3885                 6.5708                 6.5931
 IR Inten    --    276.3623                18.2407                 6.8049

                     64                     65                     66
                      A                      A                      A
 Frequencies --   3216.1615              3220.5010              3226.0648
 Red. masses --      1.0875                 1.0902                 1.0929
 Frc consts  --      6.6276                 6.6622                 6.7016
 IR Inten    --      2.2434                 3.3659                17.0302

                     67                     68                     69
                      A                      A                      A
 Frequencies --   3231.8183              3237.7894              3238.1908
 Red. masses --      1.0954                 1.0988                 1.0992
 Frc consts  --      6.7407                 6.7867                 6.7912
 IR Inten    --      9.8646                34.5976                 3.2053

 - Thermochemistry -
 -------------------
 Temperature   298.150 Kelvin.  Pressure   1.00000 Atm.
 Atom     1 has atomic number  6 and mass  12.00000

 Molecular mass:   227.04049 amu.
 Principal axes and moments of inertia in atomic units:
                           1         2         3
     Eigenvalues --  1316.323226323.317677639.64089
           X           -0.70261   0.71157   0.00000
           Y            0.71157   0.70261  -0.00001
           Z            0.00001   0.00001   1.00000
 This molecule is an asymmetric top.
 Rotational symmetry number  1.
 Warning -- assumption of classical behavior for rotation
           may cause significant error
 Rotational temperatures (Kelvin)      0.06580     0.01370     0.01134
 Rotational constants (GHZ):           1.37105     0.28541     0.23623
    1 imaginary frequencies ignored.
 Zero-point vibrational energy     478665.9 (Joules/Mol)
                                  114.40390 (Kcal/Mol)
 Warning -- explicit consideration of  19 degrees of freedom as
           vibrations may cause significant error
 Vibrational temperatures:     57.80    86.01   163.97   195.53   258.32
          (Kelvin)            315.95   388.13   395.85   530.49   543.34
                              583.17   629.92   678.30   717.45   727.84
                              782.79   802.12   832.45   857.24   950.37
                             1000.50  1025.48  1067.34  1088.32  1100.39
                             1105.84  1182.45  1189.98  1246.00  1305.56
                             1326.19  1375.58  1376.14  1436.23  1442.46
                             1498.77  1510.70  1566.98  1623.45  1657.20
                             1680.66  1697.22  1758.84  1806.27  1823.34
                             1873.33  1938.46  1961.97  1999.24  2022.67
                             2081.30  2127.88  2158.11  2191.82  2219.18
                             2253.41  2336.99  2356.44  2387.36  2749.98
                             4605.92  4617.72  4627.34  4633.58  4641.59
                             4649.87  4658.46  4659.03

 Zero-point correction=                           0.182314 (Hartree/Particle)
 Thermal correction to Energy=                    0.194360
 Thermal correction to Enthalpy=                  0.195305
 Thermal correction to Gibbs Free Energy=         0.143154
 Sum of electronic and zero-point Energies=          -1028.510827
 Sum of electronic and thermal Energies=             -1028.498781
 Sum of electronic and thermal Enthalpies=           -1028.497837
 Sum of electronic and thermal Free Energies=        -1028.549987

                     E (Thermal)             CV                S
                      KCal/Mol        Cal/Mol-Kelvin    Cal/Mol-Kelvin
 Total                  121.963             48.393            109.759
 Electronic               0.000              0.000              0.000
 Translational            0.889              2.981             42.162
 Rotational               0.889              2.981             32.519
 Vibrational            120.186             42.431             35.078
 Vibration     1          0.594              1.981              5.251
 Vibration     2          0.597              1.973              4.464
 Vibration     3          0.607              1.938              3.200
 Vibration     4          0.614              1.917              2.861
 Vibration     5          0.629              1.867              2.333
 Vibration     6          0.647              1.811              1.962
 Vibration     7          0.674              1.729              1.598
 Vibration     8          0.677              1.719              1.564
 Vibration     9          0.741              1.537              1.085
 Vibration    10          0.748              1.518              1.049
 Vibration    11          0.770              1.459              0.943
 Vibration    12          0.798              1.388              0.833
 Vibration    13          0.828              1.313              0.734
 Vibration    14          0.854              1.253              0.661
 Vibration    15          0.861              1.237              0.644
 Vibration    16          0.899              1.153              0.557
 Vibration    17          0.913              1.123              0.529
 Vibration    18          0.935              1.078              0.488
 Vibration    19          0.954              1.041              0.457

 Optimization completed.
    -- Stationary point found.
 Normal termination of Gaussian 16 at Mon Jul 13 15:42:54 2020.
