 Gaussian 16, Revision C.01,
 Gaussian 16:  ES64L-G16RevC.01  3-Jul-2019

 ----------------------------------------------------------------------
 #p opt=addgic freq td wb97xd/cc-pvdz nosymm int=ultrafine scrf=(solven
 t=CarbonTetraChloride)
 ----------------------------------------------------------------------

 ------------------------------------------------
 NM 2D-scan of HBT TD-WB97XD pVDZ in CTC Relaxed.
 ------------------------------------------------
 Symbolic Z-matrix:
 Charge =  0 Multiplicity = 1

 SCF Done:  E(RwB97XD) =  -1028.80014941     A.U. after   16 cycles
 Total Energy, E(TD-HF/TD-DFT) =  -1028.69033305
 SCF Done:  E(RwB97XD) =  -1028.79862145     A.U. after   14 cycles
 Total Energy, E(TD-HF/TD-DFT) =  -1028.69625009
 SCF Done:  E(RwB97XD) =  -1028.80649768     A.U. after   13 cycles
 Total Energy, E(TD-HF/TD-DFT) =  -1028.70035431
 SCF Done:  E(RwB97XD) =  -1028.80703468     A.U. after   11 cycles
 Total Energy, E(TD-HF/TD-DFT) =  -1028.70041575
 SCF Done:  E(RwB97XD) =  -1028.80699770     A.U. after    9 cycles
 Total Energy, E(TD-HF/TD-DFT) =  -1028.70041865
 Optimization completed.
    -- Stationary point found.
 Normal termination of Gaussian 16 at Mon Jul 13 16:35:49 2020.

 ----------------------------------------------------------------------
 #P Geom=AllCheck Guess=TCheck SCRF=Check GenChk RwB97XD TD(FC,Read)/CC
 -pVDZ Freq
 ----------------------------------------------------------------------

 Structure from the checkpoint file:  "config_9_9.chk"
 ------------------------------------------------
 NM 2D-scan of HBT TD-WB97XD pVDZ in CTC Relaxed.
 ------------------------------------------------
 Charge =  0 Multiplicity = 1

                          Input orientation:
 ---------------------------------------------------------------------
 Center     Atomic      Atomic             Coordinates (Angstroms)
 Number     Number       Type             X           Y           Z
 ---------------------------------------------------------------------
      1          6           0        1.662093   -3.286438   -0.000039
      2          6           0        1.003810   -2.059152   -0.000025
      3          6           0        1.733078   -0.848552   -0.000012
      4          6           0        3.135615   -0.859223   -0.000007
      5          6           0        3.781091   -2.087317   -0.000020
      6          6           0        3.057893   -3.289657   -0.000037
      7          1           0        1.102398   -4.222391   -0.000048
      8          1           0        3.689505    0.079842    0.000007
      9          1           0        4.871790   -2.116724   -0.000017
     10          1           0        3.590579   -4.241298   -0.000046
     11          7           0        0.928156    0.246967   -0.000001
     12         16           0       -0.730658   -1.730129   -0.000015
     13          6           0       -1.373819    1.063104    0.000015
     14          6           0       -2.748615    0.840619    0.000014
     15          6           0       -0.884142    2.468385    0.000031
     16          6           0       -3.671004    1.914545    0.000037
     17          1           0       -3.133739   -0.182079   -0.000001
     18          6           0       -1.859113    3.507298    0.000039
     19          6           0       -3.229677    3.238608    0.000050
     20          1           0       -4.738890    1.691388    0.000039
     21          1           0       -1.474309    4.528474    0.000039
     22          1           0       -3.950025    4.057605    0.000061
     23          6           0       -0.409716    0.003420   -0.000004
     24          8           0        0.355065    2.737730   -0.000016
     25          1           0        1.149696    1.276493    0.000046
 ---------------------------------------------------------------------

 SCF Done:  E(RwB97XD) =  -1028.80699770     A.U. after    1 cycles

 Excitation energies and oscillator strengths:

 Excited state symmetry could not be determined.
 Excited State   1:      Singlet-?Sym    2.9002 eV  427.51 nm  f=0.4407  <S**2>=0.000
      59 -> 60         0.69636
 This state for optimization and/or second-order correction.
 Total Energy, E(TD-HF/TD-DFT) =  -1028.70041864
 Copying the excited state density for this state as the 1-particle RhoCI density.

 Excited state symmetry could not be determined.
 Excited State   2:      Singlet-?Sym    3.7299 eV  332.40 nm  f=0.0000  <S**2>=0.000
      57 -> 60         0.68368
      57 -> 62         0.11704
      57 -> 64         0.11620

 Excited state symmetry could not be determined.
 Excited State   3:      Singlet-?Sym    4.3232 eV  286.79 nm  f=0.4196  <S**2>=0.000
      58 -> 60         0.68062

 Alpha  occ. eigenvalues --  -89.10559 -19.21361 -14.52116 -10.42013 -10.37393
 Alpha  occ. eigenvalues --  -10.36291 -10.36006 -10.33421 -10.32898 -10.32545
 Alpha  occ. eigenvalues --  -10.32380 -10.31560 -10.31222 -10.30812 -10.29244
 Alpha  occ. eigenvalues --  -10.28410  -8.12515  -6.07393  -6.07023  -6.06535
 Alpha  occ. eigenvalues --   -1.12874  -1.09392  -0.98295  -0.95227  -0.93205
 Alpha  occ. eigenvalues --   -0.89142  -0.86543  -0.83907  -0.81242  -0.75987
 Alpha  occ. eigenvalues --   -0.72936  -0.71964  -0.68809  -0.67660  -0.64952
 Alpha  occ. eigenvalues --   -0.60976  -0.59689  -0.56719  -0.55845  -0.55509
 Alpha  occ. eigenvalues --   -0.54947  -0.53713  -0.53077  -0.50731  -0.49129
 Alpha  occ. eigenvalues --   -0.48789  -0.48329  -0.46903  -0.45451  -0.44876
 Alpha  occ. eigenvalues --   -0.44295  -0.43007  -0.42102  -0.40248  -0.36820
 Alpha  occ. eigenvalues --   -0.33601  -0.32006  -0.31422  -0.26004
 Alpha virt. eigenvalues --   -0.02061   0.03762   0.05871   0.06357   0.09183
 Alpha virt. eigenvalues --    0.10652   0.13044   0.14648   0.16147   0.17311
 Alpha virt. eigenvalues --    0.18718   0.20141   0.20935   0.21366   0.22990

 Mulliken charges:
               1
     1  C    0.015816
     2  C   -0.241487
     3  C    0.262566
     4  C   -0.010273
     5  C    0.012762
     6  C    0.000306
     7  H    0.026051
     8  H    0.031643
     9  H    0.027330
    10  H    0.026682
    11  N   -0.142182
    12  S    0.199856
    13  C   -0.102759
    14  C   -0.026886
    15  C    0.117900
    16  C   -0.035291
    17  H    0.005588
    18  C   -0.023997
    19  C    0.032792
    20  H    0.002400
    21  H    0.002197
    22  H    0.014786
    23  C    0.060046
    24  O   -0.409625
    25  H    0.153781
 Sum of Mulliken charges =  -0.00000

 Dipole moment (field-independent basis, Debye):
    X=              1.7232    Y=             -5.5102    Z=              0.0001  Tot=              5.7734
 Quadrupole moment (field-independent basis, Debye-Ang):
   XX=            -82.3603   YY=            -95.3516   ZZ=           -104.2413
   XY=             -6.6572   XZ=              0.0001   YZ=              0.0004

  Exact polarizability:     348.939    -123.431     300.144      -0.002       0.003      63.279
 Approx polarizability:     273.824     -36.775     265.786      -0.001       0.002      82.085

 ******    1 imaginary frequencies (negative Signs) ******

                      1                      2                      3
                      A                      A                      A
 Frequencies --     -2.3907                39.5424               112.2649
 Red. masses --      5.9459                 6.5136                 5.1765
 Frc consts  --      0.0000                 0.0060                 0.0384
 IR Inten    --      1.0929                 1.8744                 0.3231

                      4                      5                      6
                      A                      A                      A
 Frequencies --    117.1152               178.7119               222.3711
 Red. masses --      5.7417                 5.5363                 5.4210
 Frc consts  --      0.0464                 0.1042                 0.1579
 IR Inten    --      9.6442                 0.1117                 0.2128

                      7                      8                      9
                      A                      A                      A
 Frequencies --    266.7611               270.8548               314.8160
 Red. masses --      7.7848                 4.6439                 7.3305
 Frc consts  --      0.3264                 0.2007                 0.4281
 IR Inten    --      1.7902                 0.4659                 7.3695

                     10                     11                     12
                      A                      A                      A
 Frequencies --    355.2655               391.9922               433.6044
 Red. masses --      4.9021                 9.0494                 3.3624
 Frc consts  --      0.3645                 0.8193                 0.3725
 IR Inten    --      0.9532                 4.5733                 3.8379

                     13                     14                     15
                      A                      A                      A
 Frequencies --    456.9637               504.9958               507.9413
 Red. masses --      4.6312                 8.6655                 3.1970
 Frc consts  --      0.5698                 1.3020                 0.4860
 IR Inten    --      2.4375                 7.7123                 0.5065

                     16                     17                     18
                      A                      A                      A
 Frequencies --    541.1649               557.5156               561.2492
 Red. masses --      8.7185                 3.8429                 6.6281
 Frc consts  --      1.5044                 0.7038                 1.2301
 IR Inten    --      5.9460                 0.6632                36.1445

                     19                     20                     21
                      A                      A                      A
 Frequencies --    570.0398               635.1041               691.9983
 Red. masses --      7.3707                 6.0516                 1.5631
 Frc consts  --      1.4111                 1.4382                 0.4410
 IR Inten    --     17.7609                70.0969                37.8331

                     22                     23                     24
                      A                      A                      A
 Frequencies --    709.9678               722.8661               742.9748
 Red. masses --      6.6030                 7.8490                 2.6535
 Frc consts  --      1.9609                 2.4165                 0.8630
 IR Inten    --      2.0644                 3.8048                13.0748

                     25                     26                     27
                      A                      A                      A
 Frequencies --    762.8214               768.3925               817.2346
 Red. masses --      1.7470                 1.6546                 6.4084
 Frc consts  --      0.5990                 0.5756                 2.5217
 IR Inten    --      3.0128                85.9199                17.0353

                     28                     29                     30
                      A                      A                      A
 Frequencies --    837.4560               867.2470               874.9345
 Red. masses --      1.7358                 1.3828                 4.5171
 Frc consts  --      0.7173                 0.6128                 2.0373
 IR Inten    --      0.0151                 0.3578                 9.7585

                     31                     32                     33
                      A                      A                      A
 Frequencies --    905.1712               941.9342               954.2952
 Red. masses --      1.4168                 1.0882                 1.3464
 Frc consts  --      0.6839                 0.5689                 0.7224
 IR Inten    --      5.3074                69.0178                 7.5768

                     34                     35                     36
                      A                      A                      A
 Frequencies --    957.3169               958.0864              1004.5288
 Red. masses --      5.5670                 1.3485                 1.2952
 Frc consts  --      3.0060                 0.7293                 0.7700
 IR Inten    --      1.7392                 1.2749                 0.0759

                     37                     38                     39
                      A                      A                      A
 Frequencies --   1048.7103              1052.9725              1083.5308
 Red. masses --      2.1578                 2.1447                 4.1716
 Frc consts  --      1.3982                 1.4010                 2.8856
 IR Inten    --      1.1046                 8.5643                 1.7750

                     40                     41                     42
                      A                      A                      A
 Frequencies --   1114.9644              1153.1561              1162.3453
 Red. masses --      1.5424                 1.3177                 1.2129
 Frc consts  --      1.1297                 1.0324                 0.9655
 IR Inten    --     35.6694                18.1589                60.9018

                     43                     44                     45
                      A                      A                      A
 Frequencies --   1180.4168              1225.0673              1257.8463
 Red. masses --      1.1440                 1.8635                 2.2064
 Frc consts  --      0.9392                 1.6477                 2.0568
 IR Inten    --     32.6874                82.1740                48.0908

                     46                     47                     48
                      A                      A                      A
 Frequencies --   1281.3307              1309.3180              1341.8690
 Red. masses --      1.6844                 1.9762                 5.7840
 Frc consts  --      1.6294                 1.9960                 6.1362
 IR Inten    --    102.7489                56.2174                11.4526

                     49                     50                     51
                      A                      A                      A
 Frequencies --   1366.9551              1396.4310              1400.8020
 Red. masses --      5.3726                 2.6656                 2.3303
 Frc consts  --      5.9148                 3.0625                 2.6941
 IR Inten    --    148.6880                 7.5225                 2.2881

                     52                     53                     54
                      A                      A                      A
 Frequencies --   1436.6509              1483.7523              1505.1099
 Red. masses --      3.2796                 2.7496                 3.0984
 Frc consts  --      3.9882                 3.5665                 4.1355
 IR Inten    --    373.8232                 1.9099                35.1579

                     55                     56                     57
                      A                      A                      A
 Frequencies --   1532.2815              1560.7788              1582.2684
 Red. masses --      4.1448                 5.1152                 4.0728
 Frc consts  --      5.7337                 7.3417                 6.0077
 IR Inten    --     40.9047               197.1100                74.0046

                     58                     59                     60
                      A                      A                      A
 Frequencies --   1621.4544              1647.6203              1668.1638
 Red. masses --      6.3089                 6.1543                 6.7805
 Frc consts  --      9.7726                 9.8434                11.1170
 IR Inten    --    228.2868                53.9938               171.2093

                     61                     62                     63
                      A                      A                      A
 Frequencies --   3035.8600              3194.0994              3211.4877
 Red. masses --      1.0897                 1.0887                 1.0864
 Frc consts  --      5.9174                 6.5441                 6.6019
 IR Inten    --   1059.1075                28.6640                 1.7034

                     64                     65                     66
                      A                      A                      A
 Frequencies --   3212.9627              3222.6226              3223.2701
 Red. masses --      1.0863                 1.0923                 1.0905
 Frc consts  --      6.6071                 6.6834                 6.6752
 IR Inten    --      4.8098                13.6211                 3.8662

                     67                     68                     69
                      A                      A                      A
 Frequencies --   3233.8833              3235.0268              3240.3127
 Red. masses --      1.0956                 1.0989                 1.0995
 Frc consts  --      6.7507                 6.7759                 6.8020
 IR Inten    --      8.5878                24.9971                11.2082

 - Thermochemistry -
 -------------------
 Temperature   298.150 Kelvin.  Pressure   1.00000 Atm.
 Atom     1 has atomic number  6 and mass  12.00000

 Molecular mass:   227.04049 amu.
 Principal axes and moments of inertia in atomic units:
                           1         2         3
     Eigenvalues --  1307.027596415.442327722.46991
           X           -0.70196   0.71222   0.00000
           Y            0.71222   0.70196  -0.00001
           Z            0.00001   0.00000   1.00000
 This molecule is an asymmetric top.
 Rotational symmetry number  1.
 Warning -- assumption of classical behavior for rotation
           may cause significant error
 Rotational temperatures (Kelvin)      0.06627     0.01350     0.01122
 Rotational constants (GHZ):           1.38080     0.28131     0.23370
    1 imaginary frequencies ignored.
 Zero-point vibrational energy     489146.0 (Joules/Mol)
                                  116.90869 (Kcal/Mol)
 Warning -- explicit consideration of  18 degrees of freedom as
           vibrations may cause significant error
 Vibrational temperatures:     56.89   161.52   168.50   257.13   319.94
          (Kelvin)            383.81   389.70   452.95   511.15   563.99
                              623.86   657.47   726.58   730.81   778.62
                              802.14   807.51   820.16   913.77   995.63
                             1021.49  1040.04  1068.97  1097.53  1105.55
                             1175.82  1204.91  1247.77  1258.84  1302.34
                             1355.23  1373.02  1377.37  1378.47  1445.29
                             1508.86  1514.99  1558.96  1604.19  1659.13
                             1672.36  1698.36  1762.60  1809.76  1843.55
                             1883.82  1930.65  1966.74  2009.15  2015.44
                             2067.02  2134.79  2165.52  2204.61  2245.61
                             2276.53  2332.91  2370.56  2400.12  4367.93
                             4595.60  4620.61  4622.74  4636.64  4637.57
                             4652.84  4654.48  4662.09

 Zero-point correction=                           0.186306 (Hartree/Particle)
 Thermal correction to Energy=                    0.197803
 Thermal correction to Enthalpy=                  0.198747
 Thermal correction to Gibbs Free Energy=         0.148174
 Sum of electronic and zero-point Energies=          -1028.514113
 Sum of electronic and thermal Energies=             -1028.502616
 Sum of electronic and thermal Enthalpies=           -1028.501672
 Sum of electronic and thermal Free Energies=        -1028.552245

                     E (Thermal)             CV                S
                      KCal/Mol        Cal/Mol-Kelvin    Cal/Mol-Kelvin
 Total                  124.123             47.394            106.439
 Electronic               0.000              0.000              0.000
 Translational            0.889              2.981             42.162
 Rotational               0.889              2.981             32.537
 Vibrational            122.346             41.433             31.740
 Vibration     1          0.594              1.981              5.282
 Vibration     2          0.607              1.939              3.229
 Vibration     3          0.608              1.935              3.147
 Vibration     4          0.629              1.868              2.342
 Vibration     5          0.648              1.807              1.940
 Vibration     6          0.672              1.734              1.617
 Vibration     7          0.675              1.727              1.591
 Vibration     8          0.702              1.645              1.337
 Vibration     9          0.731              1.564              1.143
 Vibration    10          0.759              1.487              0.993
 Vibration    11          0.794              1.397              0.847
 Vibration    12          0.815              1.345              0.775
 Vibration    13          0.860              1.239              0.646
 Vibration    14          0.863              1.232              0.639
 Vibration    15          0.896              1.159              0.563
 Vibration    16          0.913              1.123              0.529
 Vibration    17          0.917              1.115              0.521
 Vibration    18          0.926              1.096              0.504

 Optimization completed.
    -- Stationary point found.
 Normal termination of Gaussian 16 at Mon Jul 13 16:53:37 2020.
