 Gaussian 16, Revision C.01,
 Gaussian 16:  ES64L-G16RevC.01  3-Jul-2019

 ----------------------------------------------------------------------
 #p opt=addgic freq td wb97xd/cc-pvdz nosymm int=ultrafine scrf=(solven
 t=CarbonTetraChloride)
 ----------------------------------------------------------------------

 ------------------------------------------------
 NM 2D-scan of HBT TD-WB97XD pVDZ in CTC Relaxed.
 ------------------------------------------------
 Symbolic Z-matrix:
 Charge =  0 Multiplicity = 1

 SCF Done:  E(RwB97XD) =  -1028.81437168     A.U. after   15 cycles
 Total Energy, E(TD-HF/TD-DFT) =  -1028.69198651
 Optimization completed.
    -- Stationary point found.
 Normal termination of Gaussian 16 at Mon Jul 13 14:36:46 2020.

 ----------------------------------------------------------------------
 #P Geom=AllCheck Guess=TCheck SCRF=Check GenChk RwB97XD TD(FC,Read)/CC
 -pVDZ Freq
 ----------------------------------------------------------------------

 Structure from the checkpoint file:  "config_6_8.chk"
 ------------------------------------------------
 NM 2D-scan of HBT TD-WB97XD pVDZ in CTC Relaxed.
 ------------------------------------------------
 Charge =  0 Multiplicity = 1

                          Input orientation:
 ---------------------------------------------------------------------
 Center     Atomic      Atomic             Coordinates (Angstroms)
 Number     Number       Type             X           Y           Z
 ---------------------------------------------------------------------
      1          6           0        1.662141   -3.264439   -0.000022
      2          6           0        1.000039   -2.040114   -0.000022
      3          6           0        1.713828   -0.806956   -0.000022
      4          6           0        3.125232   -0.829585   -0.000023
      5          6           0        3.772966   -2.054093   -0.000023
      6          6           0        3.056359   -3.264439   -0.000022
      7          1           0        1.103492   -4.201114   -0.000020
      8          1           0        3.679129    0.109701   -0.000024
      9          1           0        4.864120   -2.080478   -0.000023
     10          1           0        3.594496   -4.213177   -0.000021
     11          7           0        0.923977    0.289728   -0.000022
     12         16           0       -0.730341   -1.741656   -0.000021
     13          6           0       -1.375466    1.027079    0.000004
     14          6           0       -2.766155    0.824707    0.000002
     15          6           0       -0.883675    2.423320    0.000032
     16          6           0       -3.647313    1.911890    0.000026
     17          1           0       -3.163436   -0.191889   -0.000019
     18          6           0       -1.809037    3.490391    0.000054
     19          6           0       -3.178964    3.240956    0.000052
     20          1           0       -4.721765    1.721286    0.000023
     21          1           0       -1.405041    4.503312    0.000077
     22          1           0       -3.888207    4.068835    0.000072
     23          6           0       -0.403504   -0.003935   -0.000017
     24          8           0        0.389655    2.652698    0.000039
     25          1           0        0.911672    1.613310    0.000011
 ---------------------------------------------------------------------

 SCF Done:  E(RwB97XD) =  -1028.81437168     A.U. after    1 cycles

 Excitation energies and oscillator strengths:

 Excited state symmetry could not be determined.
 Excited State   1:      Singlet-?Sym    3.3303 eV  372.29 nm  f=0.5320  <S**2>=0.000
      59 -> 60         0.69258
 This state for optimization and/or second-order correction.
 Total Energy, E(TD-HF/TD-DFT) =  -1028.69198646
 Copying the excited state density for this state as the 1-particle RhoCI density.

 Excited state symmetry could not be determined.
 Excited State   2:      Singlet-?Sym    4.3831 eV  282.87 nm  f=0.3443  <S**2>=0.000
      57 -> 60         0.14069
      58 -> 60         0.66024
      59 -> 64        -0.10383

 Excited state symmetry could not be determined.
 Excited State   3:      Singlet-?Sym    4.7230 eV  262.51 nm  f=0.0499  <S**2>=0.000
      55 -> 61        -0.11010
      57 -> 60         0.57950
      57 -> 62        -0.15346
      58 -> 60        -0.14246
      58 -> 61        -0.19078
      59 -> 61        -0.23348

 Alpha  occ. eigenvalues --  -89.09592 -19.25612 -14.48497 -10.40501 -10.37413
 Alpha  occ. eigenvalues --  -10.35886 -10.35281 -10.32590 -10.32051 -10.31963
 Alpha  occ. eigenvalues --  -10.31912 -10.31764 -10.31718 -10.31618 -10.30000
 Alpha  occ. eigenvalues --  -10.29693  -8.11564  -6.06419  -6.06069  -6.05612
 Alpha  occ. eigenvalues --   -1.14727  -1.09273  -0.97103  -0.95508  -0.92352
 Alpha  occ. eigenvalues --   -0.88906  -0.85450  -0.83941  -0.82317  -0.75898
 Alpha  occ. eigenvalues --   -0.71264  -0.70671  -0.68751  -0.68122  -0.63519
 Alpha  occ. eigenvalues --   -0.60769  -0.59144  -0.58091  -0.55547  -0.54451
 Alpha  occ. eigenvalues --   -0.54334  -0.53324  -0.52769  -0.51045  -0.49851
 Alpha  occ. eigenvalues --   -0.49781  -0.47208  -0.46256  -0.45579  -0.44919
 Alpha  occ. eigenvalues --   -0.44069  -0.42893  -0.42338  -0.40506  -0.36552
 Alpha  occ. eigenvalues --   -0.35700  -0.32605  -0.31216  -0.27638
 Alpha virt. eigenvalues --   -0.01757   0.04649   0.06719   0.07102   0.07834
 Alpha virt. eigenvalues --    0.10749   0.13853   0.15008   0.16252   0.17865
 Alpha virt. eigenvalues --    0.18749   0.20872   0.21610   0.22258   0.22555

 Mulliken charges:
               1
     1  C    0.015980
     2  C   -0.231824
     3  C    0.262789
     4  C   -0.015883
     5  C    0.009041
     6  C   -0.002963
     7  H    0.020562
     8  H    0.022933
     9  H    0.021919
    10  H    0.022579
    11  N   -0.324306
    12  S    0.176035
    13  C   -0.105191
    14  C   -0.021697
    15  C    0.116083
    16  C   -0.023886
    17  H    0.010316
    18  C   -0.006726
    19  C    0.027421
    20  H    0.007797
    21  H    0.012946
    22  H    0.020214
    23  C    0.077136
    24  O   -0.308841
    25  H    0.217566
 Sum of Mulliken charges =  -0.00000

 Dipole moment (field-independent basis, Debye):
    X=              0.2507    Y=             -3.2702    Z=             -0.0000  Tot=              3.2798
 Quadrupole moment (field-independent basis, Debye-Ang):
   XX=            -83.2191   YY=            -90.9443   ZZ=           -104.2943
   XY=             -6.9501   XZ=             -0.0001   YZ=              0.0001

  Exact polarizability:     371.078    -153.746     334.872      -0.002       0.003      63.317
 Approx polarizability:     275.309     -35.210     261.042      -0.001       0.002      82.328

 ******    1 imaginary frequencies (negative Signs) ******

                      1                      2                      3
                      A                      A                      A
 Frequencies --   -951.7180                40.9183                53.1648
 Red. masses --      1.1100                 5.7922                 7.0478
 Frc consts  --      0.5924                 0.0057                 0.0117
 IR Inten    --   1007.4728                 0.8266                 0.7408

                      4                      5                      6
                      A                      A                      A
 Frequencies --    110.7568               141.8625               177.1976
 Red. masses --      4.8994                 5.7215                 6.0116
 Frc consts  --      0.0354                 0.0678                 0.1112
 IR Inten    --      0.0155                 5.2926                 0.7163

                      7                      8                      9
                      A                      A                      A
 Frequencies --    221.5041               271.2537               273.5654
 Red. masses --      5.3701                 4.7535                 7.4363
 Frc consts  --      0.1552                 0.2061                 0.3279
 IR Inten    --      0.0515                 0.1354                14.5358

                     10                     11                     12
                      A                      A                      A
 Frequencies --    375.3555               383.0405               411.9527
 Red. masses --      4.8642                 5.9808                11.3999
 Frc consts  --      0.4038                 0.5170                 1.1399
 IR Inten    --      0.3124                 2.6603                 5.3553

                     13                     14                     15
                      A                      A                      A
 Frequencies --    437.7792               478.3085               497.3969
 Red. masses --      3.2299                 4.7972                 3.1671
 Frc consts  --      0.3647                 0.6466                 0.4617
 IR Inten    --      4.6800                 0.0425                 0.3390

                     16                     17                     18
                      A                      A                      A
 Frequencies --    505.7188               539.4890               557.3587
 Red. masses --      8.8426                 8.3411                 3.9001
 Frc consts  --      1.3324                 1.4303                 0.7138
 IR Inten    --      0.8209                 9.9332                 0.2277

                     19                     20                     21
                      A                      A                      A
 Frequencies --    578.3694               619.7447               689.3748
 Red. masses --      7.5511                 7.1808                 6.8202
 Frc consts  --      1.4882                 1.6250                 1.9097
 IR Inten    --      0.7925                 5.9613               117.2992

                     22                     23                     24
                      A                      A                      A
 Frequencies --    698.7866               723.0875               741.2373
 Red. masses --      1.6304                 6.3216                 2.1543
 Frc consts  --      0.4691                 1.9474                 0.6974
 IR Inten    --     42.6822                78.6320                20.7184

                     25                     26                     27
                      A                      A                      A
 Frequencies --    745.8279               761.3450               768.4883
 Red. masses --      9.5633                 1.9359                 1.8302
 Frc consts  --      3.1343                 0.6611                 0.6368
 IR Inten    --     20.3454                22.4014                64.9069

                     28                     29                     30
                      A                      A                      A
 Frequencies --    819.9164               824.1002               863.4574
 Red. masses --      1.6463                 6.2821                 1.4021
 Frc consts  --      0.6521                 2.5137                 0.6159
 IR Inten    --      0.0135                 4.4401                 0.9814

                     31                     32                     33
                      A                      A                      A
 Frequencies --    908.1566               915.3644               954.4932
 Red. masses --      1.3699                 6.7695                 1.3454
 Frc consts  --      0.6657                 3.3419                 0.7222
 IR Inten    --      5.1729                17.8653                 1.8102

                     34                     35                     36
                      A                      A                      A
 Frequencies --    958.3440               988.6093              1000.8463
 Red. masses --      1.3813                 7.4581                 1.2951
 Frc consts  --      0.7475                 4.2947                 0.7643
 IR Inten    --      0.4830                 8.4891                 0.0006

                     37                     38                     39
                      A                      A                      A
 Frequencies --   1039.9350              1048.5874              1086.2123
 Red. masses --      2.1449                 2.0513                 4.4649
 Frc consts  --      1.3667                 1.3289                 3.1038
 IR Inten    --      0.4258                 2.2956                63.8145

                     40                     41                     42
                      A                      A                      A
 Frequencies --   1131.9445              1151.1223              1171.8680
 Red. masses --      1.4369                 1.3385                 1.1589
 Frc consts  --      1.0848                 1.0450                 0.9377
 IR Inten    --     44.3406                17.6157                85.5893

                     43                     44                     45
                      A                      A                      A
 Frequencies --   1179.4113              1226.4869              1253.0624
 Red. masses --      1.1655                 1.0523                 1.8224
 Frc consts  --      0.9552                 0.9327                 1.6859
 IR Inten    --     33.3240                64.6058               104.3132

                     46                     47                     48
                      A                      A                      A
 Frequencies --   1264.0704              1295.1007              1358.9687
 Red. masses --      2.8943                 2.1340                 3.7142
 Frc consts  --      2.7248                 2.1089                 4.0414
 IR Inten    --     33.4204                13.2964               157.9755

                     49                     50                     51
                      A                      A                      A
 Frequencies --   1370.6845              1393.7248              1405.1040
 Red. masses --      5.6772                 2.6666                 2.3304
 Frc consts  --      6.2843                 3.0519                 2.7109
 IR Inten    --    277.1255                26.8063                 6.5860

                     52                     53                     54
                      A                      A                      A
 Frequencies --   1446.4769              1479.4410              1513.7343
 Red. masses --      3.0605                 3.3220                 4.6981
 Frc consts  --      3.7728                 4.2840                 6.3427
 IR Inten    --    325.7568               116.2821               224.9030

                     55                     56                     57
                      A                      A                      A
 Frequencies --   1523.8378              1543.0175              1566.0848
 Red. masses --      4.6169                 4.8703                 4.6664
 Frc consts  --      6.3165                 6.8321                 6.7432
 IR Inten    --    175.9425                83.3865               383.1143

                     58                     59                     60
                      A                      A                      A
 Frequencies --   1620.6108              1644.9440              1654.8221
 Red. masses --      6.0252                 6.1364                 6.3282
 Frc consts  --      9.3235                 9.7829                10.2101
 IR Inten    --    129.7562              1029.5758                43.4100

                     61                     62                     63
                      A                      A                      A
 Frequencies --   1831.6166              3206.3731              3208.5602
 Red. masses --      1.0906                 1.0874                 1.0864
 Frc consts  --      2.1556                 6.5866                 6.5894
 IR Inten    --     68.2075                13.6106                 8.1797

                     64                     65                     66
                      A                      A                      A
 Frequencies --   3218.4150              3220.1955              3227.0352
 Red. masses --      1.0882                 1.0901                 1.0933
 Frc consts  --      6.6414                 6.6599                 6.7084
 IR Inten    --      3.0963                 3.1924                15.9563

                     67                     68                     69
                      A                      A                      A
 Frequencies --   3231.7377              3237.8384              3239.1622
 Red. masses --      1.0952                 1.0991                 1.0986
 Frc consts  --      6.7395                 6.7889                 6.7911
 IR Inten    --     10.4873                32.0680                13.6182

 - Thermochemistry -
 -------------------
 Temperature   298.150 Kelvin.  Pressure   1.00000 Atm.
 Atom     1 has atomic number  6 and mass  12.00000

 Molecular mass:   227.04049 amu.
 Principal axes and moments of inertia in atomic units:
                           1         2         3
     Eigenvalues --  1308.761996310.715657619.47764
           X           -0.70382   0.71038   0.00000
           Y            0.71038   0.70382  -0.00001
           Z            0.00001   0.00001   1.00000
 This molecule is an asymmetric top.
 Rotational symmetry number  1.
 Warning -- assumption of classical behavior for rotation
           may cause significant error
 Rotational temperatures (Kelvin)      0.06618     0.01372     0.01137
 Rotational constants (GHZ):           1.37897     0.28598     0.23686
    1 imaginary frequencies ignored.
 Zero-point vibrational energy     478663.9 (Joules/Mol)
                                  114.40342 (Kcal/Mol)
 Warning -- explicit consideration of  19 degrees of freedom as
           vibrations may cause significant error
 Vibrational temperatures:     58.87    76.49   159.35   204.11   254.95
          (Kelvin)            318.69   390.27   393.60   540.05   551.11
                              592.71   629.87   688.18   715.64   727.62
                              776.20   801.91   832.14   891.67   991.86
                             1005.40  1040.36  1066.48  1073.08  1095.41
                             1105.68  1179.68  1185.70  1242.32  1306.63
                             1317.01  1373.30  1378.84  1422.39  1439.99
                             1496.23  1508.68  1562.82  1628.62  1656.21
                             1686.06  1696.91  1764.64  1802.88  1818.72
                             1863.36  1955.25  1972.11  2005.26  2021.63
                             2081.16  2128.59  2177.93  2192.46  2220.06
                             2253.25  2331.70  2366.71  2380.92  2635.29
                             4613.26  4616.40  4630.58  4633.14  4642.98
                             4649.75  4658.53  4660.43

 Zero-point correction=                           0.182313 (Hartree/Particle)
 Thermal correction to Energy=                    0.194327
 Thermal correction to Enthalpy=                  0.195271
 Thermal correction to Gibbs Free Energy=         0.143110
 Sum of electronic and zero-point Energies=          -1028.509673
 Sum of electronic and thermal Energies=             -1028.497660
 Sum of electronic and thermal Enthalpies=           -1028.496715
 Sum of electronic and thermal Free Energies=        -1028.548877

                     E (Thermal)             CV                S
                      KCal/Mol        Cal/Mol-Kelvin    Cal/Mol-Kelvin
 Total                  121.942             48.273            109.783
 Electronic               0.000              0.000              0.000
 Translational            0.889              2.981             42.162
 Rotational               0.889              2.981             32.509
 Vibrational            120.165             42.312             35.111
 Vibration     1          0.594              1.981              5.214
 Vibration     2          0.596              1.976              4.696
 Vibration     3          0.607              1.941              3.256
 Vibration     4          0.615              1.911              2.779
 Vibration     5          0.628              1.870              2.358
 Vibration     6          0.648              1.808              1.947
 Vibration     7          0.675              1.726              1.588
 Vibration     8          0.676              1.722              1.574
 Vibration     9          0.746              1.523              1.058
 Vibration    10          0.752              1.506              1.027
 Vibration    11          0.776              1.444              0.920
 Vibration    12          0.798              1.388              0.834
 Vibration    13          0.835              1.298              0.715
 Vibration    14          0.853              1.256              0.665
 Vibration    15          0.861              1.237              0.644
 Vibration    16          0.895              1.163              0.566
 Vibration    17          0.913              1.124              0.529
 Vibration    18          0.935              1.078              0.488
 Vibration    19          0.980              0.990              0.417

 Optimization completed.
    -- Stationary point found.
 Normal termination of Gaussian 16 at Mon Jul 13 14:54:28 2020.
