 Gaussian 16, Revision C.01,
 Gaussian 16:  ES64L-G16RevC.01  3-Jul-2019

 ----------------------------------------------------------------------
 #p opt=addgic freq td wb97xd/cc-pvdz nosymm int=ultrafine scrf=(solven
 t=CarbonTetraChloride)
 ----------------------------------------------------------------------

 ------------------------------------------------
 NM 2D-scan of HBT TD-WB97XD pVDZ in CTC Relaxed.
 ------------------------------------------------
 Symbolic Z-matrix:
 Charge =  0 Multiplicity = 1

 SCF Done:  E(RwB97XD) =  -1028.79946885     A.U. after   16 cycles
 Total Energy, E(TD-HF/TD-DFT) =  -1028.68842037
 SCF Done:  E(RwB97XD) =  -1028.79832372     A.U. after   14 cycles
 Total Energy, E(TD-HF/TD-DFT) =  -1028.69479755
 SCF Done:  E(RwB97XD) =  -1028.80353776     A.U. after   13 cycles
 Total Energy, E(TD-HF/TD-DFT) =  -1028.69718240
 SCF Done:  E(RwB97XD) =  -1028.80418808     A.U. after   11 cycles
 Total Energy, E(TD-HF/TD-DFT) =  -1028.69724423
 SCF Done:  E(RwB97XD) =  -1028.80419498     A.U. after   10 cycles
 Total Energy, E(TD-HF/TD-DFT) =  -1028.69724829
 Optimization completed.
    -- Stationary point found.
 Normal termination of Gaussian 16 at Tue Jul 14 10:58:09 2020.

 ----------------------------------------------------------------------
 #P Geom=AllCheck Guess=TCheck SCRF=Check GenChk RwB97XD TD(FC,Read)/CC
 -pVDZ Freq
 ----------------------------------------------------------------------

 Structure from the checkpoint file:  "config_8_16.chk"
 ------------------------------------------------
 NM 2D-scan of HBT TD-WB97XD pVDZ in CTC Relaxed.
 ------------------------------------------------
 Charge =  0 Multiplicity = 1

                          Input orientation:
 ---------------------------------------------------------------------
 Center     Atomic      Atomic             Coordinates (Angstroms)
 Number     Number       Type             X           Y           Z
 ---------------------------------------------------------------------
      1          6           0        1.560798   -3.284180   -0.000086
      2          6           0        0.991625   -2.013385   -0.000039
      3          6           0        1.781996   -0.831700    0.000018
      4          6           0        3.181481   -0.951494    0.000032
      5          6           0        3.742336   -2.223074   -0.000017
      6          6           0        2.949640   -3.381931   -0.000076
      7          1           0        0.932254   -4.175534   -0.000125
      8          1           0        3.806424   -0.058093    0.000080
      9          1           0        4.829158   -2.320637   -0.000008
     10          1           0        3.422787   -4.364512   -0.000111
     11          7           0        1.032545    0.319826    0.000062
     12         16           0       -0.712020   -1.621762   -0.000023
     13          6           0       -1.314429    1.096355    0.000041
     14          6           0       -2.672500    0.766195    0.000073
     15          6           0       -0.920619    2.521817    0.000005
     16          6           0       -3.662790    1.765223    0.000073
     17          1           0       -2.982814   -0.281091    0.000104
     18          6           0       -1.960072    3.490233   -0.000025
     19          6           0       -3.306897    3.117983    0.000021
     20          1           0       -4.713649    1.472760    0.000101
     21          1           0       -1.655584    4.537995   -0.000085
     22          1           0       -4.082628    3.884786    0.000004
     23          6           0       -0.310139    0.089024    0.000028
     24          8           0        0.310642    2.854596   -0.000118
     25          1           0        1.206941    1.384197    0.000172
 ---------------------------------------------------------------------

 SCF Done:  E(RwB97XD) =  -1028.80419498     A.U. after    1 cycles

 Excitation energies and oscillator strengths:

 Excited state symmetry could not be determined.
 Excited State   1:      Singlet-?Sym    2.9102 eV  426.04 nm  f=0.4418  <S**2>=0.000
      59 -> 60         0.69672
 This state for optimization and/or second-order correction.
 Total Energy, E(TD-HF/TD-DFT) =  -1028.69724826
 Copying the excited state density for this state as the 1-particle RhoCI density.

 Excited state symmetry could not be determined.
 Excited State   2:      Singlet-?Sym    3.7404 eV  331.48 nm  f=0.0000  <S**2>=0.000
      57 -> 60         0.68386
      57 -> 62         0.11632
      57 -> 64         0.11601

 Excited state symmetry could not be determined.
 Excited State   3:      Singlet-?Sym    4.2831 eV  289.47 nm  f=0.3473  <S**2>=0.000
      58 -> 60         0.68238

 Alpha  occ. eigenvalues --  -89.10224 -19.21400 -14.52666 -10.41779 -10.37761
 Alpha  occ. eigenvalues --  -10.36204 -10.35936 -10.33287 -10.32935 -10.32486
 Alpha  occ. eigenvalues --  -10.32342 -10.31582 -10.30970 -10.30963 -10.29338
 Alpha  occ. eigenvalues --  -10.28556  -8.12257  -6.07123  -6.06761  -6.06277
 Alpha  occ. eigenvalues --   -1.12470  -1.08975  -0.98268  -0.95557  -0.93255
 Alpha  occ. eigenvalues --   -0.89085  -0.86694  -0.83656  -0.81480  -0.75871
 Alpha  occ. eigenvalues --   -0.72730  -0.72143  -0.68598  -0.67621  -0.64994
 Alpha  occ. eigenvalues --   -0.61017  -0.59640  -0.56790  -0.55719  -0.55423
 Alpha  occ. eigenvalues --   -0.54971  -0.53915  -0.53055  -0.50416  -0.49091
 Alpha  occ. eigenvalues --   -0.48776  -0.48429  -0.46903  -0.45442  -0.44949
 Alpha  occ. eigenvalues --   -0.44145  -0.43038  -0.42174  -0.40183  -0.36787
 Alpha  occ. eigenvalues --   -0.33551  -0.32068  -0.31364  -0.26137
 Alpha virt. eigenvalues --   -0.02040   0.03814   0.05636   0.06571   0.09123
 Alpha virt. eigenvalues --    0.10684   0.13851   0.14798   0.16314   0.17446
 Alpha virt. eigenvalues --    0.18358   0.20119   0.20591   0.21289   0.22502

 Mulliken charges:
               1
     1  C    0.020298
     2  C   -0.229550
     3  C    0.259463
     4  C   -0.011890
     5  C    0.009902
     6  C    0.001917
     7  H    0.025287
     8  H    0.030359
     9  H    0.026830
    10  H    0.026466
    11  N   -0.175907
    12  S    0.198524
    13  C   -0.085213
    14  C   -0.035101
    15  C    0.114411
    16  C   -0.030769
    17  H    0.013656
    18  C   -0.022785
    19  C    0.032062
    20  H    0.002412
    21  H    0.003355
    22  H    0.015507
    23  C    0.056682
    24  O   -0.416390
    25  H    0.170472
 Sum of Mulliken charges =  -0.00000

 Dipole moment (field-independent basis, Debye):
    X=              1.5920    Y=             -5.5974    Z=              0.0004  Tot=              5.8194
 Quadrupole moment (field-independent basis, Debye-Ang):
   XX=            -82.0154   YY=            -96.1744   ZZ=           -104.2252
   XY=             -6.6256   XZ=              0.0004   YZ=              0.0013

  Exact polarizability:     346.839    -122.922     300.488      -0.003       0.002      63.198
 Approx polarizability:     272.461     -35.333     265.045      -0.002       0.001      82.019

                      1                      2                      3
                      A                      A                      A
 Frequencies --     33.9437                54.5469               113.5940
 Red. masses --      6.6385                 4.6433                 5.7662
 Frc consts  --      0.0045                 0.0081                 0.0438
 IR Inten    --      1.7633                 0.4582                15.7980

                      4                      5                      6
                      A                      A                      A
 Frequencies --    119.7515               184.2381               220.7532
 Red. masses --      5.9500                 5.9420                 5.5476
 Frc consts  --      0.0503                 0.1188                 0.1593
 IR Inten    --      1.0485                 0.0753                 0.1865

                      7                      8                      9
                      A                      A                      A
 Frequencies --    260.8426               270.6969               298.1326
 Red. masses --      8.0614                 4.6143                 6.9730
 Frc consts  --      0.3232                 0.1992                 0.3652
 IR Inten    --      8.5654                 0.1763                 6.8767

                     10                     11                     12
                      A                      A                      A
 Frequencies --    356.9635               399.0581               435.2392
 Red. masses --      4.9092                 8.8686                 3.3888
 Frc consts  --      0.3686                 0.8321                 0.3782
 IR Inten    --      0.9837                 5.1949                 2.8788

                     13                     14                     15
                      A                      A                      A
 Frequencies --    458.7287               506.8961               509.0435
 Red. masses --      4.4524                 8.8243                 3.2036
 Frc consts  --      0.5520                 1.3359                 0.4891
 IR Inten    --      2.8360                 9.8122                 0.3798

                     16                     17                     18
                      A                      A                      A
 Frequencies --    543.7244               552.0779               558.9622
 Red. masses --      8.6770                 6.1170                 3.8655
 Frc consts  --      1.5114                 1.0985                 0.7116
 IR Inten    --      4.7724                52.6663                 0.4389

                     19                     20                     21
                      A                      A                      A
 Frequencies --    569.0956               624.0293               696.6281
 Red. masses --      7.1743                 5.8164                 1.5301
 Frc consts  --      1.3690                 1.3345                 0.4375
 IR Inten    --     11.7223                72.7981                40.4921

                     22                     23                     24
                      A                      A                      A
 Frequencies --    716.1490               720.8351               743.2789
 Red. masses --      8.2057                 5.9678                 2.6872
 Frc consts  --      2.4795                 1.8270                 0.8747
 IR Inten    --      3.7377                 2.4536                14.7069

                     25                     26                     27
                      A                      A                      A
 Frequencies --    759.7156               767.0623               825.5341
 Red. masses --      1.7018                 1.6496                 6.3507
 Frc consts  --      0.5787                 0.5719                 2.5500
 IR Inten    --      3.5474                86.5303                15.4939

                     28                     29                     30
                      A                      A                      A
 Frequencies --    829.2836               849.2821               870.0505
 Red. masses --      1.8692                 3.9508                 1.3777
 Frc consts  --      0.7574                 1.6790                 0.6145
 IR Inten    --      0.2587                18.7995                 1.0027

                     31                     32                     33
                      A                      A                      A
 Frequencies --    902.1834               952.6470               955.2885
 Red. masses --      1.4225                 1.3625                 5.4497
 Frc consts  --      0.6822                 0.7285                 2.9302
 IR Inten    --      6.0208                 0.0000                 4.6904

                     34                     35                     36
                      A                      A                      A
 Frequencies --    958.2264               991.5108              1004.1416
 Red. masses --      1.3505                 1.0705                 1.2957
 Frc consts  --      0.7306                 0.6201                 0.7697
 IR Inten    --      3.4710                73.5757                 0.7626

                     37                     38                     39
                      A                      A                      A
 Frequencies --   1051.6993              1053.8767              1088.0328
 Red. masses --      2.1213                 2.0523                 4.0401
 Frc consts  --      1.3824                 1.3430                 2.8179
 IR Inten    --      0.5037                12.5877                 5.0304

                     40                     41                     42
                      A                      A                      A
 Frequencies --   1123.3522              1155.1165              1167.1138
 Red. masses --      1.5327                 1.3778                 1.2458
 Frc consts  --      1.1396                 1.0831                 0.9998
 IR Inten    --     24.6255                35.3127                75.7527

                     43                     44                     45
                      A                      A                      A
 Frequencies --   1175.7942              1205.1864              1261.5133
 Red. masses --      1.1583                 1.7021                 1.8275
 Frc consts  --      0.9435                 1.4566                 1.7135
 IR Inten    --     45.0474               109.1503                84.6447

                     46                     47                     48
                      A                      A                      A
 Frequencies --   1265.1369              1307.1577              1344.4211
 Red. masses --      2.4900                 1.9638                 5.2352
 Frc consts  --      2.3481                 1.9769                 5.5751
 IR Inten    --     25.4534                 9.6936                 7.3610

                     49                     50                     51
                      A                      A                      A
 Frequencies --   1357.6691              1392.2185              1402.7557
 Red. masses --      6.7756                 3.0561                 2.1892
 Frc consts  --      7.3584                 3.4901                 2.5381
 IR Inten    --    182.2998                59.5890                 5.2808

                     52                     53                     54
                      A                      A                      A
 Frequencies --   1438.3813              1482.1097              1495.8963
 Red. masses --      2.8417                 2.8789                 3.2232
 Frc consts  --      3.4640                 3.7259                 4.2495
 IR Inten    --    353.1691                 4.6390                44.6838

                     55                     56                     57
                      A                      A                      A
 Frequencies --   1525.9706              1552.8112              1572.3782
 Red. masses --      3.7045                 5.6193                 4.0682
 Frc consts  --      5.0825                 7.9830                 5.9260
 IR Inten    --     66.7821               171.4632                75.8429

                     58                     59                     60
                      A                      A                      A
 Frequencies --   1617.0523              1635.1690              1663.6107
 Red. masses --      5.9589                 6.2161                 6.6998
 Frc consts  --      9.1804                 9.7925                10.9249
 IR Inten    --    254.9579                89.7877               107.5838

                     61                     62                     63
                      A                      A                      A
 Frequencies --   2774.5425              3201.1192              3210.5311
 Red. masses --      1.0936                 1.0877                 1.0861
 Frc consts  --      4.9601                 6.5668                 6.5959
 IR Inten    --    994.7703                27.7426                 3.4508

                     64                     65                     66
                      A                      A                      A
 Frequencies --   3214.1344              3220.1486              3225.7447
 Red. masses --      1.0870                 1.0903                 1.0928
 Frc consts  --      6.6160                 6.6612                 6.6996
 IR Inten    --      5.0253                 3.3340                15.4485

                     67                     68                     69
                      A                      A                      A
 Frequencies --   3230.2543              3236.9982              3237.2325
 Red. masses --      1.0956                 1.0991                 1.0993
 Frc consts  --      6.7358                 6.7855                 6.7874
 IR Inten    --      7.3065                37.4568                 0.6090

 - Thermochemistry -
 -------------------
 Temperature   298.150 Kelvin.  Pressure   1.00000 Atm.
 Atom     1 has atomic number  6 and mass  12.00000

 Molecular mass:   227.04049 amu.
 Principal axes and moments of inertia in atomic units:
                           1         2         3
     Eigenvalues --  1292.990236403.097427696.08764
           X           -0.70087   0.71329   0.00001
           Y            0.71329   0.70087  -0.00000
           Z            0.00001  -0.00001   1.00000
 This molecule is an asymmetric top.
 Rotational symmetry number  1.
 Warning -- assumption of classical behavior for rotation
           may cause significant error
 Rotational temperatures (Kelvin)      0.06699     0.01353     0.01125
 Rotational constants (GHZ):           1.39579     0.28185     0.23450
 Zero-point vibrational energy     487461.9 (Joules/Mol)
                                  116.50619 (Kcal/Mol)
 Warning -- explicit consideration of  19 degrees of freedom as
           vibrations may cause significant error
 Vibrational temperatures:     48.84    78.48   163.44   172.30   265.08
          (Kelvin)            317.61   375.29   389.47   428.95   513.59
                              574.16   626.21   660.01   729.31   732.40
                              782.30   794.32   804.22   818.80   897.84
                             1002.29  1030.38  1037.12  1069.41  1093.06
                             1103.63  1187.76  1193.15  1221.93  1251.81
                             1298.04  1370.65  1374.45  1378.67  1426.56
                             1444.74  1513.16  1516.29  1565.44  1616.25
                             1661.95  1679.22  1691.71  1733.99  1815.04
                             1820.25  1880.71  1934.32  1953.38  2003.09
                             2018.25  2069.51  2132.43  2152.26  2195.53
                             2234.15  2262.30  2326.58  2352.64  2393.56
                             3991.95  4605.70  4619.24  4624.42  4633.08
                             4641.13  4647.62  4657.32  4657.66

 Zero-point correction=                           0.185664 (Hartree/Particle)
 Thermal correction to Energy=                    0.198006
 Thermal correction to Enthalpy=                  0.198950
 Thermal correction to Gibbs Free Energy=         0.146039
 Sum of electronic and zero-point Energies=          -1028.511584
 Sum of electronic and thermal Energies=             -1028.499242
 Sum of electronic and thermal Enthalpies=           -1028.498298
 Sum of electronic and thermal Free Energies=        -1028.551210

                     E (Thermal)             CV                S
                      KCal/Mol        Cal/Mol-Kelvin    Cal/Mol-Kelvin
 Total                  124.251             49.402            111.363
 Electronic               0.000              0.000              0.000
 Translational            0.889              2.981             42.162
 Rotational               0.889              2.981             32.521
 Vibrational            122.473             43.440             36.679
 Vibration     1          0.594              1.983              5.584
 Vibration     2          0.596              1.976              4.645
 Vibration     3          0.607              1.938              3.207
 Vibration     4          0.609              1.933              3.104
 Vibration     5          0.631              1.861              2.285
 Vibration     6          0.647              1.809              1.953
 Vibration     7          0.669              1.744              1.656
 Vibration     8          0.674              1.727              1.592
 Vibration     9          0.691              1.677              1.427
 Vibration    10          0.732              1.561              1.135
 Vibration    11          0.765              1.472              0.966
 Vibration    12          0.796              1.393              0.842
 Vibration    13          0.817              1.342              0.770
 Vibration    14          0.862              1.235              0.641
 Vibration    15          0.864              1.230              0.636
 Vibration    16          0.899              1.153              0.557
 Vibration    17          0.907              1.135              0.540
 Vibration    18          0.915              1.120              0.526
 Vibration    19          0.925              1.098              0.506

 Optimization completed.
    -- Stationary point found.
 Normal termination of Gaussian 16 at Tue Jul 14 11:15:55 2020.
