 Gaussian 16, Revision C.01,
 Gaussian 16:  ES64L-G16RevC.01  3-Jul-2019

 ----------------------------------------------------------------------
 #p opt=addgic freq td wb97xd/cc-pvdz nosymm int=ultrafine scrf=(solven
 t=CarbonTetraChloride)
 ----------------------------------------------------------------------

 ------------------------------------------------
 NM 2D-scan of HBT TD-WB97XD pVDZ in CTC Relaxed.
 ------------------------------------------------
 Symbolic Z-matrix:
 Charge =  0 Multiplicity = 1

 SCF Done:  E(RwB97XD) =  -1028.77243691     A.U. after   16 cycles
 Total Energy, E(TD-HF/TD-DFT) =  -1028.66480511
 SCF Done:  E(RwB97XD) =  -1028.79805942     A.U. after   13 cycles
 Total Energy, E(TD-HF/TD-DFT) =  -1028.69585507
 SCF Done:  E(RwB97XD) =  -1028.80378587     A.U. after   13 cycles
 Total Energy, E(TD-HF/TD-DFT) =  -1028.69885529
 SCF Done:  E(RwB97XD) =  -1028.80340178     A.U. after   12 cycles
 Total Energy, E(TD-HF/TD-DFT) =  -1028.69944374
 SCF Done:  E(RwB97XD) =  -1028.80354318     A.U. after   10 cycles
 Total Energy, E(TD-HF/TD-DFT) =  -1028.69947095
 Optimization completed.
    -- Stationary point found.
 Normal termination of Gaussian 16 at Mon Jul 13 17:10:18 2020.

 ----------------------------------------------------------------------
 #P Geom=AllCheck Guess=TCheck SCRF=Check GenChk RwB97XD TD(FC,Read)/CC
 -pVDZ Freq
 ----------------------------------------------------------------------

 Structure from the checkpoint file:  "config_10_9.chk"
 ------------------------------------------------
 NM 2D-scan of HBT TD-WB97XD pVDZ in CTC Relaxed.
 ------------------------------------------------
 Charge =  0 Multiplicity = 1

                          Input orientation:
 ---------------------------------------------------------------------
 Center     Atomic      Atomic             Coordinates (Angstroms)
 Number     Number       Type             X           Y           Z
 ---------------------------------------------------------------------
      1          6           0        1.668699   -3.289811   -0.000002
      2          6           0        1.012669   -2.063040   -0.000009
      3          6           0        1.742813   -0.862957   -0.000029
      4          6           0        3.144263   -0.866363   -0.000040
      5          6           0        3.789356   -2.096279   -0.000032
      6          6           0        3.064820   -3.295849   -0.000014
      7          1           0        1.107467   -4.224594    0.000014
      8          1           0        3.698644    0.072451   -0.000054
      9          1           0        4.879992   -2.126290   -0.000040
     10          1           0        3.595379   -4.248557   -0.000008
     11          7           0        0.924726    0.221959   -0.000038
     12         16           0       -0.724310   -1.722357    0.000006
     13          6           0       -1.384975    1.073264    0.000005
     14          6           0       -2.754597    0.851549   -0.000017
     15          6           0       -0.887305    2.474361    0.000049
     16          6           0       -3.686963    1.926506    0.000013
     17          1           0       -3.139619   -0.171464   -0.000060
     18          6           0       -1.872949    3.512413    0.000073
     19          6           0       -3.247951    3.246331    0.000059
     20          1           0       -4.753565    1.697187   -0.000002
     21          1           0       -1.491732    4.535240    0.000111
     22          1           0       -3.967774    4.066057    0.000082
     23          6           0       -0.419111    0.005439   -0.000014
     24          8           0        0.346866    2.723238    0.000061
     25          1           0        1.240974    1.191317   -0.000030
 ---------------------------------------------------------------------

 SCF Done:  E(RwB97XD) =  -1028.80354318     A.U. after    1 cycles

 Excitation energies and oscillator strengths:

 Excited state symmetry could not be determined.
 Excited State   1:      Singlet-?Sym    2.8319 eV  437.81 nm  f=0.4377  <S**2>=0.000
      59 -> 60         0.69670
 This state for optimization and/or second-order correction.
 Total Energy, E(TD-HF/TD-DFT) =  -1028.69947096
 Copying the excited state density for this state as the 1-particle RhoCI density.

 Excited state symmetry could not be determined.
 Excited State   2:      Singlet-?Sym    3.5679 eV  347.50 nm  f=0.0000  <S**2>=0.000
      58 -> 60         0.68350
      58 -> 62         0.11733
      58 -> 64         0.11258

 Excited state symmetry could not be determined.
 Excited State   3:      Singlet-?Sym    4.3221 eV  286.86 nm  f=0.4437  <S**2>=0.000
      57 -> 60         0.68145

 Alpha  occ. eigenvalues --  -89.10644 -19.20853 -14.52412 -10.42289 -10.37400
 Alpha  occ. eigenvalues --  -10.36312 -10.35767 -10.33523 -10.33103 -10.32704
 Alpha  occ. eigenvalues --  -10.32480 -10.31467 -10.31139 -10.30668 -10.29126
 Alpha  occ. eigenvalues --  -10.28248  -8.12612  -6.07492  -6.07113  -6.06631
 Alpha  occ. eigenvalues --   -1.13173  -1.09310  -0.98487  -0.95290  -0.93260
 Alpha  occ. eigenvalues --   -0.89155  -0.86670  -0.84023  -0.80978  -0.76006
 Alpha  occ. eigenvalues --   -0.73586  -0.72000  -0.69051  -0.67585  -0.65041
 Alpha  occ. eigenvalues --   -0.61015  -0.59771  -0.56607  -0.56077  -0.55776
 Alpha  occ. eigenvalues --   -0.55027  -0.53696  -0.53095  -0.50686  -0.48914
 Alpha  occ. eigenvalues --   -0.48742  -0.48352  -0.46993  -0.45531  -0.44832
 Alpha  occ. eigenvalues --   -0.44282  -0.42915  -0.42156  -0.40106  -0.36883
 Alpha  occ. eigenvalues --   -0.33731  -0.31496  -0.31432  -0.25709
 Alpha virt. eigenvalues --   -0.02129   0.03643   0.05814   0.06407   0.09421
 Alpha virt. eigenvalues --    0.10735   0.12867   0.14571   0.16112   0.17131
 Alpha virt. eigenvalues --    0.18547   0.19977   0.20906   0.21309   0.22914

 Mulliken charges:
               1
     1  C    0.015629
     2  C   -0.245770
     3  C    0.250498
     4  C   -0.009835
     5  C    0.013467
     6  C    0.001349
     7  H    0.026343
     8  H    0.032558
     9  H    0.028335
    10  H    0.027310
    11  N   -0.110182
    12  S    0.200571
    13  C   -0.096607
    14  C   -0.028626
    15  C    0.114349
    16  C   -0.037536
    17  H    0.004296
    18  C   -0.034874
    19  C    0.033867
    20  H    0.001720
    21  H    0.000332
    22  H    0.014076
    23  C    0.066956
    24  O   -0.400792
    25  H    0.132566
 Sum of Mulliken charges =  -0.00000

 Dipole moment (field-independent basis, Debye):
    X=              2.0799    Y=             -5.7949    Z=             -0.0001  Tot=              6.1568
 Quadrupole moment (field-independent basis, Debye-Ang):
   XX=            -82.0752   YY=            -95.8795   ZZ=           -104.2098
   XY=             -6.4561   XZ=             -0.0002   YZ=             -0.0002

  Exact polarizability:     348.541    -121.624     296.630      -0.002       0.002      63.282
 Approx polarizability:     274.626     -38.129     265.470      -0.001       0.002      82.047

 ******    1 imaginary frequencies (negative Signs) ******

                      1                      2                      3
                      A                      A                      A
 Frequencies --    -58.3652                44.6580               108.4198
 Red. masses --      6.1202                 6.4825                 5.1190
 Frc consts  --      0.0123                 0.0076                 0.0355
 IR Inten    --      1.6408                 1.6737                 0.3003

                      4                      5                      6
                      A                      A                      A
 Frequencies --    113.6557               176.4756               225.8374
 Red. masses --      5.7410                 5.3447                 5.4686
 Frc consts  --      0.0437                 0.0981                 0.1643
 IR Inten    --      7.7766                 0.0580                 0.3176

                      7                      8                      9
                      A                      A                      A
 Frequencies --    265.6505               271.9823               309.9123
 Red. masses --      7.6822                 4.5911                 7.6989
 Frc consts  --      0.3194                 0.2001                 0.4357
 IR Inten    --      1.3546                 0.9461                 3.6057

                     10                     11                     12
                      A                      A                      A
 Frequencies --    349.2735               382.7376               430.3696
 Red. masses --      4.7084                 8.1594                 3.4711
 Frc consts  --      0.3384                 0.7042                 0.3788
 IR Inten    --      0.9690                 6.7526                 3.7374

                     13                     14                     15
                      A                      A                      A
 Frequencies --    450.4266               501.5778               510.8923
 Red. masses --      4.5125                 8.3751                 3.2071
 Frc consts  --      0.5394                 1.2414                 0.4932
 IR Inten    --      3.3994                10.0797                 0.4467

                     16                     17                     18
                      A                      A                      A
 Frequencies --    540.4593               556.4368               557.1232
 Red. masses --      8.7112                 6.7508                 3.8069
 Frc consts  --      1.4992                 1.2315                 0.6962
 IR Inten    --     10.2387                37.5771                 1.0916

                     19                     20                     21
                      A                      A                      A
 Frequencies --    567.9662               638.5694               688.8426
 Red. masses --      7.2954                 6.1632                 1.5427
 Frc consts  --      1.3866                 1.4807                 0.4313
 IR Inten    --     11.5378                42.9063                43.1699

                     22                     23                     24
                      A                      A                      A
 Frequencies --    706.5690               731.4151               742.8987
 Red. masses --      6.1792                 8.0687                 2.3758
 Frc consts  --      1.8176                 2.5432                 0.7725
 IR Inten    --      1.9630                 3.9322                10.3475

                     25                     26                     27
                      A                      A                      A
 Frequencies --    759.2015               765.8106               783.3911
 Red. masses --      1.6255                 1.5938                 1.2048
 Frc consts  --      0.5520                 0.5507                 0.4356
 IR Inten    --      2.9961                23.3520               129.8078

                     28                     29                     30
                      A                      A                      A
 Frequencies --    816.3333               839.9144               866.6744
 Red. masses --      6.3863                 1.8242                 1.3809
 Frc consts  --      2.5075                 0.7582                 0.6111
 IR Inten    --     18.2415                 1.4143                 2.1866

                     31                     32                     33
                      A                      A                      A
 Frequencies --    885.6756               904.4349               953.3538
 Red. masses --      4.9005                 1.4286                 1.3623
 Frc consts  --      2.2648                 0.6885                 0.7295
 IR Inten    --      2.1403                 8.9609                 0.8219

                     34                     35                     36
                      A                      A                      A
 Frequencies --    957.9717               959.2684              1004.5189
 Red. masses --      1.3492                 5.2618                 1.2950
 Frc consts  --      0.7295                 2.8527                 0.7699
 IR Inten    --      1.6703                 0.7663                 0.0095

                     37                     38                     39
                      A                      A                      A
 Frequencies --   1046.8835              1052.9555              1083.9267
 Red. masses --      2.1973                 2.1247                 4.1760
 Frc consts  --      1.4189                 1.3879                 2.8907
 IR Inten    --      0.3281                 8.0895                 1.2854

                     40                     41                     42
                      A                      A                      A
 Frequencies --   1106.9819              1151.5383              1159.7174
 Red. masses --      1.6054                 1.3190                 1.1917
 Frc consts  --      1.1591                 1.0305                 0.9443
 IR Inten    --     38.0117                 7.1300                68.0431

                     43                     44                     45
                      A                      A                      A
 Frequencies --   1180.6406              1207.4500              1250.2608
 Red. masses --      1.1443                 1.7052                 2.2248
 Frc consts  --      0.9398                 1.4647                 2.0490
 IR Inten    --     32.2430                75.6143                29.5562

                     46                     47                     48
                      A                      A                      A
 Frequencies --   1277.4148              1297.0758              1338.9154
 Red. masses --      1.9363                 1.7973                 5.1050
 Frc consts  --      1.8616                 1.7816                 5.3920
 IR Inten    --     96.8086                 1.9754                17.8226

                     49                     50                     51
                      A                      A                      A
 Frequencies --   1368.6006              1396.9756              1398.7994
 Red. masses --      3.3921                 2.3656                 3.5235
 Frc consts  --      3.7435                 2.7200                 4.0620
 IR Inten    --    104.5409                21.8433                28.0390

                     52                     53                     54
                      A                      A                      A
 Frequencies --   1440.3327              1477.7387              1512.0393
 Red. masses --      3.0278                 2.9431                 2.9999
 Frc consts  --      3.7009                 3.7866                 4.0410
 IR Inten    --    231.1513                 2.8660                33.0812

                     55                     56                     57
                      A                      A                      A
 Frequencies --   1527.1204              1562.9915              1590.4871
 Red. masses --      3.9163                 5.1798                 4.9395
 Frc consts  --      5.3812                 7.4555                 7.3619
 IR Inten    --     51.6907               200.1042               104.1968

                     58                     59                     60
                      A                      A                      A
 Frequencies --   1626.8840              1658.6933              1670.9378
 Red. masses --      7.0163                 6.6929                 6.8828
 Frc consts  --     10.9413                10.8491                11.3224
 IR Inten    --    161.6609                 7.8799               173.9935

                     61                     62                     63
                      A                      A                      A
 Frequencies --   3191.1142              3209.4529              3213.7044
 Red. masses --      1.0889                 1.0863                 1.0863
 Frc consts  --      6.5331                 6.5925                 6.6104
 IR Inten    --     22.4160                 2.2650                 5.1114

                     64                     65                     66
                      A                      A                      A
 Frequencies --   3220.9761              3224.5272              3233.8284
 Red. masses --      1.0918                 1.0903                 1.0989
 Frc consts  --      6.6740                 6.6795                 6.7708
 IR Inten    --     14.0309                 3.1403                26.7828

                     67                     68                     69
                      A                      A                      A
 Frequencies --   3234.0094              3240.9857              3478.8567
 Red. masses --      1.0959                 1.0996                 1.0830
 Frc consts  --      6.7530                 6.8051                 7.7226
 IR Inten    --      8.2116                12.7955               668.9237

 - Thermochemistry -
 -------------------
 Temperature   298.150 Kelvin.  Pressure   1.00000 Atm.
 Atom     1 has atomic number  6 and mass  12.00000

 Molecular mass:   227.04049 amu.
 Principal axes and moments of inertia in atomic units:
                           1         2         3
     Eigenvalues --  1296.575526459.841337756.41685
           X           -0.70335   0.71084   0.00000
           Y            0.71084   0.70335  -0.00001
           Z            0.00001   0.00001   1.00000
 This molecule is an asymmetric top.
 Rotational symmetry number  1.
 Warning -- assumption of classical behavior for rotation
           may cause significant error
 Rotational temperatures (Kelvin)      0.06680     0.01341     0.01117
 Rotational constants (GHZ):           1.39193     0.27938     0.23268
    1 imaginary frequencies ignored.
 Zero-point vibrational energy     490478.0 (Joules/Mol)
                                  117.22705 (Kcal/Mol)
 Warning -- explicit consideration of  18 degrees of freedom as
           vibrations may cause significant error
 Vibrational temperatures:     64.25   155.99   163.53   253.91   324.93
          (Kelvin)            382.21   391.32   445.89   502.53   550.67
                              619.21   648.06   721.66   735.06   777.60
                              800.59   801.58   817.18   918.76   991.09
                             1016.60  1052.34  1068.87  1092.32  1101.83
                             1127.13  1174.52  1208.45  1246.95  1274.29
                             1301.28  1371.66  1378.31  1380.17  1445.28
                             1506.23  1514.97  1559.53  1592.70  1656.81
                             1668.57  1698.68  1737.25  1798.85  1837.91
                             1866.20  1926.40  1969.11  2009.94  2012.56
                             2072.32  2126.14  2175.49  2197.19  2248.80
                             2288.36  2340.72  2386.49  2404.11  4591.30
                             4617.69  4623.80  4634.27  4639.38  4652.76
                             4653.02  4663.06  5005.30

 Zero-point correction=                           0.186813 (Hartree/Particle)
 Thermal correction to Energy=                    0.198385
 Thermal correction to Enthalpy=                  0.199329
 Thermal correction to Gibbs Free Energy=         0.148698
 Sum of electronic and zero-point Energies=          -1028.512658
 Sum of electronic and thermal Energies=             -1028.501086
 Sum of electronic and thermal Enthalpies=           -1028.500142
 Sum of electronic and thermal Free Energies=        -1028.550773

                     E (Thermal)             CV                S
                      KCal/Mol        Cal/Mol-Kelvin    Cal/Mol-Kelvin
 Total                  124.488             47.725            106.562
 Electronic               0.000              0.000              0.000
 Translational            0.889              2.981             42.162
 Rotational               0.889              2.981             32.541
 Vibrational            122.711             41.763             31.859
 Vibration     1          0.595              1.980              5.041
 Vibration     2          0.606              1.942              3.297
 Vibration     3          0.607              1.938              3.206
 Vibration     4          0.628              1.871              2.365
 Vibration     5          0.650              1.802              1.912
 Vibration     6          0.671              1.736              1.624
 Vibration     7          0.675              1.725              1.584
 Vibration     8          0.699              1.655              1.363
 Vibration     9          0.727              1.577              1.169
 Vibration    10          0.752              1.507              1.028
 Vibration    11          0.792              1.404              0.857
 Vibration    12          0.809              1.360              0.794
 Vibration    13          0.857              1.247              0.654
 Vibration    14          0.866              1.226              0.631
 Vibration    15          0.896              1.161              0.564
 Vibration    16          0.912              1.126              0.531
 Vibration    17          0.913              1.124              0.530
 Vibration    18          0.924              1.101              0.508

 Optimization completed.
    -- Stationary point found.
 Normal termination of Gaussian 16 at Mon Jul 13 17:28:01 2020.
