 Gaussian 16, Revision C.01,
 Gaussian 16:  ES64L-G16RevC.01  3-Jul-2019

 ----------------------------------------------------------------------
 #p opt=addgic freq td wb97xd/cc-pvdz nosymm int=ultrafine scrf=(solven
 t=CarbonTetraChloride)
 ----------------------------------------------------------------------

 ------------------------------------------------
 NM 2D-scan of HBT TD-WB97XD pVDZ in CTC Relaxed.
 ------------------------------------------------
 Symbolic Z-matrix:
 Charge =  0 Multiplicity = 1

 SCF Done:  E(RwB97XD) =  -1028.80459488     A.U. after   15 cycles
 Total Energy, E(TD-HF/TD-DFT) =  -1028.69262589
 SCF Done:  E(RwB97XD) =  -1028.79890278     A.U. after   14 cycles
 Total Energy, E(TD-HF/TD-DFT) =  -1028.69487028
 SCF Done:  E(RwB97XD) =  -1028.80565421     A.U. after   13 cycles
 Total Energy, E(TD-HF/TD-DFT) =  -1028.69807094
 SCF Done:  E(RwB97XD) =  -1028.80622651     A.U. after   11 cycles
 Total Energy, E(TD-HF/TD-DFT) =  -1028.69812843
 SCF Done:  E(RwB97XD) =  -1028.80626700     A.U. after    9 cycles
 Total Energy, E(TD-HF/TD-DFT) =  -1028.69813100
 SCF Done:  E(RwB97XD) =  -1028.80627390     A.U. after    9 cycles
 Total Energy, E(TD-HF/TD-DFT) =  -1028.69813103
 Optimization completed.
    -- Stationary point found.
 Normal termination of Gaussian 16 at Mon Jul 13 15:52:56 2020.

 ----------------------------------------------------------------------
 #P Geom=AllCheck Guess=TCheck SCRF=Check GenChk RwB97XD TD(FC,Read)/CC
 -pVDZ Freq
 ----------------------------------------------------------------------

 Structure from the checkpoint file:  "config_8_13.chk"
 ------------------------------------------------
 NM 2D-scan of HBT TD-WB97XD pVDZ in CTC Relaxed.
 ------------------------------------------------
 Charge =  0 Multiplicity = 1

                          Input orientation:
 ---------------------------------------------------------------------
 Center     Atomic      Atomic             Coordinates (Angstroms)
 Number     Number       Type             X           Y           Z
 ---------------------------------------------------------------------
      1          6           0        1.601063   -3.283496    0.000344
      2          6           0        0.993114   -2.030173    0.000127
      3          6           0        1.757329   -0.831550   -0.000193
      4          6           0        3.159450   -0.908385   -0.000343
      5          6           0        3.756558   -2.161663   -0.000113
      6          6           0        2.993508   -3.340415    0.000234
      7          1           0        1.001695   -4.194718    0.000571
      8          1           0        3.754796    0.005020   -0.000621
      9          1           0        4.845587   -2.230221   -0.000216
     10          1           0        3.493146   -4.309853    0.000392
     11          7           0        0.989673    0.301096   -0.000393
     12         16           0       -0.722758   -1.669409    0.000080
     13          6           0       -1.336668    1.077030   -0.000110
     14          6           0       -2.704845    0.792025   -0.000266
     15          6           0       -0.903667    2.494476    0.000218
     16          6           0       -3.661482    1.824362   -0.000209
     17          1           0       -3.047248   -0.245413   -0.000487
     18          6           0       -1.909963    3.495800    0.000389
     19          6           0       -3.266599    3.167148    0.000113
     20          1           0       -4.721161    1.565287   -0.000371
     21          1           0       -1.569048    4.532174    0.000772
     22          1           0       -4.018977    3.956712    0.000226
     23          6           0       -0.348466    0.052898   -0.000158
     24          8           0        0.335411    2.801575    0.000939
     25          1           0        1.144246    1.378870   -0.000829
 ---------------------------------------------------------------------

 SCF Done:  E(RwB97XD) =  -1028.80627390     A.U. after    1 cycles

 Excitation energies and oscillator strengths:

 Excited state symmetry could not be determined.
 Excited State   1:      Singlet-?Sym    2.9427 eV  421.33 nm  f=0.4429  <S**2>=0.000
      59 -> 60         0.69632
 This state for optimization and/or second-order correction.
 Total Energy, E(TD-HF/TD-DFT) =  -1028.69813103
 Copying the excited state density for this state as the 1-particle RhoCI density.

 Excited state symmetry could not be determined.
 Excited State   2:      Singlet-?Sym    3.8321 eV  323.54 nm  f=0.0000  <S**2>=0.000
      57 -> 60         0.68412
      57 -> 62         0.11570
      57 -> 64         0.11702

 Excited state symmetry could not be determined.
 Excited State   3:      Singlet-?Sym    4.3043 eV  288.05 nm  f=0.3686  <S**2>=0.000
      58 -> 60         0.68094

 Alpha  occ. eigenvalues --  -89.10308 -19.21681 -14.52212 -10.41732 -10.37546
 Alpha  occ. eigenvalues --  -10.36200 -10.36086 -10.33278 -10.32813 -10.32428
 Alpha  occ. eigenvalues --  -10.32298 -10.31629 -10.31096 -10.30990 -10.29366
 Alpha  occ. eigenvalues --  -10.28597  -8.12305  -6.07174  -6.06813  -6.06327
 Alpha  occ. eigenvalues --   -1.12479  -1.09244  -0.98163  -0.95413  -0.93199
 Alpha  occ. eigenvalues --   -0.89091  -0.86548  -0.83723  -0.81508  -0.75898
 Alpha  occ. eigenvalues --   -0.72500  -0.72042  -0.68591  -0.67649  -0.64840
 Alpha  occ. eigenvalues --   -0.60986  -0.59616  -0.56828  -0.55637  -0.55322
 Alpha  occ. eigenvalues --   -0.54900  -0.53819  -0.53050  -0.50565  -0.49257
 Alpha  occ. eigenvalues --   -0.48826  -0.48319  -0.46845  -0.45391  -0.44968
 Alpha  occ. eigenvalues --   -0.44195  -0.43086  -0.42101  -0.40300  -0.36769
 Alpha  occ. eigenvalues --   -0.33483  -0.32381  -0.31360  -0.26246
 Alpha virt. eigenvalues --   -0.02017   0.03864   0.05789   0.06468   0.09026
 Alpha virt. eigenvalues --    0.10640   0.13657   0.14753   0.16265   0.17442
 Alpha virt. eigenvalues --    0.18588   0.20241   0.20778   0.21373   0.22746

 Mulliken charges:
               1
     1  C    0.018483
     2  C   -0.232308
     3  C    0.263491
     4  C   -0.011628
     5  C    0.010735
     6  C    0.000768
     7  H    0.025271
     8  H    0.030249
     9  H    0.026509
    10  H    0.026195
    11  N   -0.180517
    12  S    0.198220
    13  C   -0.095233
    14  C   -0.030817
    15  C    0.119073
    16  C   -0.031504
    17  H    0.010587
    18  C   -0.019327
    19  C    0.031756
    20  H    0.002807
    21  H    0.003861
    22  H    0.015698
    23  C    0.057543
    24  O   -0.417306
    25  H    0.177395
 Sum of Mulliken charges =   0.00000

 Dipole moment (field-independent basis, Debye):
    X=              1.4642    Y=             -5.3814    Z=             -0.0026  Tot=              5.5770
 Quadrupole moment (field-independent basis, Debye-Ang):
   XX=            -82.2922   YY=            -95.4272   ZZ=           -104.2431
   XY=             -6.7465   XZ=             -0.0030   YZ=             -0.0074

  Exact polarizability:     347.936    -124.154     301.775       0.003      -0.000      63.229
 Approx polarizability:     272.848     -35.517     265.299       0.003       0.004      82.067

                      1                      2                      3
                      A                      A                      A
 Frequencies --     33.5196                58.5979               111.5872
 Red. masses --      6.3197                 5.0956                 5.7115
 Frc consts  --      0.0042                 0.0103                 0.0419
 IR Inten    --      1.6151                 0.7667                17.2730

                      4                      5                      6
                      A                      A                      A
 Frequencies --    116.8015               182.4825               219.7652
 Red. masses --      5.7856                 5.8979                 5.4824
 Frc consts  --      0.0465                 0.1157                 0.1560
 IR Inten    --      0.6637                 0.1115                 0.1802

                      7                      8                      9
                      A                      A                      A
 Frequencies --    261.7438               270.1317               305.0919
 Red. masses --      7.8195                 4.6361                 6.7792
 Frc consts  --      0.3156                 0.1993                 0.3718
 IR Inten    --      8.6049                 0.2028                14.6061

                     10                     11                     12
                      A                      A                      A
 Frequencies --    358.3810               398.4423               435.4127
 Red. masses --      4.9533                 9.1985                 3.3376
 Frc consts  --      0.3748                 0.8604                 0.3728
 IR Inten    --      0.9120                 4.6171                 3.5172

                     13                     14                     15
                      A                      A                      A
 Frequencies --    460.3862               506.0052               507.3575
 Red. masses --      4.5814                 8.8479                 3.1968
 Frc consts  --      0.5721                 1.3347                 0.4848
 IR Inten    --      2.2854                 9.3386                 0.4519

                     16                     17                     18
                      A                      A                      A
 Frequencies --    542.8814               554.8001               558.3301
 Red. masses --      8.6753                 5.9533                 3.8625
 Frc consts  --      1.5064                 1.0797                 0.7094
 IR Inten    --      3.3685                60.7905                 0.4690

                     19                     20                     21
                      A                      A                      A
 Frequencies --    569.4375               622.4561               695.2793
 Red. masses --      7.2662                 5.6061                 1.5527
 Frc consts  --      1.3882                 1.2798                 0.4422
 IR Inten    --     16.4804                99.5835                39.1532

                     22                     23                     24
                      A                      A                      A
 Frequencies --    711.3675               717.5157               743.0301
 Red. masses --      8.1493                 5.9857                 2.7012
 Frc consts  --      2.4297                 1.8156                 0.8787
 IR Inten    --      2.9983                 3.6555                13.6794

                     25                     26                     27
                      A                      A                      A
 Frequencies --    761.7015               767.6569               822.1728
 Red. masses --      1.7228                 1.6573                 6.2302
 Frc consts  --      0.5889                 0.5754                 2.4813
 IR Inten    --      2.3871                89.2769                12.0655

                     28                     29                     30
                      A                      A                      A
 Frequencies --    830.9183               846.8307               868.8771
 Red. masses --      1.7880                 3.7183                 1.3812
 Frc consts  --      0.7273                 1.5710                 0.6143
 IR Inten    --      0.0936                36.8415                 0.9216

                     31                     32                     33
                      A                      A                      A
 Frequencies --    903.3902               952.1312               953.6207
 Red. masses --      1.4140                 5.3957                 1.3662
 Frc consts  --      0.6799                 2.8820                 0.7320
 IR Inten    --      6.0943                 8.8628                 0.1898

                     34                     35                     36
                      A                      A                      A
 Frequencies --    957.5321              1004.0885              1032.7518
 Red. masses --      1.3509                 1.2969                 1.0640
 Frc consts  --      0.7298                 0.7704                 0.6686
 IR Inten    --      2.2184                 0.0860                72.7165

                     37                     38                     39
                      A                      A                      A
 Frequencies --   1048.7173              1051.6462              1083.4174
 Red. masses --      2.0959                 2.0856                 4.1821
 Frc consts  --      1.3581                 1.3590                 2.8923
 IR Inten    --      3.3981                 8.3049                10.5519

                     40                     41                     42
                      A                      A                      A
 Frequencies --   1120.5938              1152.7560              1165.1042
 Red. masses --      1.5187                 1.3657                 1.2161
 Frc consts  --      1.1236                 1.0692                 0.9727
 IR Inten    --     44.1021                45.4375                69.1456

                     43                     44                     45
                      A                      A                      A
 Frequencies --   1176.1583              1194.9640              1258.9883
 Red. masses --      1.1964                 1.6134                 1.8175
 Frc consts  --      0.9752                 1.3574                 1.6974
 IR Inten    --     95.7506               114.7169                88.0760

                     46                     47                     48
                      A                      A                      A
 Frequencies --   1265.9904              1308.3786              1344.3246
 Red. masses --      2.4176                 2.0659                 5.5404
 Frc consts  --      2.2829                 2.0837                 5.8993
 IR Inten    --     28.6856                16.9876                 8.6374

                     49                     50                     51
                      A                      A                      A
 Frequencies --   1358.6419              1390.7401              1403.8779
 Red. masses --      6.6172                 2.9291                 2.1776
 Frc consts  --      7.1967                 3.3379                 2.5287
 IR Inten    --    183.0024                28.2631                 5.0539

                     52                     53                     54
                      A                      A                      A
 Frequencies --   1436.8867              1483.0674              1495.9768
 Red. masses --      3.1598                 2.8693                 3.2877
 Frc consts  --      3.8438                 3.7183                 4.3351
 IR Inten    --    450.3885                 2.7267                47.9156

                     55                     56                     57
                      A                      A                      A
 Frequencies --   1529.4204              1548.7609              1573.0906
 Red. masses --      3.8464                 5.6925                 4.1727
 Frc consts  --      5.3011                 8.0449                 6.0839
 IR Inten    --     71.0482               159.8318                65.7616

                     58                     59                     60
                      A                      A                      A
 Frequencies --   1618.8130              1635.2152              1663.2552
 Red. masses --      6.0338                 6.1619                 6.7236
 Frc consts  --      9.3161                 9.7077                10.9589
 IR Inten    --    283.1330               109.7891               118.9537

                     61                     62                     63
                      A                      A                      A
 Frequencies --   2659.1743              3198.4444              3212.0155
 Red. masses --      1.0947                 1.0882                 1.0861
 Frc consts  --      4.5608                 6.5591                 6.6018
 IR Inten    --   1154.1556                26.1163                 3.7878

                     64                     65                     66
                      A                      A                      A
 Frequencies --   3214.5557              3221.7131              3225.0322
 Red. masses --      1.0869                 1.0904                 1.0928
 Frc consts  --      6.6172                 6.6681                 6.6965
 IR Inten    --      2.6234                 3.4813                16.5983

                     67                     68                     69
                      A                      A                      A
 Frequencies --   3232.0148              3237.1471              3238.7046
 Red. masses --      1.0956                 1.0988                 1.0996
 Frc consts  --      6.7431                 6.7839                 6.7954
 IR Inten    --      7.9991                26.8277                11.0595

 - Thermochemistry -
 -------------------
 Temperature   298.150 Kelvin.  Pressure   1.00000 Atm.
 Atom     1 has atomic number  6 and mass  12.00000

 Molecular mass:   227.04049 amu.
 Principal axes and moments of inertia in atomic units:
                           1         2         3
     Eigenvalues --  1301.067286388.212217689.27931
           X           -0.70122   0.71295  -0.00003
           Y            0.71295   0.70122  -0.00005
           Z            0.00002   0.00006   1.00000
 This molecule is an asymmetric top.
 Rotational symmetry number  1.
 Warning -- assumption of classical behavior for rotation
           may cause significant error
 Rotational temperatures (Kelvin)      0.06657     0.01356     0.01126
 Rotational constants (GHZ):           1.38712     0.28251     0.23471
 Zero-point vibrational energy     486820.7 (Joules/Mol)
                                  116.35294 (Kcal/Mol)
 Warning -- explicit consideration of  19 degrees of freedom as
           vibrations may cause significant error
 Vibrational temperatures:     48.23    84.31   160.55   168.05   262.55
          (Kelvin)            316.19   376.59   388.66   438.96   515.63
                              573.27   626.46   662.39   728.03   729.97
                              781.09   798.23   803.31   819.29   895.58
                             1000.35  1023.50  1032.35  1069.05  1095.92
                             1104.49  1182.92  1195.51  1218.40  1250.12
                             1299.78  1369.90  1372.05  1377.68  1444.66
                             1485.90  1508.87  1513.08  1558.80  1612.28
                             1658.56  1676.33  1692.23  1719.29  1811.40
                             1821.48  1882.46  1934.18  1954.78  2000.96
                             2019.87  2067.36  2133.80  2152.38  2200.49
                             2228.32  2263.33  2329.11  2352.71  2393.05
                             3825.96  4601.85  4621.37  4625.03  4635.33
                             4640.10  4650.15  4657.53  4659.77

 Zero-point correction=                           0.185420 (Hartree/Particle)
 Thermal correction to Energy=                    0.197759
 Thermal correction to Enthalpy=                  0.198704
 Thermal correction to Gibbs Free Energy=         0.145813
 Sum of electronic and zero-point Energies=          -1028.512711
 Sum of electronic and thermal Energies=             -1028.500372
 Sum of electronic and thermal Enthalpies=           -1028.499427
 Sum of electronic and thermal Free Energies=        -1028.552318

                     E (Thermal)             CV                S
                      KCal/Mol        Cal/Mol-Kelvin    Cal/Mol-Kelvin
 Total                  124.096             49.396            111.317
 Electronic               0.000              0.000              0.000
 Translational            0.889              2.981             42.162
 Rotational               0.889              2.981             32.524
 Vibrational            122.318             43.434             36.631
 Vibration     1          0.594              1.983              5.609
 Vibration     2          0.596              1.974              4.504
 Vibration     3          0.607              1.940              3.241
 Vibration     4          0.608              1.935              3.153
 Vibration     5          0.630              1.864              2.303
 Vibration     6          0.647              1.811              1.961
 Vibration     7          0.669              1.743              1.650
 Vibration     8          0.674              1.728              1.595
 Vibration     9          0.696              1.664              1.389
 Vibration    10          0.733              1.558              1.129
 Vibration    11          0.765              1.473              0.968
 Vibration    12          0.796              1.393              0.841
 Vibration    13          0.818              1.338              0.765
 Vibration    14          0.861              1.237              0.643
 Vibration    15          0.863              1.234              0.640
 Vibration    16          0.898              1.155              0.559
 Vibration    17          0.910              1.129              0.534
 Vibration    18          0.914              1.121              0.527
 Vibration    19          0.925              1.097              0.505

 Optimization completed.
    -- Stationary point found.
 Normal termination of Gaussian 16 at Mon Jul 13 16:10:52 2020.
