 Gaussian 16, Revision C.01,
 Gaussian 16:  ES64L-G16RevC.01  3-Jul-2019

 ----------------------------------------------------------------------
 #p opt=addgic freq td wb97xd/cc-pvdz nosymm int=ultrafine scrf=(solven
 t=CarbonTetraChloride)
 ----------------------------------------------------------------------

 ------------------------------------------------
 NM 2D-scan of HBT TD-WB97XD pVDZ in CTC Relaxed.
 ------------------------------------------------
 Symbolic Z-matrix:
 Charge =  0 Multiplicity = 1

 SCF Done:  E(RwB97XD) =  -1028.77579588     A.U. after   15 cycles
 Total Energy, E(TD-HF/TD-DFT) =  -1028.64434047
 SCF Done:  E(RwB97XD) =  -1028.81825571     A.U. after   13 cycles
 Total Energy, E(TD-HF/TD-DFT) =  -1028.68885293
 SCF Done:  E(RwB97XD) =  -1028.81868729     A.U. after   13 cycles
 Total Energy, E(TD-HF/TD-DFT) =  -1028.69050091
 SCF Done:  E(RwB97XD) =  -1028.82003402     A.U. after   11 cycles
 Total Energy, E(TD-HF/TD-DFT) =  -1028.69157343
 SCF Done:  E(RwB97XD) =  -1028.82020679     A.U. after   11 cycles
 Total Energy, E(TD-HF/TD-DFT) =  -1028.69192140
 SCF Done:  E(RwB97XD) =  -1028.82023916     A.U. after    9 cycles
 Total Energy, E(TD-HF/TD-DFT) =  -1028.69192551
 SCF Done:  E(RwB97XD) =  -1028.82027687     A.U. after    8 cycles
 Total Energy, E(TD-HF/TD-DFT) =  -1028.69192590
 SCF Done:  E(RwB97XD) =  -1028.82028562     A.U. after    7 cycles
 Total Energy, E(TD-HF/TD-DFT) =  -1028.69192595
 Optimization completed.
    -- Stationary point found.
 Normal termination of Gaussian 16 at Tue Jul 14 11:06:48 2020.

 ----------------------------------------------------------------------
 #P Geom=AllCheck Guess=TCheck SCRF=Check GenChk RwB97XD TD(FC,Read)/CC
 -pVDZ Freq
 ----------------------------------------------------------------------

 Structure from the checkpoint file:  "config_2_16.chk"
 ------------------------------------------------
 NM 2D-scan of HBT TD-WB97XD pVDZ in CTC Relaxed.
 ------------------------------------------------
 Charge =  0 Multiplicity = 1

                          Input orientation:
 ---------------------------------------------------------------------
 Center     Atomic      Atomic             Coordinates (Angstroms)
 Number     Number       Type             X           Y           Z
 ---------------------------------------------------------------------
      1          6           0        1.551483   -3.283216   -0.000110
      2          6           0        0.974652   -2.016264   -0.000102
      3          6           0        1.759624   -0.810567    0.000051
      4          6           0        3.175750   -0.944648    0.000198
      5          6           0        3.734474   -2.208570    0.000185
      6          6           0        2.939110   -3.376413    0.000031
      7          1           0        0.927931   -4.178068   -0.000224
      8          1           0        3.796290   -0.047929    0.000313
      9          1           0        4.821381   -2.310118    0.000295
     10          1           0        3.416688   -4.357147    0.000026
     11          7           0        1.058403    0.337985    0.000017
     12         16           0       -0.719317   -1.630733   -0.000242
     13          6           0       -1.290177    1.078195   -0.000140
     14          6           0       -2.677601    0.751972   -0.000037
     15          6           0       -0.933500    2.500632   -0.000090
     16          6           0       -3.640015    1.744029    0.000159
     17          1           0       -2.979931   -0.296063   -0.000064
     18          6           0       -1.934433    3.480041    0.000147
     19          6           0       -3.277246    3.110912    0.000276
     20          1           0       -4.695571    1.467927    0.000257
     21          1           0       -1.625974    4.525848    0.000179
     22          1           0       -4.051978    3.878420    0.000446
     23          6           0       -0.284948    0.097958   -0.000164
     24          8           0        0.334076    2.861671   -0.000399
     25          1           0        0.902792    2.028331   -0.000888
 ---------------------------------------------------------------------

 SCF Done:  E(RwB97XD) =  -1028.82028562     A.U. after    1 cycles

 Excitation energies and oscillator strengths:

 Excited state symmetry could not be determined.
 Excited State   1:      Singlet-?Sym    3.4928 eV  354.97 nm  f=0.7134  <S**2>=0.000
      59 -> 60         0.68881
 This state for optimization and/or second-order correction.
 Total Energy, E(TD-HF/TD-DFT) =  -1028.69192594
 Copying the excited state density for this state as the 1-particle RhoCI density.

 Excited state symmetry could not be determined.
 Excited State   2:      Singlet-?Sym    4.3835 eV  282.85 nm  f=0.1282  <S**2>=0.000
      57 -> 60         0.41065
      58 -> 60         0.51681
      59 -> 62        -0.14569

 Excited state symmetry could not be determined.
 Excited State   3:      Singlet-?Sym    4.5704 eV  271.28 nm  f=0.1047  <S**2>=0.000
      57 -> 60         0.48369
      58 -> 60        -0.39963
      58 -> 61        -0.10083
      59 -> 61         0.20577

 Alpha  occ. eigenvalues --  -89.08693 -19.28859 -14.47252 -10.39605 -10.38260
 Alpha  occ. eigenvalues --  -10.35080 -10.34547 -10.32538 -10.32375 -10.32137
 Alpha  occ. eigenvalues --  -10.31995 -10.31421 -10.31315 -10.31216 -10.30618
 Alpha  occ. eigenvalues --  -10.30604  -8.10711  -6.05549  -6.05213  -6.04775
 Alpha  occ. eigenvalues --   -1.17364  -1.08056  -0.96819  -0.95748  -0.91955
 Alpha  occ. eigenvalues --   -0.88789  -0.85106  -0.84561  -0.82213  -0.75985
 Alpha  occ. eigenvalues --   -0.71315  -0.70182  -0.69169  -0.68189  -0.63612
 Alpha  occ. eigenvalues --   -0.60341  -0.59014  -0.58637  -0.56084  -0.54487
 Alpha  occ. eigenvalues --   -0.53723  -0.53389  -0.52893  -0.50568  -0.50541
 Alpha  occ. eigenvalues --   -0.49250  -0.47679  -0.45940  -0.45608  -0.44805
 Alpha  occ. eigenvalues --   -0.44041  -0.43011  -0.42079  -0.39970  -0.37592
 Alpha  occ. eigenvalues --   -0.36442  -0.31937  -0.31660  -0.28101
 Alpha virt. eigenvalues --   -0.01855   0.05224   0.06884   0.07069   0.07757
 Alpha virt. eigenvalues --    0.11185   0.14243   0.15219   0.16760   0.18080
 Alpha virt. eigenvalues --    0.18530   0.21021   0.21529   0.22333   0.22761

 Mulliken charges:
               1
     1  C    0.018583
     2  C   -0.215769
     3  C    0.209829
     4  C   -0.019400
     5  C    0.005350
     6  C   -0.005997
     7  H    0.016567
     8  H    0.016261
     9  H    0.018154
    10  H    0.019778
    11  N   -0.362151
    12  S    0.152642
    13  C   -0.070743
    14  C   -0.026278
    15  C    0.080871
    16  C   -0.008090
    17  H    0.022656
    18  C    0.008740
    19  C    0.022058
    20  H    0.011901
    21  H    0.020410
    22  H    0.023651
    23  C    0.083353
    24  O   -0.197079
    25  H    0.174703
 Sum of Mulliken charges =  -0.00000

 Dipole moment (field-independent basis, Debye):
    X=             -0.7478    Y=             -1.9221    Z=             -0.0004  Tot=              2.0624
 Quadrupole moment (field-independent basis, Debye-Ang):
   XX=            -83.1586   YY=            -89.3448   ZZ=           -104.3520
   XY=             -7.0246   XZ=             -0.0012   YZ=              0.0005

  Exact polarizability:     400.074    -193.842     388.766      -0.000       0.006      63.346
 Approx polarizability:     278.409     -36.662     260.840       0.001       0.008      82.362

                      1                      2                      3
                      A                      A                      A
 Frequencies --     44.6725                66.3854               110.0908
 Red. masses --      6.1380                 5.1903                 5.1504
 Frc consts  --      0.0072                 0.0135                 0.0368
 IR Inten    --      1.3695                 0.0046                 0.1978

                      4                      5                      6
                      A                      A                      A
 Frequencies --    110.5032               180.6032               224.5889
 Red. masses --      5.6416                 6.6848                 5.3593
 Frc consts  --      0.0406                 0.1285                 0.1593
 IR Inten    --      2.1671                 1.4257                 0.0053

                      7                      8                      9
                      A                      A                      A
 Frequencies --    267.3334               272.5949               292.9588
 Red. masses --      7.9123                 4.8476                 6.5825
 Frc consts  --      0.3332                 0.2122                 0.3329
 IR Inten    --     22.9702                 0.0267                11.1317

                     10                     11                     12
                      A                      A                      A
 Frequencies --    391.1427               406.5234               441.3275
 Red. masses --      4.5325                 9.1097                 3.2615
 Frc consts  --      0.4086                 0.8870                 0.3743
 IR Inten    --      0.0548                13.7199                 3.9200

                     13                     14                     15
                      A                      A                      A
 Frequencies --    490.6927               499.2062               508.7928
 Red. masses --      4.4725                 7.6654                 3.1584
 Frc consts  --      0.6345                 1.1255                 0.4817
 IR Inten    --      0.1911                 5.6706                 0.0716

                     16                     17                     18
                      A                      A                      A
 Frequencies --    514.4937               525.5033               552.7517
 Red. masses --      5.0767                 8.4517                 3.9792
 Frc consts  --      0.7917                 1.3751                 0.7163
 IR Inten    --     21.9785                33.8232                 0.1573

                     19                     20                     21
                      A                      A                      A
 Frequencies --    576.6015               644.7011               696.0335
 Red. masses --      7.6929                 6.5992                10.2532
 Frc consts  --      1.5069                 1.6161                 2.9267
 IR Inten    --     42.1893                14.5437                55.2878

                     22                     23                     24
                      A                      A                      A
 Frequencies --    717.1770               721.9884               736.5885
 Red. masses --      6.6642                 1.5956                 1.7645
 Frc consts  --      2.0195                 0.4900                 0.5641
 IR Inten    --     14.1662                59.7213                48.1611

                     25                     26                     27
                      A                      A                      A
 Frequencies --    741.8013               770.9759               814.7047
 Red. masses --      2.0093                 2.2801                 1.7105
 Frc consts  --      0.6514                 0.7985                 0.6689
 IR Inten    --      3.4784                47.0380                 4.4601

                     28                     29                     30
                      A                      A                      A
 Frequencies --    819.3697               860.1539               884.1779
 Red. masses --      6.3349                 1.4325                 6.3982
 Frc consts  --      2.5058                 0.6244                 2.9471
 IR Inten    --     20.4586                 0.8437                66.6915

                     31                     32                     33
                      A                      A                      A
 Frequencies --    917.5558               939.2983               953.4303
 Red. masses --      1.3137                 1.0881                 1.3442
 Frc consts  --      0.6517                 0.5656                 0.7199
 IR Inten    --     19.2760                53.1507                 2.0250

                     34                     35                     36
                      A                      A                      A
 Frequencies --    962.4021               967.7017               998.6684
 Red. masses --      7.3525                 1.3483                 1.3052
 Frc consts  --      4.0124                 0.7439                 0.7669
 IR Inten    --     10.9918                 0.2049                 0.0102

                     37                     38                     39
                      A                      A                      A
 Frequencies --   1040.8461              1041.8398              1085.3639
 Red. masses --      2.1126                 2.1236                 4.3739
 Frc consts  --      1.3485                 1.3581                 3.0358
 IR Inten    --      0.2617                 4.7199                49.9603

                     40                     41                     42
                      A                      A                      A
 Frequencies --   1137.7257              1151.2852              1175.8038
 Red. masses --      1.4616                 1.3464                 1.1814
 Frc consts  --      1.1147                 1.0514                 0.9623
 IR Inten    --     54.6309                14.7946                26.9979

                     43                     44                     45
                      A                      A                      A
 Frequencies --   1179.2403              1216.7611              1242.5688
 Red. masses --      1.2290                 4.4039                 1.7260
 Frc consts  --      1.0069                 3.8414                 1.5702
 IR Inten    --     11.0671                39.4777               152.8801

                     46                     47                     48
                      A                      A                      A
 Frequencies --   1277.9382              1321.5029              1358.2130
 Red. masses --      1.6785                 3.5792                 2.7725
 Frc consts  --      1.6151                 3.6828                 3.0134
 IR Inten    --      0.0426               277.8960                28.9628

                     49                     50                     51
                      A                      A                      A
 Frequencies --   1370.2779              1396.8994              1440.0530
 Red. masses --      5.3686                 2.0814                 2.5824
 Frc consts  --      5.9392                 2.3929                 3.1552
 IR Inten    --     60.2930                 6.6064               184.2875

                     52                     53                     54
                      A                      A                      A
 Frequencies --   1471.1626              1496.8811              1518.1930
 Red. masses --      3.6255                 3.5607                 2.4634
 Frc consts  --      4.6232                 4.7006                 3.3454
 IR Inten    --     80.3443                44.0821               194.3514

                     55                     56                     57
                      A                      A                      A
 Frequencies --   1545.4899              1578.8047              1596.5719
 Red. masses --      4.8329                 7.1153                 4.6770
 Frc consts  --      6.8013                10.4496                 7.0241
 IR Inten    --     37.6344                47.0591               606.8664

                     58                     59                     60
                      A                      A                      A
 Frequencies --   1607.3635              1626.3378              1645.7701
 Red. masses --      2.5128                 3.8530                 5.0298
 Frc consts  --      3.8250                 6.0045                 8.0267
 IR Inten    --    371.9847               240.1744               199.5525

                     61                     62                     63
                      A                      A                      A
 Frequencies --   2941.5534              3205.7094              3211.3149
 Red. masses --      1.0777                 1.0862                 1.0860
 Frc consts  --      5.4943                 6.5770                 6.5984
 IR Inten    --     35.7947                 9.5142                 5.5571

                     64                     65                     66
                      A                      A                      A
 Frequencies --   3216.5950              3222.4230              3228.4187
 Red. masses --      1.0897                 1.0888                 1.0954
 Frc consts  --      6.6430                 6.6614                 6.7265
 IR Inten    --      2.6557                 4.6141                10.2444

                     67                     68                     69
                      A                      A                      A
 Frequencies --   3230.5945              3234.2992              3240.7779
 Red. masses --      1.0950                 1.0990                 1.0983
 Frc consts  --      6.7331                 6.7737                 6.7965
 IR Inten    --     13.5711                40.0969                28.1749

 - Thermochemistry -
 -------------------
 Temperature   298.150 Kelvin.  Pressure   1.00000 Atm.
 Atom     1 has atomic number  6 and mass  12.00000

 Molecular mass:   227.04049 amu.
 Principal axes and moments of inertia in atomic units:
                           1         2         3
     Eigenvalues --  1311.004206343.007527654.01166
           X           -0.69895   0.71517  -0.00001
           Y            0.71517   0.69895  -0.00001
           Z            0.00000   0.00002   1.00000
 This molecule is an asymmetric top.
 Rotational symmetry number  1.
 Warning -- assumption of classical behavior for rotation
           may cause significant error
 Rotational temperatures (Kelvin)      0.06607     0.01366     0.01132
 Rotational constants (GHZ):           1.37661     0.28452     0.23579
 Zero-point vibrational energy     489739.6 (Joules/Mol)
                                  117.05058 (Kcal/Mol)
 Warning -- explicit consideration of  19 degrees of freedom as
           vibrations may cause significant error
 Vibrational temperatures:     64.27    95.51   158.40   158.99   259.85
          (Kelvin)            323.13   384.63   392.20   421.50   562.77
                              584.90   634.97   706.00   718.25   732.04
                              740.24   756.08   795.29   829.60   927.58
                             1001.44  1031.86  1038.78  1059.79  1067.29
                             1109.26  1172.18  1178.89  1237.57  1272.13
                             1320.16  1351.44  1371.77  1384.68  1392.31
                             1436.86  1497.55  1498.98  1561.60  1636.93
                             1656.44  1691.72  1696.66  1750.65  1787.78
                             1838.67  1901.35  1954.17  1971.52  2009.83
                             2071.92  2116.67  2153.68  2184.34  2223.62
                             2271.55  2297.11  2312.64  2339.94  2367.90
                             4232.24  4612.30  4620.37  4627.96  4636.35
                             4644.97  4648.10  4653.44  4662.76

 Zero-point correction=                           0.186532 (Hartree/Particle)
 Thermal correction to Energy=                    0.198810
 Thermal correction to Enthalpy=                  0.199754
 Thermal correction to Gibbs Free Energy=         0.147262
 Sum of electronic and zero-point Energies=          -1028.505394
 Sum of electronic and thermal Energies=             -1028.493116
 Sum of electronic and thermal Enthalpies=           -1028.492172
 Sum of electronic and thermal Free Energies=        -1028.544664

                     E (Thermal)             CV                S
                      KCal/Mol        Cal/Mol-Kelvin    Cal/Mol-Kelvin
 Total                  124.755             49.322            110.480
 Electronic               0.000              0.000              0.000
 Translational            0.889              2.981             42.162
 Rotational               0.889              2.981             32.520
 Vibrational            122.978             43.360             35.797
 Vibration     1          0.595              1.980              5.040
 Vibration     2          0.598              1.970              4.258
 Vibration     3          0.606              1.941              3.267
 Vibration     4          0.606              1.941              3.260
 Vibration     5          0.630              1.866              2.322
 Vibration     6          0.649              1.804              1.922
 Vibration     7          0.672              1.733              1.613
 Vibration     8          0.676              1.724              1.580
 Vibration     9          0.688              1.687              1.457
 Vibration    10          0.759              1.489              0.996
 Vibration    11          0.771              1.456              0.939
 Vibration    12          0.801              1.380              0.822
 Vibration    13          0.846              1.271              0.682
 Vibration    14          0.855              1.252              0.660
 Vibration    15          0.864              1.231              0.637
 Vibration    16          0.870              1.218              0.623
 Vibration    17          0.880              1.194              0.597
 Vibration    18          0.908              1.134              0.538
 Vibration    19          0.933              1.082              0.492

 Optimization completed.
    -- Stationary point found.
 Normal termination of Gaussian 16 at Tue Jul 14 11:23:57 2020.
