 Gaussian 16, Revision C.01,
 Gaussian 16:  ES64L-G16RevC.01  3-Jul-2019

 ----------------------------------------------------------------------
 #p opt=addgic freq td wb97xd/cc-pvdz nosymm int=ultrafine scrf=(solven
 t=CarbonTetraChloride)
 ----------------------------------------------------------------------

 ------------------------------------------------
 NM 2D-scan of HBT TD-WB97XD pVDZ in CTC Relaxed.
 ------------------------------------------------
 Symbolic Z-matrix:
 Charge =  0 Multiplicity = 1

 SCF Done:  E(RwB97XD) =  -1028.80845847     A.U. after   15 cycles
 Total Energy, E(TD-HF/TD-DFT) =  -1028.69217773
 SCF Done:  E(RwB97XD) =  -1028.80178007     A.U. after   14 cycles
 Total Energy, E(TD-HF/TD-DFT) =  -1028.69180105
 SCF Done:  E(RwB97XD) =  -1028.80647389     A.U. after   12 cycles
 Total Energy, E(TD-HF/TD-DFT) =  -1028.69330313
 SCF Done:  E(RwB97XD) =  -1028.80652236     A.U. after   11 cycles
 Total Energy, E(TD-HF/TD-DFT) =  -1028.69333002
 SCF Done:  E(RwB97XD) =  -1028.80650724     A.U. after   10 cycles
 Total Energy, E(TD-HF/TD-DFT) =  -1028.69333383
 SCF Done:  E(RwB97XD) =  -1028.80651476     A.U. after    9 cycles
 Total Energy, E(TD-HF/TD-DFT) =  -1028.69333446
 SCF Done:  E(RwB97XD) =  -1028.80651653     A.U. after    8 cycles
 Total Energy, E(TD-HF/TD-DFT) =  -1028.69333482
 Optimization completed.
    -- Stationary point found.
 Normal termination of Gaussian 16 at Mon Jul 13 15:16:19 2020.

 ----------------------------------------------------------------------
 #P Geom=AllCheck Guess=TCheck SCRF=Check GenChk RwB97XD TD(FC,Read)/CC
 -pVDZ Freq
 ----------------------------------------------------------------------

 Structure from the checkpoint file:  "config_7_12.chk"
 ------------------------------------------------
 NM 2D-scan of HBT TD-WB97XD pVDZ in CTC Relaxed.
 ------------------------------------------------
 Charge =  0 Multiplicity = 1

                          Input orientation:
 ---------------------------------------------------------------------
 Center     Atomic      Atomic             Coordinates (Angstroms)
 Number     Number       Type             X           Y           Z
 ---------------------------------------------------------------------
      1          6           0        1.608095   -3.272852   -0.000141
      2          6           0        0.991771   -2.023492   -0.000061
      3          6           0        1.744786   -0.811894    0.000047
      4          6           0        3.149732   -0.886435    0.000087
      5          6           0        3.754653   -2.135109    0.000003
      6          6           0        3.000346   -3.320853   -0.000112
      7          1           0        1.014291   -4.187806   -0.000219
      8          1           0        3.740312    0.030164    0.000178
      9          1           0        4.844262   -2.196370    0.000030
     10          1           0        3.507327   -4.286540   -0.000171
     11          7           0        0.978779    0.320224    0.000120
     12         16           0       -0.725252   -1.682482   -0.000044
     13          6           0       -1.342317    1.057636    0.000046
     14          6           0       -2.717529    0.788023    0.000104
     15          6           0       -0.897127    2.468617   -0.000056
     16          6           0       -3.650517    1.834221    0.000100
     17          1           0       -3.071721   -0.244924    0.000169
     18          6           0       -1.877402    3.489021   -0.000076
     19          6           0       -3.235959    3.176535    0.000015
     20          1           0       -4.715122    1.595626    0.000157
     21          1           0       -1.521138    4.519917   -0.000176
     22          1           0       -3.979108    3.974461    0.000000
     23          6           0       -0.353373    0.042922    0.000044
     24          8           0        0.357486    2.750971   -0.000247
     25          1           0        1.034070    1.489885    0.000301
 ---------------------------------------------------------------------

 SCF Done:  E(RwB97XD) =  -1028.80651653     A.U. after    1 cycles

 Excitation energies and oscillator strengths:

 Excited state symmetry could not be determined.
 Excited State   1:      Singlet-?Sym    3.0798 eV  402.57 nm  f=0.4560  <S**2>=0.000
      59 -> 60         0.69508
 This state for optimization and/or second-order correction.
 Total Energy, E(TD-HF/TD-DFT) =  -1028.69333479
 Copying the excited state density for this state as the 1-particle RhoCI density.

 Excited state symmetry could not be determined.
 Excited State   2:      Singlet-?Sym    4.2153 eV  294.13 nm  f=0.0000  <S**2>=0.000
      56 -> 60         0.68616
      56 -> 62         0.10800
      56 -> 64         0.11409

 Excited state symmetry could not be determined.
 Excited State   3:      Singlet-?Sym    4.3266 eV  286.56 nm  f=0.3493  <S**2>=0.000
      58 -> 60         0.67680

 Alpha  occ. eigenvalues --  -89.10042 -19.22996 -14.51025 -10.41253 -10.37080
 Alpha  occ. eigenvalues --  -10.36571 -10.35901 -10.33015 -10.32482 -10.32161
 Alpha  occ. eigenvalues --  -10.32079 -10.31804 -10.31282 -10.31276 -10.29606
 Alpha  occ. eigenvalues --  -10.29015  -8.12042  -6.06903  -6.06550  -6.06073
 Alpha  occ. eigenvalues --   -1.12362  -1.09706  -0.97741  -0.95446  -0.92986
 Alpha  occ. eigenvalues --   -0.89016  -0.86187  -0.83704  -0.81868  -0.75842
 Alpha  occ. eigenvalues --   -0.71769  -0.71660  -0.68507  -0.67658  -0.64151
 Alpha  occ. eigenvalues --   -0.60940  -0.59458  -0.57199  -0.55219  -0.55154
 Alpha  occ. eigenvalues --   -0.54531  -0.53663  -0.52936  -0.50681  -0.49777
 Alpha  occ. eigenvalues --   -0.49094  -0.47829  -0.46622  -0.45249  -0.45192
 Alpha  occ. eigenvalues --   -0.44145  -0.43189  -0.41952  -0.40646  -0.36670
 Alpha  occ. eigenvalues --   -0.33713  -0.33138  -0.31285  -0.26831
 Alpha virt. eigenvalues --   -0.01919   0.04151   0.06093   0.06637   0.08580
 Alpha virt. eigenvalues --    0.10585   0.13889   0.14843   0.16350   0.17633
 Alpha virt. eigenvalues --    0.18717   0.20545   0.21042   0.21649   0.22859

 Mulliken charges:
               1
     1  C    0.018346
     2  C   -0.228329
     3  C    0.265802
     4  C   -0.014084
     5  C    0.009606
     6  C   -0.000407
     7  H    0.023649
     8  H    0.027834
     9  H    0.024729
    10  H    0.024820
    11  N   -0.248973
    12  S    0.191842
    13  C   -0.103957
    14  C   -0.027712
    15  C    0.127757
    16  C   -0.028435
    17  H    0.011717
    18  C   -0.012888
    19  C    0.030236
    20  H    0.004476
    21  H    0.007381
    22  H    0.017543
    23  C    0.065566
    24  O   -0.407856
    25  H    0.221338
 Sum of Mulliken charges =  -0.00000

 Dipole moment (field-independent basis, Debye):
    X=              0.9090    Y=             -4.6395    Z=              0.0007  Tot=              4.7277
 Quadrupole moment (field-independent basis, Debye-Ang):
   XX=            -82.7163   YY=            -93.7460   ZZ=           -104.2650
   XY=             -6.9125   XZ=              0.0007   YZ=              0.0022

  Exact polarizability:     350.745    -129.790     308.277      -0.003       0.003      63.240
 Approx polarizability:     273.184     -35.018     264.351      -0.002       0.001      82.171

 ******    1 imaginary frequencies (negative Signs) ******

                      1                      2                      3
                      A                      A                      A
 Frequencies --   -646.3673                35.4018                71.8414
 Red. masses --      1.2962                 6.1968                 5.0886
 Frc consts  --      0.3191                 0.0046                 0.0155
 IR Inten    --   1554.9085                 1.5044                 0.3836

                      4                      5                      6
                      A                      A                      A
 Frequencies --    118.6782               143.1715               182.8773
 Red. masses --      5.8310                 5.6081                 6.2441
 Frc consts  --      0.0484                 0.0677                 0.1230
 IR Inten    --      0.2948                 0.2698                 0.2687

                      7                      8                      9
                      A                      A                      A
 Frequencies --    218.2165               269.7746               281.5440
 Red. masses --      5.4798                 4.6498                 7.0626
 Frc consts  --      0.1537                 0.1994                 0.3298
 IR Inten    --      0.1130                 0.1015                12.1165

                     10                     11                     12
                      A                      A                      A
 Frequencies --    364.4444               390.2110               407.8826
 Red. masses --      5.0140                 6.0219                 9.1689
 Frc consts  --      0.3924                 0.5402                 0.8988
 IR Inten    --      0.6526                61.5294                12.6338

                     13                     14                     15
                      A                      A                      A
 Frequencies --    437.4277               466.6550               502.7600
 Red. masses --      3.2611                 4.7162                 3.1787
 Frc consts  --      0.3676                 0.6051                 0.4734
 IR Inten    --      4.2087                 1.0808                 0.4777

                     16                     17                     18
                      A                      A                      A
 Frequencies --    506.7548               544.9430               558.4497
 Red. masses --      8.9051                 8.6522                 3.8684
 Frc consts  --      1.3474                 1.5138                 0.7108
 IR Inten    --      2.8611                 1.7688                 0.3587

                     19                     20                     21
                      A                      A                      A
 Frequencies --    575.0460               588.3546               663.6119
 Red. masses --      7.6001                 6.5994                 6.5516
 Frc consts  --      1.4807                 1.3460                 1.6999
 IR Inten    --     37.2276                 6.2707                21.2559

                     22                     23                     24
                      A                      A                      A
 Frequencies --    696.6360               718.8258               742.5440
 Red. masses --      1.5758                 6.3434                 2.5655
 Frc consts  --      0.4506                 1.9312                 0.8334
 IR Inten    --     40.6984                 6.1207                15.1009

                     25                     26                     27
                      A                      A                      A
 Frequencies --    762.7476               763.6480               767.7180
 Red. masses --      1.7834                 6.0071                 1.6954
 Frc consts  --      0.6113                 2.0640                 0.5887
 IR Inten    --      3.4969                55.3386                87.8572

                     28                     29                     30
                      A                      A                      A
 Frequencies --    824.7654               826.3713               867.7142
 Red. masses --      1.7326                 6.1970                 1.3868
 Frc consts  --      0.6944                 2.4934                 0.6152
 IR Inten    --      0.0145                19.5452                 0.9538

                     31                     32                     33
                      A                      A                      A
 Frequencies --    904.7824               927.6632               955.3080
 Red. masses --      1.3927                 6.0976                 1.3742
 Frc consts  --      0.6718                 3.0916                 0.7389
 IR Inten    --      5.4758                49.6601                 0.5970

                     34                     35                     36
                      A                      A                      A
 Frequencies --    956.4059              1003.1034              1014.5651
 Red. masses --      1.3501                 1.2966                 6.1818
 Frc consts  --      0.7276                 0.7687                 3.7491
 IR Inten    --      1.7396                 0.0005               142.0336

                     37                     38                     39
                      A                      A                      A
 Frequencies --   1044.6567              1050.6981              1097.9606
 Red. masses --      2.0842                 2.0716                 3.7807
 Frc consts  --      1.3401                 1.3475                 2.6853
 IR Inten    --      2.7771                 2.4173                93.0977

                     40                     41                     42
                      A                      A                      A
 Frequencies --   1129.4438              1154.1218              1167.9922
 Red. masses --      1.4827                 1.3467                 1.1933
 Frc consts  --      1.1144                 1.0569                 0.9591
 IR Inten    --      4.1126                11.8091                88.3758

                     43                     44                     45
                      A                      A                      A
 Frequencies --   1174.8470              1180.1868              1254.9454
 Red. masses --      1.0540                 1.1749                 1.8004
 Frc consts  --      0.8571                 0.9642                 1.6706
 IR Inten    --     69.5294                12.1191                78.9623

                     46                     47                     48
                      A                      A                      A
 Frequencies --   1268.0219              1305.0484              1342.2878
 Red. masses --      2.4689                 2.3243                 4.5608
 Frc consts  --      2.3389                 2.3323                 4.8415
 IR Inten    --     30.5983                13.4570                39.3002

                     49                     50                     51
                      A                      A                      A
 Frequencies --   1356.7588              1383.8559              1405.1401
 Red. masses --      6.3300                 2.7994                 2.3899
 Frc consts  --      6.8653                 3.1586                 2.7802
 IR Inten    --    208.7367                55.1438                15.2394

                     52                     53                     54
                      A                      A                      A
 Frequencies --   1445.6428              1478.2613              1496.2276
 Red. masses --      2.9576                 3.5393                 4.0363
 Frc consts  --      3.6418                 4.5569                 5.3239
 IR Inten    --    581.9862                 5.5811               145.0965

                     55                     56                     57
                      A                      A                      A
 Frequencies --   1514.4277              1544.3179              1568.2034
 Red. masses --      4.0251                 4.9468                 4.5087
 Frc consts  --      5.4390                 6.9511                 6.5329
 IR Inten    --    126.5728                60.0449                48.2438

                     58                     59                     60
                      A                      A                      A
 Frequencies --   1622.9169              1629.5218              1659.2709
 Red. masses --      5.8677                 5.7865                 6.4863
 Frc consts  --      9.1056                 9.0529                10.5216
 IR Inten    --     27.2251               652.0782               105.9459

                     61                     62                     63
                      A                      A                      A
 Frequencies --   2014.4832              3203.8640              3210.6072
 Red. masses --      1.1129                 1.0876                 1.0861
 Frc consts  --      2.6609                 6.5777                 6.5961
 IR Inten    --    628.8125                21.8027                 4.7743

                     64                     65                     66
                      A                      A                      A
 Frequencies --   3217.3221              3220.4500              3226.7670
 Red. masses --      1.0877                 1.0903                 1.0931
 Frc consts  --      6.6336                 6.6626                 6.7060
 IR Inten    --      3.6029                 3.2425                17.2296

                     67                     68                     69
                      A                      A                      A
 Frequencies --   3231.3163              3237.9285              3238.9946
 Red. masses --      1.0955                 1.0994                 1.0986
 Frc consts  --      6.7391                 6.7911                 6.7905
 IR Inten    --      8.9805                22.6007                15.4166

 - Thermochemistry -
 -------------------
 Temperature   298.150 Kelvin.  Pressure   1.00000 Atm.
 Atom     1 has atomic number  6 and mass  12.00000

 Molecular mass:   227.04049 amu.
 Principal axes and moments of inertia in atomic units:
                           1         2         3
     Eigenvalues --  1303.107686334.142117637.24978
           X           -0.70222   0.71196   0.00001
           Y            0.71196   0.70222   0.00001
           Z            0.00000  -0.00001   1.00000
 This molecule is an asymmetric top.
 Rotational symmetry number  1.
 Warning -- assumption of classical behavior for rotation
           may cause significant error
 Rotational temperatures (Kelvin)      0.06647     0.01367     0.01134
 Rotational constants (GHZ):           1.38495     0.28492     0.23631
    1 imaginary frequencies ignored.
 Zero-point vibrational energy     479327.7 (Joules/Mol)
                                  114.56207 (Kcal/Mol)
 Warning -- explicit consideration of  19 degrees of freedom as
           vibrations may cause significant error
 Vibrational temperatures:     50.94   103.36   170.75   205.99   263.12
          (Kelvin)            313.96   388.15   405.08   524.35   561.43
                              586.85   629.36   671.41   723.36   729.11
                              784.05   803.48   827.36   846.51   954.79
                             1002.30  1034.23  1068.36  1097.42  1098.72
                             1104.57  1186.65  1188.96  1248.45  1301.78
                             1334.70  1374.48  1376.05  1443.24  1459.73
                             1503.03  1511.72  1579.72  1625.02  1660.52
                             1680.48  1690.34  1698.03  1805.59  1824.40
                             1877.67  1931.25  1952.07  1991.06  2021.68
                             2079.96  2126.89  2152.74  2178.92  2221.93
                             2256.29  2335.02  2344.52  2387.32  2898.39
                             4609.65  4619.35  4629.01  4633.51  4642.60
                             4649.14  4658.66  4660.19

 Zero-point correction=                           0.182566 (Hartree/Particle)
 Thermal correction to Energy=                    0.194552
 Thermal correction to Enthalpy=                  0.195496
 Thermal correction to Gibbs Free Energy=         0.143539
 Sum of electronic and zero-point Energies=          -1028.510769
 Sum of electronic and thermal Energies=             -1028.498783
 Sum of electronic and thermal Enthalpies=           -1028.497839
 Sum of electronic and thermal Free Energies=        -1028.549796

                     E (Thermal)             CV                S
                      KCal/Mol        Cal/Mol-Kelvin    Cal/Mol-Kelvin
 Total                  122.083             48.325            109.354
 Electronic               0.000              0.000              0.000
 Translational            0.889              2.981             42.162
 Rotational               0.889              2.981             32.511
 Vibrational            120.306             42.363             34.681
 Vibration     1          0.594              1.982              5.501
 Vibration     2          0.598              1.967              4.102
 Vibration     3          0.609              1.934              3.122
 Vibration     4          0.616              1.910              2.761
 Vibration     5          0.630              1.863              2.299
 Vibration     6          0.646              1.813              1.974
 Vibration     7          0.674              1.729              1.598
 Vibration     8          0.681              1.708              1.524
 Vibration     9          0.738              1.545              1.103
 Vibration    10          0.758              1.491              0.999
 Vibration    11          0.772              1.453              0.934
 Vibration    12          0.798              1.389              0.835
 Vibration    13          0.824              1.324              0.747
 Vibration    14          0.858              1.244              0.651
 Vibration    15          0.862              1.235              0.641
 Vibration    16          0.900              1.151              0.555
 Vibration    17          0.914              1.121              0.527
 Vibration    18          0.931              1.085              0.495
 Vibration    19          0.946              1.057              0.470

 Optimization completed.
    -- Stationary point found.
 Normal termination of Gaussian 16 at Mon Jul 13 15:34:15 2020.
