 Gaussian 16, Revision C.01,
 Gaussian 16:  ES64L-G16RevC.01  3-Jul-2019

 ----------------------------------------------------------------------
 #p opt=addgic freq wb97xd/cc-pvdz nosymm int=ultrafine scrf=(solvent=C
 arbonTetraChloride)
 ----------------------------------------------------------------------

 ------------------------------------------------
 NM 2D-scan of HBT TD-WB97XD pVDZ in CTC Relaxed.
 ------------------------------------------------
 Symbolic Z-matrix:
 Charge =  0 Multiplicity = 1

 SCF Done:  E(RwB97XD) =  -1028.58567907     A.U. after   16 cycles
 SCF Done:  E(RwB97XD) =  -1028.74268903     A.U. after   14 cycles
 SCF Done:  E(RwB97XD) =  -1028.77537673     A.U. after   14 cycles
 SCF Done:  E(RwB97XD) =  -1028.79129561     A.U. after   14 cycles
 SCF Done:  E(RwB97XD) =  -1028.79221549     A.U. after   13 cycles
 SCF Done:  E(RwB97XD) =  -1028.79254665     A.U. after   12 cycles
 SCF Done:  E(RwB97XD) =  -1028.79257722     A.U. after   10 cycles
 SCF Done:  E(RwB97XD) =  -1028.79257981     A.U. after    9 cycles
 Optimization completed.
    -- Stationary point found.
 Normal termination of Gaussian 16 at Tue Oct 27 22:28:31 2020.

 --------------------------------------------------------------------
 #P Geom=AllCheck Guess=TCheck SCRF=Check GenChk RwB97XD/CC-pVDZ Freq
 --------------------------------------------------------------------

 Structure from the checkpoint file:  "config_12_7.chk"
 ------------------------------------------------
 NM 2D-scan of HBT TD-WB97XD pVDZ in CTC Relaxed.
 ------------------------------------------------
 Charge =  0 Multiplicity = 1

                          Input orientation:
 ---------------------------------------------------------------------
 Center     Atomic      Atomic             Coordinates (Angstroms)
 Number     Number       Type             X           Y           Z
 ---------------------------------------------------------------------
      1          6           0        1.693595   -3.281026    0.000087
      2          6           0        1.015183   -2.066945    0.000040
      3          6           0        1.724000   -0.885588   -0.000058
      4          6           0        3.116229   -0.834274   -0.000088
      5          6           0        3.791794   -2.050663   -0.000031
      6          6           0        3.087561   -3.258437    0.000050
      7          1           0        1.153313   -4.227228    0.000146
      8          1           0        3.647872    0.118247   -0.000156
      9          1           0        4.882357   -2.057477   -0.000053
     10          1           0        3.635076   -4.201267    0.000084
     11          7           0        0.858704    0.186948   -0.000133
     12         16           0       -0.732744   -1.713493    0.000062
     13          6           0       -1.408173    1.085289   -0.000065
     14          6           0       -2.808702    0.879614   -0.000118
     15          6           0       -0.837148    2.439015    0.000061
     16          6           0       -3.697859    1.933340   -0.000035
     17          1           0       -3.192572   -0.145262   -0.000233
     18          6           0       -1.843842    3.506725    0.000188
     19          6           0       -3.193082    3.259948    0.000137
     20          1           0       -4.772270    1.748001   -0.000086
     21          1           0       -1.463118    4.530117    0.000320
     22          1           0       -3.897210    4.096305    0.000228
     23          6           0       -0.474830    0.011846   -0.000074
     24          8           0        0.385666    2.628215    0.000079
     25          1           0        1.380333    1.021326   -0.000278
 ---------------------------------------------------------------------

 SCF Done:  E(RwB97XD) =  -1028.79257981     A.U. after    1 cycles

 Alpha  occ. eigenvalues --  -89.10094 -19.21113 -14.51710 -10.41871 -10.36761
 Alpha  occ. eigenvalues --  -10.36027 -10.35877 -10.33412 -10.33108 -10.32706
 Alpha  occ. eigenvalues --  -10.32352 -10.31097 -10.30586 -10.30583 -10.29031
 Alpha  occ. eigenvalues --  -10.28503  -8.12094  -6.06991  -6.06589  -6.06095
 Alpha  occ. eigenvalues --   -1.13406  -1.10278  -0.98684  -0.95226  -0.93262
 Alpha  occ. eigenvalues --   -0.89264  -0.86536  -0.84083  -0.81523  -0.75670
 Alpha  occ. eigenvalues --   -0.74294  -0.71587  -0.69552  -0.67753  -0.64341
 Alpha  occ. eigenvalues --   -0.60901  -0.59824  -0.56620  -0.56060  -0.55989
 Alpha  occ. eigenvalues --   -0.55032  -0.53545  -0.52880  -0.50392  -0.49369
 Alpha  occ. eigenvalues --   -0.49023  -0.48194  -0.46682  -0.45654  -0.44708
 Alpha  occ. eigenvalues --   -0.44538  -0.42884  -0.41729  -0.40394  -0.36938
 Alpha  occ. eigenvalues --   -0.33641  -0.31709  -0.31183  -0.26072
 Alpha virt. eigenvalues --   -0.01349   0.03690   0.06065   0.06792   0.09625
 Alpha virt. eigenvalues --    0.11217   0.12652   0.14565   0.15906   0.16840
 Alpha virt. eigenvalues --    0.18388   0.19798   0.21100   0.21636   0.23042

 Mulliken charges:
               1
     1  C    0.009555
     2  C   -0.248604
     3  C    0.220913
     4  C   -0.013853
     5  C    0.012636
     6  C    0.002992
     7  H    0.025120
     8  H    0.033265
     9  H    0.028021
    10  H    0.026266
    11  N   -0.078299
    12  S    0.177267
    13  C   -0.121771
    14  C   -0.006380
    15  C    0.110561
    16  C   -0.036241
    17  H    0.002372
    18  C   -0.042149
    19  C    0.028887
    20  H    0.002440
    21  H    0.000525
    22  H    0.013400
    23  C    0.104133
    24  O   -0.364924
    25  H    0.113867
 Sum of Mulliken charges =  -0.00000

 Dipole moment (field-independent basis, Debye):
    X=              2.2209    Y=             -5.2083    Z=             -0.0004  Tot=              5.6621
 Quadrupole moment (field-independent basis, Debye-Ang):
   XX=            -81.5072   YY=            -94.9581   ZZ=           -104.0322
   XY=             -6.6780   XZ=             -0.0008   YZ=             -0.0006

  Exact polarizability:     291.794     -91.563     289.739      -0.002       0.003      62.981
 Approx polarizability:     269.156     -36.478     255.671      -0.002       0.002      81.984

 ******    1 imaginary frequencies (negative Signs) ******

                      1                      2                      3
                      A                      A                      A
 Frequencies --    -69.9242                48.8731                75.1293
 Red. masses --      3.2044                 5.5821                 5.6790
 Frc consts  --      0.0092                 0.0079                 0.0189
 IR Inten    --      7.7736                 0.0239                 2.9442

                      4                      5                      6
                      A                      A                      A
 Frequencies --    109.1766               185.1551               218.5645
 Red. masses --      5.6518                 4.7932                 4.8890
 Frc consts  --      0.0397                 0.0968                 0.1376
 IR Inten    --      0.6817                 2.4596                10.6931

                      7                      8                      9
                      A                      A                      A
 Frequencies --    265.0686               280.1365               315.1004
 Red. masses --      7.4128                 2.5951                 7.2967
 Frc consts  --      0.3069                 0.1200                 0.4269
 IR Inten    --      3.4157                23.2139                 5.2365

                     10                     11                     12
                      A                      A                      A
 Frequencies --    354.8219               382.0463               433.7261
 Red. masses --      2.0183                 8.0864                 2.8749
 Frc consts  --      0.1497                 0.6954                 0.3186
 IR Inten    --     34.2133                 5.3933                 5.5207

                     13                     14                     15
                      A                      A                      A
 Frequencies --    441.8136               499.6438               524.4500
 Red. masses --      3.4987                 7.7878                 2.7072
 Frc consts  --      0.4024                 1.1455                 0.4387
 IR Inten    --      5.6372                 8.5713                 2.8290

                     16                     17                     18
                      A                      A                      A
 Frequencies --    536.6854               546.4255               562.2173
 Red. masses --      8.2875                 6.7271                 3.7643
 Frc consts  --      1.4064                 1.1834                 0.7010
 IR Inten    --      8.7713                 4.1771                 0.0428

                     19                     20                     21
                      A                      A                      A
 Frequencies --    582.4558               631.6684               662.0874
 Red. masses --      7.3955                 6.9538                 6.1324
 Frc consts  --      1.4782                 1.6348                 1.5838
 IR Inten    --     40.3463                 1.2854                 2.9865

                     22                     23                     24
                      A                      A                      A
 Frequencies --    694.7739               738.3061               750.4734
 Red. masses --      5.7683                 7.3952                 2.7513
 Frc consts  --      1.6405                 2.3751                 0.9130
 IR Inten    --     46.3629                38.6746                 8.2269

                     25                     26                     27
                      A                      A                      A
 Frequencies --    759.5891               775.9307               779.2310
 Red. masses --      1.4276                 1.5300                 2.4248
 Frc consts  --      0.4853                 0.5427                 0.8675
 IR Inten    --     47.5248                51.2584                24.5480

                     28                     29                     30
                      A                      A                      A
 Frequencies --    826.1149               875.6486               880.1410
 Red. masses --      6.1761                 2.0113                 1.3730
 Frc consts  --      2.4834                 0.9086                 0.6266
 IR Inten    --     27.6601                14.6022                 0.9846

                     31                     32                     33
                      A                      A                      A
 Frequencies --    904.6502               968.5431               969.4485
 Red. masses --      5.9449                 1.3224                 4.0176
 Frc consts  --      2.8665                 0.7309                 2.2247
 IR Inten    --      3.8624                 0.1779                28.2504

                     34                     35                     36
                      A                      A                      A
 Frequencies --    971.4126              1014.9433              1016.1483
 Red. masses --      1.3563                 1.3014                 1.3040
 Frc consts  --      0.7541                 0.7899                 0.7933
 IR Inten    --      1.3756                 0.0028                 0.3370

                     37                     38                     39
                      A                      A                      A
 Frequencies --   1044.8237              1060.6423              1088.7511
 Red. masses --      2.0905                 2.2043                 2.4723
 Frc consts  --      1.3446                 1.4610                 1.7266
 IR Inten    --      6.8880                11.8570                41.8161

                     40                     41                     42
                      A                      A                      A
 Frequencies --   1096.4365              1155.5990              1157.7383
 Red. masses --      2.4829                 1.2612                 1.3416
 Frc consts  --      1.7586                 0.9924                 1.0595
 IR Inten    --     38.0230                42.7047                 4.2096

                     43                     44                     45
                      A                      A                      A
 Frequencies --   1180.1673              1188.0189              1224.7111
 Red. masses --      1.1606                 1.1463                 2.2892
 Frc consts  --      0.9524                 0.9532                 2.0230
 IR Inten    --     56.7018                 2.9456                59.5034

                     46                     47                     48
                      A                      A                      A
 Frequencies --   1282.7055              1304.7171              1364.7958
 Red. masses --      2.1905                 1.6572                 2.5151
 Frc consts  --      2.1235                 1.6621                 2.7602
 IR Inten    --    122.6809               110.2378                68.4809

                     49                     50                     51
                      A                      A                      A
 Frequencies --   1377.1807              1397.4853              1413.1862
 Red. masses --      6.2817                 6.1020                 2.2273
 Frc consts  --      7.0196                 7.0213                 2.6207
 IR Inten    --     27.8757               109.1449                 6.3401

                     52                     53                     54
                      A                      A                      A
 Frequencies --   1484.1168              1503.2386              1532.6483
 Red. masses --      3.1379                 3.1655                 3.3018
 Frc consts  --      4.0722                 4.2145                 4.5697
 IR Inten    --    646.5049               847.5536               809.3652

                     55                     56                     57
                      A                      A                      A
 Frequencies --   1544.0906              1588.2522              1652.2525
 Red. masses --      3.6931                 6.6436                 6.0711
 Frc consts  --      5.1879                 9.8740                 9.7650
 IR Inten    --    184.7704                55.0497                53.9445

                     58                     59                     60
                      A                      A                      A
 Frequencies --   1679.6707              1711.7201              1741.5299
 Red. masses --      7.0844                 8.0416                 9.3561
 Frc consts  --     11.7762                13.8821                16.7189
 IR Inten    --     43.3659                39.0063               432.1062

                     61                     62                     63
                      A                      A                      A
 Frequencies --   3176.3045              3189.3842              3215.2521
 Red. masses --      1.0894                 1.0878                 1.0944
 Frc consts  --      6.4757                 6.5192                 6.6658
 IR Inten    --      5.8186                14.6978                29.8084

                     64                     65                     66
                      A                      A                      A
 Frequencies --   3217.6544              3228.5592              3231.0180
 Red. masses --      1.0868                 1.0910                 1.0965
 Frc consts  --      6.6294                 6.7006                 6.7445
 IR Inten    --      2.3708                 1.4100                19.4386

                     67                     68                     69
                      A                      A                      A
 Frequencies --   3236.2208              3245.4374              3962.6023
 Red. masses --      1.0965                 1.0991                 1.0781
 Frc consts  --      6.7660                 6.8211                 9.9743
 IR Inten    --      3.7175                12.3451               123.1439

 - Thermochemistry -
 -------------------
 Temperature   298.150 Kelvin.  Pressure   1.00000 Atm.
 Atom     1 has atomic number  6 and mass  12.00000

 Molecular mass:   227.04049 amu.
 Principal axes and moments of inertia in atomic units:
                           1         2         3
     Eigenvalues --  1287.188116407.700167694.88825
           X           -0.70705   0.70716   0.00000
           Y            0.70716   0.70705  -0.00001
           Z            0.00001   0.00000   1.00000
 This molecule is an asymmetric top.
 Rotational symmetry number  1.
 Warning -- assumption of classical behavior for rotation
           may cause significant error
 Rotational temperatures (Kelvin)      0.06729     0.01352     0.01126
 Rotational constants (GHZ):           1.40208     0.28165     0.23454
    1 imaginary frequencies ignored.
 Zero-point vibrational energy     496794.2 (Joules/Mol)
                                  118.73667 (Kcal/Mol)
 Warning -- explicit consideration of  18 degrees of freedom as
           vibrations may cause significant error
 Vibrational temperatures:     70.32   108.09   157.08   266.40   314.47
          (Kelvin)            381.37   403.05   453.36   510.51   549.68
                              624.04   635.67   718.88   754.57   772.17
                              786.18   808.91   838.02   908.83   952.60
                              999.62  1062.26  1079.76  1092.88  1116.39
                             1121.14  1188.60  1259.86  1266.33  1301.59
                             1393.52  1394.82  1397.65  1460.28  1462.01
                             1503.27  1526.03  1566.47  1577.53  1662.65
                             1665.73  1698.00  1709.29  1762.09  1845.53
                             1877.20  1963.64  1981.46  2010.67  2033.26
                             2135.31  2162.83  2205.14  2221.60  2285.14
                             2377.22  2416.67  2462.78  2505.67  4569.99
                             4588.81  4626.03  4629.49  4645.18  4648.71
                             4656.20  4669.46  5701.30

 Zero-point correction=                           0.189219 (Hartree/Particle)
 Thermal correction to Energy=                    0.200786
 Thermal correction to Enthalpy=                  0.201731
 Thermal correction to Gibbs Free Energy=         0.150931
 Sum of electronic and zero-point Energies=          -1028.603361
 Sum of electronic and thermal Energies=             -1028.591793
 Sum of electronic and thermal Enthalpies=           -1028.590849
 Sum of electronic and thermal Free Energies=        -1028.641648

                     E (Thermal)             CV                S
                      KCal/Mol        Cal/Mol-Kelvin    Cal/Mol-Kelvin
 Total                  125.995             47.367            106.916
 Electronic               0.000              0.000              0.000
 Translational            0.889              2.981             42.162
 Rotational               0.889              2.981             32.518
 Vibrational            124.218             41.405             32.236
 Vibration     1          0.595              1.978              4.862
 Vibration     2          0.599              1.966              4.014
 Vibration     3          0.606              1.942              3.284
 Vibration     4          0.631              1.860              2.276
 Vibration     5          0.646              1.813              1.971
 Vibration     6          0.671              1.737              1.628
 Vibration     7          0.680              1.710              1.533
 Vibration     8          0.702              1.645              1.335
 Vibration     9          0.731              1.565              1.145
 Vibration    10          0.752              1.508              1.031
 Vibration    11          0.794              1.397              0.847
 Vibration    12          0.802              1.379              0.821
 Vibration    13          0.855              1.251              0.659
 Vibration    14          0.879              1.196              0.600
 Vibration    15          0.892              1.169              0.572
 Vibration    16          0.902              1.148              0.552
 Vibration    17          0.918              1.113              0.519
 Vibration    18          0.939              1.069              0.481

                           ! Non-Optimized Parameters !
 Normal termination of Gaussian 16 at Tue Oct 27 22:34:45 2020.
