 Gaussian 16, Revision C.01,
 Gaussian 16:  ES64L-G16RevC.01  3-Jul-2019

 ----------------------------------------------------------------------
 #p opt=addgic freq wb97xd/cc-pvdz nosymm int=ultrafine scrf=(solvent=C
 arbonTetraChloride)
 ----------------------------------------------------------------------

 ------------------------------------------------
 NM 2D-scan of HBT TD-WB97XD pVDZ in CTC Relaxed.
 ------------------------------------------------
 Symbolic Z-matrix:
 Charge =  0 Multiplicity = 1

 SCF Done:  E(RwB97XD) =  -1028.71488461     A.U. after   15 cycles
 SCF Done:  E(RwB97XD) =  -1028.80969571     A.U. after   13 cycles
 SCF Done:  E(RwB97XD) =  -1028.80703077     A.U. after   15 cycles
 SCF Done:  E(RwB97XD) =  -1028.82762466     A.U. after   12 cycles
 SCF Done:  E(RwB97XD) =  -1028.82861357     A.U. after   11 cycles
 SCF Done:  E(RwB97XD) =  -1028.82874326     A.U. after   11 cycles
 SCF Done:  E(RwB97XD) =  -1028.82876517     A.U. after   10 cycles
 Optimization completed.
    -- Stationary point found.
 Normal termination of Gaussian 16 at Wed Oct 28 01:30:26 2020.

 --------------------------------------------------------------------
 #P Geom=AllCheck Guess=TCheck SCRF=Check GenChk RwB97XD/CC-pVDZ Freq
 --------------------------------------------------------------------

 Structure from the checkpoint file:  "config_1_19.chk"
 ------------------------------------------------
 NM 2D-scan of HBT TD-WB97XD pVDZ in CTC Relaxed.
 ------------------------------------------------
 Charge =  0 Multiplicity = 1

                          Input orientation:
 ---------------------------------------------------------------------
 Center     Atomic      Atomic             Coordinates (Angstroms)
 Number     Number       Type             X           Y           Z
 ---------------------------------------------------------------------
      1          6           0        1.520306   -3.297483   -0.000031
      2          6           0        0.981443   -2.011253   -0.000018
      3          6           0        1.779318   -0.850447   -0.000010
      4          6           0        3.174644   -0.995568   -0.000017
      5          6           0        3.718219   -2.275515   -0.000029
      6          6           0        2.902072   -3.418915   -0.000035
      7          1           0        0.874123   -4.175645   -0.000036
      8          1           0        3.812392   -0.110880   -0.000011
      9          1           0        4.802754   -2.394394   -0.000033
     10          1           0        3.357322   -4.410286   -0.000045
     11          7           0        1.060643    0.344260    0.000008
     12         16           0       -0.697804   -1.570599   -0.000009
     13          6           0       -1.272849    1.141290    0.000031
     14          6           0       -2.625483    0.755893    0.000040
     15          6           0       -0.947973    2.514809    0.000030
     16          6           0       -3.645265    1.688440    0.000036
     17          1           0       -2.883264   -0.304794    0.000047
     18          6           0       -1.989502    3.458539    0.000021
     19          6           0       -3.314809    3.049334    0.000022
     20          1           0       -4.686235    1.365837    0.000041
     21          1           0       -1.724009    4.516362    0.000015
     22          1           0       -4.105721    3.801638    0.000015
     23          6           0       -0.225836    0.122487    0.000015
     24          8           0        0.317635    2.952310    0.000038
     25          1           0        0.910878    2.164950    0.000043
 ---------------------------------------------------------------------

 SCF Done:  E(RwB97XD) =  -1028.82876517     A.U. after    1 cycles

 Alpha  occ. eigenvalues --  -89.08213 -19.28871 -14.47092 -10.39239 -10.37611
 Alpha  occ. eigenvalues --  -10.34942 -10.34494 -10.32355 -10.32114 -10.31907
 Alpha  occ. eigenvalues --  -10.31623 -10.31573 -10.31485 -10.31365 -10.30422
 Alpha  occ. eigenvalues --  -10.30405  -8.10332  -6.05174  -6.04818  -6.04384
 Alpha  occ. eigenvalues --   -1.16871  -1.08614  -0.97332  -0.96318  -0.91683
 Alpha  occ. eigenvalues --   -0.88563  -0.85485  -0.84770  -0.82761  -0.75449
 Alpha  occ. eigenvalues --   -0.71653  -0.70710  -0.69362  -0.68118  -0.63286
 Alpha  occ. eigenvalues --   -0.60396  -0.58786  -0.58550  -0.56654  -0.54587
 Alpha  occ. eigenvalues --   -0.53895  -0.53181  -0.53010  -0.50689  -0.50557
 Alpha  occ. eigenvalues --   -0.49071  -0.47733  -0.45889  -0.45486  -0.45052
 Alpha  occ. eigenvalues --   -0.44071  -0.43142  -0.42273  -0.39646  -0.37533
 Alpha  occ. eigenvalues --   -0.36211  -0.32011  -0.31731  -0.29327
 Alpha virt. eigenvalues --   -0.00435   0.04948   0.06715   0.07024   0.08211
 Alpha virt. eigenvalues --    0.11517   0.14434   0.15283   0.17129   0.18134
 Alpha virt. eigenvalues --    0.18816   0.20568   0.21500   0.22504   0.22560

 Mulliken charges:
               1
     1  C    0.014156
     2  C   -0.202161
     3  C    0.198497
     4  C   -0.018965
     5  C    0.003090
     6  C    0.001594
     7  H    0.017314
     8  H    0.017207
     9  H    0.019073
    10  H    0.020731
    11  N   -0.345919
    12  S    0.138427
    13  C   -0.031466
    14  C   -0.034479
    15  C    0.054287
    16  C   -0.002232
    17  H    0.024515
    18  C    0.009982
    19  C    0.021458
    20  H    0.010408
    21  H    0.018576
    22  H    0.019557
    23  C    0.081377
    24  O   -0.195413
    25  H    0.160388
 Sum of Mulliken charges =   0.00000

 Dipole moment (field-independent basis, Debye):
    X=             -0.3528    Y=             -2.2971    Z=             -0.0000  Tot=              2.3240
 Quadrupole moment (field-independent basis, Debye-Ang):
   XX=            -82.6952   YY=            -90.0014   ZZ=           -104.0854
   XY=             -7.0981   XZ=             -0.0001   YZ=              0.0000

  Exact polarizability:     272.589     -66.863     253.816      -0.001       0.001      62.889
 Approx polarizability:     261.040     -22.679     241.882      -0.001       0.001      82.125

                      1                      2                      3
                      A                      A                      A
 Frequencies --     29.8895                62.4626               119.9433
 Red. masses --      5.7099                 5.4527                 5.6700
 Frc consts  --      0.0030                 0.0125                 0.0481
 IR Inten    --      0.1392                 0.9601                 1.2991

                      4                      5                      6
                      A                      A                      A
 Frequencies --    150.3178               197.4172               246.9487
 Red. masses --      4.9981                 6.0476                 5.5462
 Frc consts  --      0.0665                 0.1389                 0.1993
 IR Inten    --      0.0050                 0.8437                 0.0030

                      7                      8                      9
                      A                      A                      A
 Frequencies --    267.8821               298.5610               329.9500
 Red. masses --      7.9521                 6.2766                 5.0490
 Frc consts  --      0.3362                 0.3296                 0.3239
 IR Inten    --      2.6337                 5.8799                 0.0461

                     10                     11                     12
                      A                      A                      A
 Frequencies --    415.0093               438.5549               469.0933
 Red. masses --      9.1026                 3.1096                 3.6679
 Frc consts  --      0.9237                 0.3524                 0.4755
 IR Inten    --      0.2756                 1.7589                 8.1588

                     13                     14                     15
                      A                      A                      A
 Frequencies --    512.5077               518.1930               536.0954
 Red. masses --      5.1240                 8.5751                 3.4172
 Frc consts  --      0.7930                 1.3567                 0.5786
 IR Inten    --      6.4857                 0.4471                 3.9997

                     16                     17                     18
                      A                      A                      A
 Frequencies --    550.3432               576.5391               590.8317
 Red. masses --      8.0644                 3.7649                 7.7191
 Frc consts  --      1.4391                 0.7373                 1.5876
 IR Inten    --      1.6566                 0.0197                 6.1603

                     19                     20                     21
                      A                      A                      A
 Frequencies --    644.9278               675.3195               729.3527
 Red. masses --      5.4544                 6.7506                 7.3786
 Frc consts  --      1.3367                 1.8139                 2.3126
 IR Inten    --      0.7008                 2.5081                32.4213

                     22                     23                     24
                      A                      A                      A
 Frequencies --    738.3267               744.6319               756.6781
 Red. masses --      8.6133                 1.4432                 1.8587
 Frc consts  --      2.7664                 0.4715                 0.6270
 IR Inten    --      5.0138                62.2985                25.4650

                     25                     26                     27
                      A                      A                      A
 Frequencies --    771.5776               782.5970               788.9832
 Red. masses --      1.6180                 1.6286                 1.9574
 Frc consts  --      0.5675                 0.5877                 0.7179
 IR Inten    --     71.5926                 1.9522                54.6559

                     28                     29                     30
                      A                      A                      A
 Frequencies --    846.7871               882.2877               884.1974
 Red. masses --      5.9531                 1.5528                 6.4833
 Frc consts  --      2.5150                 0.7122                 2.9864
 IR Inten    --     19.2946                 4.2874                 4.9497

                     31                     32                     33
                      A                      A                      A
 Frequencies --    887.8244               968.3720               975.9065
 Red. masses --      1.4233                 1.3652                 1.3683
 Frc consts  --      0.6610                 0.7543                 0.7678
 IR Inten    --      0.7657                 1.0185                 1.6076

                     34                     35                     36
                      A                      A                      A
 Frequencies --    994.6674              1011.5826              1015.0166
 Red. masses --      7.7235                 1.3051                 1.3059
 Frc consts  --      4.5022                 0.7868                 0.7927
 IR Inten    --     52.7688                 0.4259                 0.0207

                     37                     38                     39
                      A                      A                      A
 Frequencies --   1051.3119              1071.4384              1107.1338
 Red. masses --      1.9859                 1.9346                 3.4493
 Frc consts  --      1.2932                 1.3085                 2.4911
 IR Inten    --      8.4384                11.2761                 5.7384

                     40                     41                     42
                      A                      A                      A
 Frequencies --   1154.1009              1157.4004              1177.4619
 Red. masses --      1.4360                 1.3725                 1.1473
 Frc consts  --      1.1269                 1.0832                 0.9372
 IR Inten    --      3.4556                 3.5869                39.4137

                     43                     44                     45
                      A                      A                      A
 Frequencies --   1184.0891              1246.4159              1274.2777
 Red. masses --      1.2776                 2.0052                 2.5363
 Frc consts  --      1.0554                 1.8355                 2.4265
 IR Inten    --      0.4133               136.9176                83.3157

                     46                     47                     48
                      A                      A                      A
 Frequencies --   1283.6743              1317.4348              1337.5694
 Red. masses --      1.6506                 2.5394                 4.1523
 Frc consts  --      1.6025                 2.5968                 4.3769
 IR Inten    --     22.3229                22.7316                26.7300

                     49                     50                     51
                      A                      A                      A
 Frequencies --   1369.5055              1380.2107              1454.1125
 Red. masses --      7.5989                 4.3550                 1.7582
 Frc consts  --      8.3971                 4.8880                 2.1903
 IR Inten    --     14.7923                11.6943                47.9223

                     52                     53                     54
                      A                      A                      A
 Frequencies --   1485.4974              1503.8239              1531.9110
 Red. masses --      2.6036                 2.8701                 2.5829
 Frc consts  --      3.3851                 3.8241                 3.5713
 IR Inten    --     48.3546                14.4556                43.3976

                     55                     56                     57
                      A                      A                      A
 Frequencies --   1542.1335              1595.4706              1644.3716
 Red. masses --      2.6992                 7.8602                 6.7726
 Frc consts  --      3.7820                11.7885                10.7896
 IR Inten    --    169.9832               178.1282                 4.4844

                     58                     59                     60
                      A                      A                      A
 Frequencies --   1667.8370              1680.3974              1707.2573
 Red. masses --      5.1279                 6.8407                 5.7554
 Frc consts  --      8.4042                11.3809                 9.8837
 IR Inten    --    123.8333                 9.4010               107.8202

                     61                     62                     63
                      A                      A                      A
 Frequencies --   3207.3013              3209.0475              3213.9366
 Red. masses --      1.0874                 1.0860                 1.0894
 Frc consts  --      6.5904                 6.5891                 6.6297
 IR Inten    --      1.9137                 1.2710                 8.4854

                     64                     65                     66
                      A                      A                      A
 Frequencies --   3219.6774              3229.5765              3230.5612
 Red. masses --      1.0903                 1.0959                 1.0945
 Frc consts  --      6.6591                 6.7347                 6.7299
 IR Inten    --      3.9543                10.5491                11.1008

                     67                     68                     69
                      A                      A                      A
 Frequencies --   3236.1149              3240.4747              3438.0007
 Red. masses --      1.0998                 1.0993                 1.0675
 Frc consts  --      6.7860                 6.8013                 7.4338
 IR Inten    --     17.9667                14.1577               603.1338

 - Thermochemistry -
 -------------------
 Temperature   298.150 Kelvin.  Pressure   1.00000 Atm.
 Atom     1 has atomic number  6 and mass  12.00000

 Molecular mass:   227.04049 amu.
 Principal axes and moments of inertia in atomic units:
                           1         2         3
     Eigenvalues --  1292.209006372.902607665.11160
           X           -0.69640   0.71766   0.00000
           Y            0.71766   0.69640  -0.00001
           Z            0.00001   0.00000   1.00000
 This molecule is an asymmetric top.
 Rotational symmetry number  1.
 Warning -- assumption of classical behavior for rotation
           may cause significant error
 Rotational temperatures (Kelvin)      0.06703     0.01359     0.01130
 Rotational constants (GHZ):           1.39663     0.28319     0.23545
 Zero-point vibrational energy     499794.4 (Joules/Mol)
                                  119.45374 (Kcal/Mol)
 Warning -- explicit consideration of  18 degrees of freedom as
           vibrations may cause significant error
 Vibrational temperatures:     43.00    89.87   172.57   216.27   284.04
          (Kelvin)            355.30   385.42   429.56   474.72   597.11
                              630.98   674.92   737.38   745.56   771.32
                              791.82   829.51   850.08   927.91   971.63
                             1049.38  1062.29  1071.36  1088.69  1110.13
                             1125.98  1135.17  1218.34  1269.42  1272.16
                             1277.38  1393.27  1404.11  1431.10  1455.44
                             1460.38  1512.60  1541.56  1592.92  1660.49
                             1665.24  1694.11  1703.64  1793.31  1833.40
                             1846.92  1895.49  1924.46  1970.41  1985.82
                             2092.14  2137.30  2163.67  2204.08  2218.79
                             2295.53  2365.88  2399.65  2417.72  2456.36
                             4614.59  4617.10  4624.14  4632.40  4646.64
                             4648.06  4656.05  4662.32  4946.52

 Zero-point correction=                           0.190362 (Hartree/Particle)
 Thermal correction to Energy=                    0.202111
 Thermal correction to Enthalpy=                  0.203055
 Thermal correction to Gibbs Free Energy=         0.151336
 Sum of electronic and zero-point Energies=          -1028.638404
 Sum of electronic and thermal Energies=             -1028.626654
 Sum of electronic and thermal Enthalpies=           -1028.625710
 Sum of electronic and thermal Free Energies=        -1028.677429

                     E (Thermal)             CV                S
                      KCal/Mol        Cal/Mol-Kelvin    Cal/Mol-Kelvin
 Total                  126.826             47.730            108.851
 Electronic               0.000              0.000              0.000
 Translational            0.889              2.981             42.162
 Rotational               0.889              2.981             32.512
 Vibrational            125.049             41.768             34.177
 Vibration     1          0.594              1.984              5.837
 Vibration     2          0.597              1.972              4.378
 Vibration     3          0.609              1.933              3.101
 Vibration     4          0.618              1.902              2.668
 Vibration     5          0.637              1.843              2.157
 Vibration     6          0.661              1.768              1.752
 Vibration     7          0.673              1.732              1.610
 Vibration     8          0.692              1.676              1.425
 Vibration     9          0.713              1.616              1.260
 Vibration    10          0.778              1.438              0.909
 Vibration    11          0.799              1.386              0.831
 Vibration    12          0.826              1.319              0.740
 Vibration    13          0.868              1.222              0.628
 Vibration    14          0.873              1.210              0.614
 Vibration    15          0.891              1.170              0.574
 Vibration    16          0.906              1.139              0.543
 Vibration    17          0.933              1.082              0.492
 Vibration    18          0.948              1.051              0.466

                           ! Non-Optimized Parameters !
 Normal termination of Gaussian 16 at Wed Oct 28 01:36:27 2020.
