 Gaussian 16, Revision C.01,
 Gaussian 16:  ES64L-G16RevC.01  3-Jul-2019

 ----------------------------------------------------------------------
 #p opt=addgic freq wb97xd/cc-pvdz nosymm int=ultrafine scrf=(solvent=C
 arbonTetraChloride)
 ----------------------------------------------------------------------

 ------------------------------------------------
 NM 2D-scan of HBT TD-WB97XD pVDZ in CTC Relaxed.
 ------------------------------------------------
 Symbolic Z-matrix:
 Charge =  0 Multiplicity = 1

 SCF Done:  E(RwB97XD) =  -1028.80459488     A.U. after   15 cycles
 SCF Done:  E(RwB97XD) =  -1028.81170145     A.U. after   13 cycles
 SCF Done:  E(RwB97XD) =  -1028.81226644     A.U. after   13 cycles
 SCF Done:  E(RwB97XD) =  -1028.81260465     A.U. after   12 cycles
 SCF Done:  E(RwB97XD) =  -1028.81263706     A.U. after   10 cycles
 SCF Done:  E(RwB97XD) =  -1028.81263857     A.U. after   10 cycles
 SCF Done:  E(RwB97XD) =  -1028.81263754     A.U. after   10 cycles
 SCF Done:  E(RwB97XD) =  -1028.81263989     A.U. after   10 cycles
 Optimization completed.
    -- Stationary point found.
 Normal termination of Gaussian 16 at Wed Oct 28 00:18:44 2020.

 --------------------------------------------------------------------
 #P Geom=AllCheck Guess=TCheck SCRF=Check GenChk RwB97XD/CC-pVDZ Freq
 --------------------------------------------------------------------

 Structure from the checkpoint file:  "config_8_13.chk"
 ------------------------------------------------
 NM 2D-scan of HBT TD-WB97XD pVDZ in CTC Relaxed.
 ------------------------------------------------
 Charge =  0 Multiplicity = 1

                          Input orientation:
 ---------------------------------------------------------------------
 Center     Atomic      Atomic             Coordinates (Angstroms)
 Number     Number       Type             X           Y           Z
 ---------------------------------------------------------------------
      1          6           0        1.587302   -3.259991   -0.000003
      2          6           0        0.992841   -2.001179   -0.000009
      3          6           0        1.751261   -0.817981   -0.000026
      4          6           0        3.146551   -0.890634   -0.000045
      5          6           0        3.742196   -2.149262   -0.000037
      6          6           0        2.975963   -3.323068   -0.000016
      7          1           0        0.980083   -4.165565    0.000010
      8          1           0        3.746905    0.019352   -0.000061
      9          1           0        4.830664   -2.220384   -0.000049
     10          1           0        3.471446   -4.294584   -0.000011
     11          7           0        0.948023    0.319418   -0.000026
     12         16           0       -0.721589   -1.639046   -0.000004
     13          6           0       -1.334495    1.090841    0.000023
     14          6           0       -2.720421    0.784885    0.000010
     15          6           0       -0.858427    2.457057    0.000061
     16          6           0       -3.657712    1.782246    0.000011
     17          1           0       -3.040060   -0.260963   -0.000010
     18          6           0       -1.883307    3.465785    0.000058
     19          6           0       -3.215365    3.132850    0.000030
     20          1           0       -4.722459    1.550003   -0.000004
     21          1           0       -1.558831    4.507638    0.000086
     22          1           0       -3.961165    3.931679    0.000031
     23          6           0       -0.360377    0.066249    0.000002
     24          8           0        0.385318    2.741718    0.000123
     25          1           0        1.090351    1.412112   -0.000047
 ---------------------------------------------------------------------

 SCF Done:  E(RwB97XD) =  -1028.81263989     A.U. after    1 cycles

 Alpha  occ. eigenvalues --  -89.09764 -19.22313 -14.51136 -10.40863 -10.37156
 Alpha  occ. eigenvalues --  -10.36258 -10.35836 -10.33100 -10.32756 -10.32348
 Alpha  occ. eigenvalues --  -10.32201 -10.31337 -10.30896 -10.30583 -10.29320
 Alpha  occ. eigenvalues --  -10.28870  -8.11837  -6.06704  -6.06335  -6.05856
 Alpha  occ. eigenvalues --   -1.12790  -1.09728  -0.98331  -0.95499  -0.93118
 Alpha  occ. eigenvalues --   -0.89158  -0.86495  -0.83800  -0.82230  -0.75679
 Alpha  occ. eigenvalues --   -0.72127  -0.71944  -0.68732  -0.67983  -0.64440
 Alpha  occ. eigenvalues --   -0.60897  -0.59658  -0.56952  -0.55617  -0.55601
 Alpha  occ. eigenvalues --   -0.54901  -0.53728  -0.52910  -0.50439  -0.49865
 Alpha  occ. eigenvalues --   -0.49175  -0.48038  -0.46675  -0.45467  -0.44874
 Alpha  occ. eigenvalues --   -0.44440  -0.43139  -0.41852  -0.40561  -0.36661
 Alpha  occ. eigenvalues --   -0.33333  -0.32885  -0.31577  -0.26905
 Alpha virt. eigenvalues --   -0.01131   0.03964   0.05986   0.06936   0.08817
 Alpha virt. eigenvalues --    0.11077   0.14235   0.14827   0.16380   0.17576
 Alpha virt. eigenvalues --    0.18952   0.20362   0.21150   0.21645   0.23065

 Mulliken charges:
               1
     1  C    0.017450
     2  C   -0.229759
     3  C    0.264601
     4  C   -0.011213
     5  C    0.008391
     6  C    0.003753
     7  H    0.024020
     8  H    0.029688
     9  H    0.025932
    10  H    0.025453
    11  N   -0.196508
    12  S    0.183417
    13  C   -0.105875
    14  C   -0.016992
    15  C    0.115975
    16  C   -0.026301
    17  H    0.011168
    18  C   -0.015642
    19  C    0.025068
    20  H    0.003240
    21  H    0.004467
    22  H    0.014442
    23  C    0.069818
    24  O   -0.408105
    25  H    0.183513
 Sum of Mulliken charges =  -0.00000

 Dipole moment (field-independent basis, Debye):
    X=              1.2810    Y=             -4.9542    Z=             -0.0003  Tot=              5.1171
 Quadrupole moment (field-independent basis, Debye-Ang):
   XX=            -82.2548   YY=            -94.4220   ZZ=           -104.0050
   XY=             -7.0345   XZ=             -0.0003   YZ=             -0.0007

  Exact polarizability:     283.348     -82.130     278.157      -0.001       0.002      62.851
 Approx polarizability:     264.986     -29.908     254.341      -0.000       0.002      82.003

 ******    1 imaginary frequencies (negative Signs) ******

                      1                      2                      3
                      A                      A                      A
 Frequencies --   -255.7455                54.8371                77.8842
 Red. masses --      2.7156                 5.8144                 4.7389
 Frc consts  --      0.1047                 0.0103                 0.0169
 IR Inten    --    108.3776                 1.1563                 0.6286

                      4                      5                      6
                      A                      A                      A
 Frequencies --    146.4205               174.0038               201.2780
 Red. masses --      5.2924                 5.0929                 6.2509
 Frc consts  --      0.0669                 0.0909                 0.1492
 IR Inten    --      1.3846                 9.6729                 0.0485

                      7                      8                      9
                      A                      A                      A
 Frequencies --    238.9416               286.9089               313.6199
 Red. masses --      6.3084                 6.6476                 5.3663
 Frc consts  --      0.2122                 0.3224                 0.3110
 IR Inten    --      0.7675                 0.7555                 0.5356

                     10                     11                     12
                      A                      A                      A
 Frequencies --    417.6600               431.0596               453.7270
 Red. masses --     10.6643                 3.1863                 3.5753
 Frc consts  --      1.0960                 0.3488                 0.4337
 IR Inten    --      1.9729                 0.3234                10.4751

                     13                     14                     15
                      A                      A                      A
 Frequencies --    459.1760               513.5938               532.1574
 Red. masses --      3.6693                 8.7927                 2.9109
 Frc consts  --      0.4558                 1.3665                 0.4857
 IR Inten    --     11.3280                 9.8387                 4.6555

                     16                     17                     18
                      A                      A                      A
 Frequencies --    550.6101               564.2971               575.7795
 Red. masses --      8.7304                 3.7756                 6.6798
 Frc consts  --      1.5595                 0.7084                 1.3047
 IR Inten    --     11.2317                 0.0454                20.9923

                     19                     20                     21
                      A                      A                      A
 Frequencies --    615.5148               643.7822               713.4413
 Red. masses --      6.2310                 6.2452                 5.5436
 Frc consts  --      1.3909                 1.5250                 1.6625
 IR Inten    --      8.6279                 0.0338                13.1704

                     22                     23                     24
                      A                      A                      A
 Frequencies --    728.1468               751.9013               763.0377
 Red. masses --      6.8996                 2.5715                 1.4586
 Frc consts  --      2.1553                 0.8565                 0.5004
 IR Inten    --     53.0193                11.9810                52.9748

                     25                     26                     27
                      A                      A                      A
 Frequencies --    776.9948               778.6981               779.1284
 Red. masses --      1.7080                 2.2865                 4.4893
 Frc consts  --      0.6075                 0.8169                 1.6056
 IR Inten    --     16.4590                43.4461                37.5104

                     28                     29                     30
                      A                      A                      A
 Frequencies --    851.8637               877.6979               884.2074
 Red. masses --      6.0532                 1.8287                 1.3804
 Frc consts  --      2.5881                 0.8300                 0.6359
 IR Inten    --     15.1562                 9.5384                 0.6368

                     31                     32                     33
                      A                      A                      A
 Frequencies --    945.7868               966.4883               971.5755
 Red. masses --      5.4144                 1.3289                 1.3617
 Frc consts  --      2.8535                 0.7314                 0.7574
 IR Inten    --     20.4438                 0.3500                 1.8657

                     34                     35                     36
                      A                      A                      A
 Frequencies --   1014.7325              1016.4066              1034.6160
 Red. masses --      1.3051                 1.3074                 3.9079
 Frc consts  --      0.7917                 0.7958                 2.4646
 IR Inten    --      0.0141                 0.1153                15.1107

                     37                     38                     39
                      A                      A                      A
 Frequencies --   1050.0866              1054.5806              1055.4897
 Red. masses --      2.3649                 2.0399                 1.0732
 Frc consts  --      1.5365                 1.3367                 0.7044
 IR Inten    --      0.1117                10.3980                77.4959

                     40                     41                     42
                      A                      A                      A
 Frequencies --   1114.1758              1161.2416              1162.5349
 Red. masses --      3.0016                 1.3879                 1.2975
 Frc consts  --      2.1954                 1.1027                 1.0332
 IR Inten    --      8.0575                 0.2803                28.2221

                     43                     44                     45
                      A                      A                      A
 Frequencies --   1179.8265              1188.7945              1253.5491
 Red. masses --      1.1433                 1.2226                 1.9150
 Frc consts  --      0.9376                 1.0180                 1.7730
 IR Inten    --     37.4039                 5.0939                18.8145

                     46                     47                     48
                      A                      A                      A
 Frequencies --   1288.6052              1325.8753              1356.3386
 Red. masses --      1.5743                 2.7988                 3.8121
 Frc consts  --      1.5402                 2.8989                 4.1319
 IR Inten    --     25.3455               180.3986                25.1264

                     49                     50                     51
                      A                      A                      A
 Frequencies --   1372.0888              1399.4102              1417.9532
 Red. masses --      4.8248                 4.1129                 3.4104
 Frc consts  --      5.3517                 4.7456                 4.0399
 IR Inten    --     24.4826                 7.7784                50.4200

                     52                     53                     54
                      A                      A                      A
 Frequencies --   1491.9246              1501.7493              1514.7566
 Red. masses --      2.6731                 2.7421                 3.2131
 Frc consts  --      3.5056                 3.6436                 4.3437
 IR Inten    --     17.0873                33.9769                15.9935

                     55                     56                     57
                      A                      A                      A
 Frequencies --   1578.6045              1591.2185              1615.8023
 Red. masses --      4.7385                 4.7445                 8.4197
 Frc consts  --      6.9572                 7.0779                12.9516
 IR Inten    --   1910.3335               132.1405               388.0547

                     58                     59                     60
                      A                      A                      A
 Frequencies --   1656.9989              1679.9535              1710.4340
 Red. masses --      6.9649                 6.9061                 6.4515
 Frc consts  --     11.2670                11.4837                11.1204
 IR Inten    --     18.9338                23.9919               243.8690

                     61                     62                     63
                      A                      A                      A
 Frequencies --   2424.8005              3189.8404              3198.5436
 Red. masses --      1.1116                 1.0886                 1.0884
 Frc consts  --      3.8508                 6.5263                 6.5606
 IR Inten    --    562.2810                 2.9445                14.4316

                     64                     65                     66
                      A                      A                      A
 Frequencies --   3215.6239              3224.8549              3225.3340
 Red. masses --      1.0863                 1.0945                 1.0908
 Frc consts  --      6.6179                 6.7066                 6.6858
 IR Inten    --      1.1897                22.6138                 2.9921

                     67                     68                     69
                      A                      A                      A
 Frequencies --   3234.8446              3235.7844              3241.3127
 Red. masses --      1.0961                 1.0977                 1.0998
 Frc consts  --      6.7577                 6.7717                 6.8080
 IR Inten    --      6.0591                18.1845                10.5975

 - Thermochemistry -
 -------------------
 Temperature   298.150 Kelvin.  Pressure   1.00000 Atm.
 Atom     1 has atomic number  6 and mass  12.00000

 Molecular mass:   227.04049 amu.
 Principal axes and moments of inertia in atomic units:
                           1         2         3
     Eigenvalues --  1293.086266269.809817562.89607
           X           -0.70430   0.70990  -0.00000
           Y            0.70990   0.70430  -0.00001
           Z            0.00001   0.00001   1.00000
 This molecule is an asymmetric top.
 Rotational symmetry number  1.
 Warning -- assumption of classical behavior for rotation
           may cause significant error
 Rotational temperatures (Kelvin)      0.06698     0.01381     0.01145
 Rotational constants (GHZ):           1.39569     0.28785     0.23863
    1 imaginary frequencies ignored.
 Zero-point vibrational energy     490582.0 (Joules/Mol)
                                  117.25191 (Kcal/Mol)
 Warning -- explicit consideration of  18 degrees of freedom as
           vibrations may cause significant error
 Vibrational temperatures:     78.90   112.06   210.67   250.35   289.59
          (Kelvin)            343.78   412.80   451.23   600.92   620.20
                              652.81   660.65   738.95   765.66   792.21
                              811.90   828.42   885.59   926.26  1026.48
                             1047.64  1081.82  1097.84  1117.92  1120.37
                             1120.99  1225.64  1262.81  1272.18  1360.78
                             1390.56  1397.88  1459.97  1462.38  1488.58
                             1510.84  1517.31  1518.61  1603.05  1670.77
                             1672.63  1697.51  1710.41  1803.58  1854.02
                             1907.64  1951.47  1974.13  2013.44  2040.12
                             2146.55  2160.68  2179.40  2271.26  2289.41
                             2324.78  2384.05  2417.08  2460.93  3488.75
                             4589.47  4601.99  4626.57  4639.85  4640.54
                             4654.22  4655.57  4663.53

 Zero-point correction=                           0.186853 (Hartree/Particle)
 Thermal correction to Energy=                    0.198124
 Thermal correction to Enthalpy=                  0.199068
 Thermal correction to Gibbs Free Energy=         0.148957
 Sum of electronic and zero-point Energies=          -1028.625787
 Sum of electronic and thermal Energies=             -1028.614516
 Sum of electronic and thermal Enthalpies=           -1028.613572
 Sum of electronic and thermal Free Energies=        -1028.663683

                     E (Thermal)             CV                S
                      KCal/Mol        Cal/Mol-Kelvin    Cal/Mol-Kelvin
 Total                  124.325             46.419            105.467
 Electronic               0.000              0.000              0.000
 Translational            0.889              2.981             42.162
 Rotational               0.889              2.981             32.483
 Vibrational            122.547             40.458             30.822
 Vibration     1          0.596              1.976              4.635
 Vibration     2          0.599              1.964              3.943
 Vibration     3          0.617              1.907              2.718
 Vibration     4          0.627              1.874              2.392
 Vibration     5          0.638              1.838              2.121
 Vibration     6          0.657              1.781              1.811
 Vibration     7          0.684              1.698              1.492
 Vibration     8          0.701              1.648              1.343
 Vibration     9          0.781              1.432              0.900
 Vibration    10          0.792              1.403              0.855
 Vibration    11          0.812              1.353              0.785
 Vibration    12          0.817              1.341              0.769
 Vibration    13          0.869              1.220              0.625
 Vibration    14          0.887              1.179              0.582
 Vibration    15          0.906              1.138              0.543
 Vibration    16          0.920              1.109              0.515
 Vibration    17          0.932              1.084              0.493
 Vibration    18          0.975              0.999              0.424

 Optimization completed.
    -- Stationary point found.
 Normal termination of Gaussian 16 at Wed Oct 28 00:24:47 2020.
