 Gaussian 16, Revision C.01,
 Gaussian 16:  ES64L-G16RevC.01  3-Jul-2019

 ----------------------------------------------------------------------
 #p opt=addgic freq wb97xd/cc-pvdz nosymm int=ultrafine scrf=(solvent=C
 arbonTetraChloride)
 ----------------------------------------------------------------------

 ------------------------------------------------
 NM 2D-scan of HBT TD-WB97XD pVDZ in CTC Relaxed.
 ------------------------------------------------
 Symbolic Z-matrix:
 Charge =  0 Multiplicity = 1

 SCF Done:  E(RwB97XD) =  -1028.57063782     A.U. after   15 cycles
 SCF Done:  E(RwB97XD) =  -1028.77306788     A.U. after   13 cycles
 SCF Done:  E(RwB97XD) =  -1028.81568311     A.U. after   15 cycles
 SCF Done:  E(RwB97XD) =  -1028.82710770     A.U. after   13 cycles
 SCF Done:  E(RwB97XD) =  -1028.82828574     A.U. after   12 cycles
 SCF Done:  E(RwB97XD) =  -1028.82840478     A.U. after   11 cycles
 SCF Done:  E(RwB97XD) =  -1028.82841056     A.U. after    9 cycles
 SCF Done:  E(RwB97XD) =  -1028.82841098     A.U. after    8 cycles
 Optimization completed.
    -- Stationary point found.
 Normal termination of Gaussian 16 at Tue Oct 27 23:17:37 2020.

 --------------------------------------------------------------------
 #P Geom=AllCheck Guess=TCheck SCRF=Check GenChk RwB97XD/CC-pVDZ Freq
 --------------------------------------------------------------------

 Structure from the checkpoint file:  "config_1_11.chk"
 ------------------------------------------------
 NM 2D-scan of HBT TD-WB97XD pVDZ in CTC Relaxed.
 ------------------------------------------------
 Charge =  0 Multiplicity = 1

                          Input orientation:
 ---------------------------------------------------------------------
 Center     Atomic      Atomic             Coordinates (Angstroms)
 Number     Number       Type             X           Y           Z
 ---------------------------------------------------------------------
      1          6           0        1.635310   -3.323302   -0.000028
      2          6           0        0.968883   -2.091890   -0.000010
      3          6           0        1.697722   -0.886291   -0.000002
      4          6           0        3.096823   -0.894197   -0.000007
      5          6           0        3.755444   -2.111129   -0.000024
      6          6           0        3.027641   -3.313886   -0.000035
      7          1           0        1.086350   -4.265515   -0.000033
      8          1           0        3.633841    0.054840   -0.000000
      9          1           0        4.845946   -2.140202   -0.000030
     10          1           0        3.563701   -4.264335   -0.000047
     11          7           0        0.947439    0.268040    0.000008
     12         16           0       -0.745412   -1.717459    0.000011
     13          6           0       -1.324953    1.106116    0.000010
     14          6           0       -2.710405    0.836680    0.000002
     15          6           0       -0.918158    2.470275    0.000028
     16          6           0       -3.653073    1.849499    0.000022
     17          1           0       -3.047529   -0.202792   -0.000017
     18          6           0       -1.881797    3.486617    0.000053
     19          6           0       -3.229176    3.185820    0.000052
     20          1           0       -4.715774    1.607112    0.000017
     21          1           0       -1.522056    4.515962    0.000069
     22          1           0       -3.962050    3.994600    0.000070
     23          6           0       -0.329438    0.026202    0.000004
     24          8           0        0.351699    2.912158    0.000013
     25          1           0        0.949244    2.145660   -0.000012
 ---------------------------------------------------------------------

 SCF Done:  E(RwB97XD) =  -1028.82841098     A.U. after    1 cycles

 Alpha  occ. eigenvalues --  -89.08567 -19.28817 -14.46717 -10.39390 -10.37627
 Alpha  occ. eigenvalues --  -10.34813 -10.34586 -10.32756 -10.32312 -10.31931
 Alpha  occ. eigenvalues --  -10.31524 -10.31398 -10.31390 -10.31306 -10.30339
 Alpha  occ. eigenvalues --  -10.30123  -8.10529  -6.05390  -6.05037  -6.04573
 Alpha  occ. eigenvalues --   -1.16791  -1.08717  -0.97198  -0.96130  -0.91236
 Alpha  occ. eigenvalues --   -0.88494  -0.85328  -0.84599  -0.82813  -0.75435
 Alpha  occ. eigenvalues --   -0.71401  -0.70664  -0.69450  -0.68105  -0.63094
 Alpha  occ. eigenvalues --   -0.60172  -0.58631  -0.58411  -0.56491  -0.54505
 Alpha  occ. eigenvalues --   -0.53724  -0.53079  -0.52671  -0.50765  -0.50452
 Alpha  occ. eigenvalues --   -0.49117  -0.47865  -0.45777  -0.45312  -0.44948
 Alpha  occ. eigenvalues --   -0.43867  -0.43028  -0.42416  -0.39605  -0.37456
 Alpha  occ. eigenvalues --   -0.36142  -0.31968  -0.31757  -0.29183
 Alpha virt. eigenvalues --   -0.00392   0.04934   0.06736   0.07136   0.07662
 Alpha virt. eigenvalues --    0.11621   0.13716   0.15177   0.16218   0.17802
 Alpha virt. eigenvalues --    0.18874   0.20317   0.21643   0.22478   0.22797

 Mulliken charges:
               1
     1  C    0.003707
     2  C   -0.205978
     3  C    0.212302
     4  C   -0.013894
     5  C    0.006424
     6  C   -0.001410
     7  H    0.019256
     8  H    0.015216
     9  H    0.018602
    10  H    0.020914
    11  N   -0.324712
    12  S    0.133746
    13  C   -0.048403
    14  C   -0.023101
    15  C    0.055721
    16  C   -0.004327
    17  H    0.015252
    18  C    0.018200
    19  C    0.019595
    20  H    0.010472
    21  H    0.017724
    22  H    0.018730
    23  C    0.071642
    24  O   -0.188696
    25  H    0.153019
 Sum of Mulliken charges =  -0.00000

 Dipole moment (field-independent basis, Debye):
    X=             -0.0403    Y=             -2.0358    Z=             -0.0000  Tot=              2.0362
 Quadrupole moment (field-independent basis, Debye-Ang):
   XX=            -82.6741   YY=            -89.7533   ZZ=           -104.2148
   XY=             -6.8254   XZ=             -0.0002   YZ=              0.0002

  Exact polarizability:     274.345     -65.773     255.671      -0.001       0.002      63.061
 Approx polarizability:     262.606     -22.360     243.013      -0.001       0.002      82.217

                      1                      2                      3
                      A                      A                      A
 Frequencies --     50.9406                59.8502               109.6597
 Red. masses --      6.4544                 4.9565                 5.6448
 Frc consts  --      0.0099                 0.0105                 0.0400
 IR Inten    --      0.9232                 0.1325                 1.0994

                      4                      5                      6
                      A                      A                      A
 Frequencies --    150.5670               199.4872               245.6420
 Red. masses --      4.9373                 5.8627                 5.7600
 Frc consts  --      0.0659                 0.1375                 0.2048
 IR Inten    --      0.0034                 0.4988                 0.0501

                      7                      8                      9
                      A                      A                      A
 Frequencies --    254.8304               287.3751               327.0607
 Red. masses --      8.0808                 6.2391                 5.0438
 Frc consts  --      0.3092                 0.3036                 0.3179
 IR Inten    --      4.5859                 4.4793                 0.3359

                     10                     11                     12
                      A                      A                      A
 Frequencies --    402.8478               439.9009               470.9966
 Red. masses --      8.4961                 3.1628                 3.7597
 Frc consts  --      0.8124                 0.3606                 0.4914
 IR Inten    --      0.2437                 1.9422                 8.5948

                     13                     14                     15
                      A                      A                      A
 Frequencies --    495.0259               515.0624               538.4377
 Red. masses --      4.7089                 8.7521                 3.4383
 Frc consts  --      0.6799                 1.3680                 0.5873
 IR Inten    --      4.7035                 0.1848                 3.9305

                     16                     17                     18
                      A                      A                      A
 Frequencies --    545.4492               574.3917               593.5769
 Red. masses --      8.6074                 3.7388                 7.7201
 Frc consts  --      1.5088                 0.7268                 1.6026
 IR Inten    --      2.5173                 0.0003                 6.6118

                     19                     20                     21
                      A                      A                      A
 Frequencies --    623.8779               664.1830               675.3447
 Red. masses --      1.5924                 2.1457                 6.6284
 Frc consts  --      0.3652                 0.5577                 1.7812
 IR Inten    --     48.0536                46.6474                 3.3795

                     22                     23                     24
                      A                      A                      A
 Frequencies --    698.5383               723.6817               756.1160
 Red. masses --      8.9988                 7.2416                 1.9449
 Frc consts  --      2.5871                 2.2345                 0.6551
 IR Inten    --     46.0892                 1.2818                23.4583

                     25                     26                     27
                      A                      A                      A
 Frequencies --    767.4174               778.6278               789.1389
 Red. masses --      3.6601                 1.3158                 1.9323
 Frc consts  --      1.2700                 0.4700                 0.7090
 IR Inten    --     11.0604                49.9450                39.7674

                     28                     29                     30
                      A                      A                      A
 Frequencies --    840.2630               885.6617               888.7999
 Red. masses --      6.0658                 1.5347                 1.4284
 Frc consts  --      2.5233                 0.7093                 0.6648
 IR Inten    --     25.6115                 3.7865                 0.7379

                     31                     32                     33
                      A                      A                      A
 Frequencies --    890.1548               973.0734               976.9939
 Red. masses --      6.4267                 1.3563                 1.3647
 Frc consts  --      3.0003                 0.7567                 0.7675
 IR Inten    --      3.3000                 1.1916                 1.4981

                     34                     35                     36
                      A                      A                      A
 Frequencies --    977.6844              1011.8810              1015.5974
 Red. masses --      7.6625                 1.3022                 1.3044
 Frc consts  --      4.3153                 0.7855                 0.7927
 IR Inten    --     67.6925                 0.3299                 0.0123

                     37                     38                     39
                      A                      A                      A
 Frequencies --   1051.6754              1071.8648              1096.5793
 Red. masses --      2.0105                 2.0272                 4.5064
 Frc consts  --      1.3101                 1.3722                 3.1927
 IR Inten    --      8.1928                15.4115                 6.2223

                     40                     41                     42
                      A                      A                      A
 Frequencies --   1146.5229              1151.3126              1177.0063
 Red. masses --      1.5561                 1.2938                 1.1237
 Frc consts  --      1.2052                 1.0104                 0.9172
 IR Inten    --      4.9331                 5.2027                46.9129

                     43                     44                     45
                      A                      A                      A
 Frequencies --   1184.9713              1228.8849              1276.0931
 Red. masses --      1.2001                 1.6129                 2.1394
 Frc consts  --      0.9929                 1.4351                 2.0526
 IR Inten    --      0.3056               179.8580                75.8888

                     46                     47                     48
                      A                      A                      A
 Frequencies --   1282.9433              1310.6392              1345.5341
 Red. masses --      1.5867                 5.4106                 2.9478
 Frc consts  --      1.5388                 5.4760                 3.1444
 IR Inten    --      2.2948                32.4420                 7.5311

                     49                     50                     51
                      A                      A                      A
 Frequencies --   1367.5785              1372.8258              1408.0837
 Red. masses --      8.1201                 2.4641                 2.0188
 Frc consts  --      8.9478                 2.7362                 2.3584
 IR Inten    --     16.3230                 3.7777                83.7144

                     52                     53                     54
                      A                      A                      A
 Frequencies --   1489.3618              1500.2917              1517.6373
 Red. masses --      2.6466                 2.9250                 3.5420
 Frc consts  --      3.4588                 3.8790                 4.8065
 IR Inten    --     33.2598                 3.4317                76.6772

                     55                     56                     57
                      A                      A                      A
 Frequencies --   1531.2347              1602.0543              1642.8732
 Red. masses --      2.7301                 8.9030                 6.6282
 Frc consts  --      3.7715                13.4629                10.5402
 IR Inten    --    102.4238               197.1738                 9.8980

                     58                     59                     60
                      A                      A                      A
 Frequencies --   1651.2924              1683.4343              1709.2919
 Red. masses --      5.8199                 6.9260                 6.4968
 Frc consts  --      9.3501                11.5644                11.1836
 IR Inten    --     99.8150                 2.4050                91.0985

                     61                     62                     63
                      A                      A                      A
 Frequencies --   3200.5867              3211.2900              3213.2823
 Red. masses --      1.0885                 1.0861                 1.0885
 Frc consts  --      6.5695                 6.5992                 6.6216
 IR Inten    --      3.8290                 1.3581                 6.0253

                     64                     65                     66
                      A                      A                      A
 Frequencies --   3222.7813              3231.1291              3233.6747
 Red. masses --      1.0906                 1.0941                 1.0959
 Frc consts  --      6.6736                 6.7302                 6.7515
 IR Inten    --      5.5052                10.4189                12.1088

                     67                     68                     69
                      A                      A                      A
 Frequencies --   3238.7798              3239.5522              3654.4769
 Red. masses --      1.0997                 1.0995                 1.0664
 Frc consts  --      6.7964                 6.7987                 8.3914
 IR Inten    --     18.7710                11.0057               476.0791

 - Thermochemistry -
 -------------------
 Temperature   298.150 Kelvin.  Pressure   1.00000 Atm.
 Atom     1 has atomic number  6 and mass  12.00000

 Molecular mass:   227.04049 amu.
 Principal axes and moments of inertia in atomic units:
                           1         2         3
     Eigenvalues --  1332.553066399.809117732.36217
           X           -0.69307   0.72087   0.00000
           Y            0.72087   0.69307  -0.00001
           Z            0.00001   0.00000   1.00000
 This molecule is an asymmetric top.
 Rotational symmetry number  1.
 Warning -- assumption of classical behavior for rotation
           may cause significant error
 Rotational temperatures (Kelvin)      0.06500     0.01353     0.01120
 Rotational constants (GHZ):           1.35435     0.28200     0.23340
 Zero-point vibrational energy     499104.0 (Joules/Mol)
                                  119.28872 (Kcal/Mol)
 Warning -- explicit consideration of  18 degrees of freedom as
           vibrations may cause significant error
 Vibrational temperatures:     73.29    86.11   157.78   216.63   287.02
          (Kelvin)            353.42   366.64   413.47   470.57   579.61
                              632.92   677.66   712.23   741.06   774.69
                              784.78   826.42   854.02   897.62   955.61
                              971.67  1005.04  1041.22  1087.88  1104.14
                             1120.27  1135.39  1208.95  1274.27  1278.78
                             1280.73  1400.04  1405.68  1406.67  1455.87
                             1461.22  1513.13  1542.17  1577.73  1649.59
                             1656.48  1693.45  1704.91  1768.09  1836.01
                             1845.87  1885.72  1935.92  1967.64  1975.19
                             2025.92  2142.86  2158.59  2183.54  2203.11
                             2305.00  2363.73  2375.84  2422.09  2459.29
                             4604.93  4620.33  4623.20  4636.86  4648.87
                             4652.54  4659.88  4660.99  5257.98

 Zero-point correction=                           0.190099 (Hartree/Particle)
 Thermal correction to Energy=                    0.201954
 Thermal correction to Enthalpy=                  0.202899
 Thermal correction to Gibbs Free Energy=         0.151330
 Sum of electronic and zero-point Energies=          -1028.638312
 Sum of electronic and thermal Energies=             -1028.626457
 Sum of electronic and thermal Enthalpies=           -1028.625512
 Sum of electronic and thermal Free Energies=        -1028.677081

                     E (Thermal)             CV                S
                      KCal/Mol        Cal/Mol-Kelvin    Cal/Mol-Kelvin
 Total                  126.728             48.206            108.536
 Electronic               0.000              0.000              0.000
 Translational            0.889              2.981             42.162
 Rotational               0.889              2.981             32.556
 Vibrational            124.951             42.245             33.818
 Vibration     1          0.595              1.977              4.781
 Vibration     2          0.597              1.973              4.462
 Vibration     3          0.606              1.941              3.275
 Vibration     4          0.618              1.902              2.665
 Vibration     5          0.638              1.841              2.138
 Vibration     6          0.660              1.770              1.762
 Vibration     7          0.665              1.755              1.697
 Vibration     8          0.685              1.697              1.489
 Vibration     9          0.711              1.621              1.275
 Vibration    10          0.768              1.464              0.952
 Vibration    11          0.800              1.383              0.827
 Vibration    12          0.828              1.314              0.735
 Vibration    13          0.851              1.261              0.671
 Vibration    14          0.870              1.217              0.622
 Vibration    15          0.893              1.165              0.569
 Vibration    16          0.901              1.150              0.554
 Vibration    17          0.931              1.087              0.496
 Vibration    18          0.951              1.045              0.461

 Optimization completed.
    -- Stationary point found.
 Normal termination of Gaussian 16 at Tue Oct 27 23:23:32 2020.
