 Gaussian 16, Revision C.01,
 Gaussian 16:  ES64L-G16RevC.01  3-Jul-2019

 ----------------------------------------------------------------------
 #p opt=addgic freq wb97xd/cc-pvdz nosymm int=ultrafine scrf=(solvent=C
 arbonTetraChloride)
 ----------------------------------------------------------------------

 ------------------------------------------------
 NM 2D-scan of HBT TD-WB97XD pVDZ in CTC Relaxed.
 ------------------------------------------------
 Symbolic Z-matrix:
 Charge =  0 Multiplicity = 1

 SCF Done:  E(RwB97XD) =  -1028.81889803     A.U. after   15 cycles
 SCF Done:  E(RwB97XD) =  -1028.82806171     A.U. after   13 cycles
 SCF Done:  E(RwB97XD) =  -1028.82882246     A.U. after   12 cycles
 SCF Done:  E(RwB97XD) =  -1028.82908354     A.U. after   11 cycles
 SCF Done:  E(RwB97XD) =  -1028.82915095     A.U. after   10 cycles
 SCF Done:  E(RwB97XD) =  -1028.82915296     A.U. after    9 cycles
 SCF Done:  E(RwB97XD) =  -1028.82915310     A.U. after    8 cycles
 SCF Done:  E(RwB97XD) =  -1028.82915308     A.U. after    8 cycles
 SCF Done:  E(RwB97XD) =  -1028.82915318     A.U. after    7 cycles
 Optimization completed.
    -- Stationary point found.
 Normal termination of Gaussian 16 at Tue Oct 27 23:50:19 2020.

 --------------------------------------------------------------------
 #P Geom=AllCheck Guess=TCheck SCRF=Check GenChk RwB97XD/CC-pVDZ Freq
 --------------------------------------------------------------------

 Structure from the checkpoint file:  "config_4_11.chk"
 ------------------------------------------------
 NM 2D-scan of HBT TD-WB97XD pVDZ in CTC Relaxed.
 ------------------------------------------------
 Charge =  0 Multiplicity = 1

                          Input orientation:
 ---------------------------------------------------------------------
 Center     Atomic      Atomic             Coordinates (Angstroms)
 Number     Number       Type             X           Y           Z
 ---------------------------------------------------------------------
      1          6           0        1.623111   -3.278920   -0.000043
      2          6           0        0.991975   -2.034746   -0.000022
      3          6           0        1.724153   -0.836494   -0.000001
      4          6           0        3.123995   -0.873958    0.000001
      5          6           0        3.754286   -2.111387   -0.000019
      6          6           0        3.012182   -3.303284   -0.000041
      7          1           0        1.044775   -4.203161   -0.000060
      8          1           0        3.692739    0.056413    0.000018
      9          1           0        4.844207   -2.158649   -0.000018
     10          1           0        3.531264   -4.262767   -0.000058
     11          7           0        0.934081    0.298608    0.000016
     12         16           0       -0.722988   -1.679734   -0.000018
     13          6           0       -1.349134    1.089804    0.000022
     14          6           0       -2.725407    0.818666    0.000030
     15          6           0       -0.893248    2.434937    0.000022
     16          6           0       -3.657797    1.844179    0.000037
     17          1           0       -3.066553   -0.219595    0.000030
     18          6           0       -1.852676    3.465495    0.000027
     19          6           0       -3.208289    3.171053    0.000035
     20          1           0       -4.724186    1.618594    0.000043
     21          1           0       -1.496999    4.496584    0.000026
     22          1           0       -3.932171    3.988447    0.000039
     23          6           0       -0.345761    0.031777    0.000011
     24          8           0        0.398358    2.735642    0.000015
     25          1           0        0.906569    1.855782    0.000014
 ---------------------------------------------------------------------

 SCF Done:  E(RwB97XD) =  -1028.82915318     A.U. after    1 cycles

 Alpha  occ. eigenvalues --  -89.08790 -19.27354 -14.47087 -10.39510 -10.37226
 Alpha  occ. eigenvalues --  -10.35097 -10.34854 -10.32389 -10.32068 -10.31816
 Alpha  occ. eigenvalues --  -10.31786 -10.31658 -10.31572 -10.31363 -10.30151
 Alpha  occ. eigenvalues --  -10.30034  -8.10844  -6.05696  -6.05336  -6.04893
 Alpha  occ. eigenvalues --   -1.16093  -1.09114  -0.97336  -0.96145  -0.91782
 Alpha  occ. eigenvalues --   -0.88625  -0.85459  -0.84447  -0.83011  -0.75533
 Alpha  occ. eigenvalues --   -0.71434  -0.70575  -0.69413  -0.68212  -0.63222
 Alpha  occ. eigenvalues --   -0.60647  -0.58908  -0.58334  -0.56338  -0.54518
 Alpha  occ. eigenvalues --   -0.54245  -0.53297  -0.52734  -0.50934  -0.50243
 Alpha  occ. eigenvalues --   -0.49440  -0.47462  -0.46007  -0.45397  -0.45034
 Alpha  occ. eigenvalues --   -0.43950  -0.42831  -0.42738  -0.39879  -0.36852
 Alpha  occ. eigenvalues --   -0.36228  -0.32227  -0.31662  -0.28967
 Alpha virt. eigenvalues --   -0.00498   0.04760   0.06842   0.07284   0.07740
 Alpha virt. eigenvalues --    0.11352   0.14266   0.15151   0.16562   0.17974
 Alpha virt. eigenvalues --    0.18977   0.20952   0.21728   0.22596   0.22678

 Mulliken charges:
               1
     1  C    0.011631
     2  C   -0.219678
     3  C    0.236307
     4  C   -0.014609
     5  C    0.005695
     6  C    0.001358
     7  H    0.019204
     8  H    0.019971
     9  H    0.020586
    10  H    0.021865
    11  N   -0.349231
    12  S    0.151724
    13  C   -0.063236
    14  C   -0.024228
    15  C    0.075844
    16  C   -0.008869
    17  H    0.013931
    18  C    0.003356
    19  C    0.021008
    20  H    0.009202
    21  H    0.015227
    22  H    0.018286
    23  C    0.085250
    24  O   -0.221204
    25  H    0.170609
 Sum of Mulliken charges =  -0.00000

 Dipole moment (field-independent basis, Debye):
    X=              0.0601    Y=             -2.7623    Z=             -0.0000  Tot=              2.7630
 Quadrupole moment (field-independent basis, Debye-Ang):
   XX=            -82.7239   YY=            -90.3001   ZZ=           -104.0581
   XY=             -7.2253   XZ=             -0.0001   YZ=              0.0002

  Exact polarizability:     274.776     -67.657     255.574      -0.001       0.002      62.923
 Approx polarizability:     262.426     -23.412     242.439      -0.001       0.002      82.168

                      1                      2                      3
                      A                      A                      A
 Frequencies --     35.6537                62.5625               123.7247
 Red. masses --      5.4361                 5.9182                 5.6379
 Frc consts  --      0.0041                 0.0136                 0.0508
 IR Inten    --      0.0318                 1.2832                 1.6399

                      4                      5                      6
                      A                      A                      A
 Frequencies --    152.6813               198.0047               244.9170
 Red. masses --      5.0257                 5.9757                 5.6898
 Frc consts  --      0.0690                 0.1380                 0.2011
 IR Inten    --      0.0848                 0.6263                 0.0476

                      7                      8                      9
                      A                      A                      A
 Frequencies --    274.3521               326.5608               328.5110
 Red. masses --      7.4615                 6.3839                 5.1264
 Frc consts  --      0.3309                 0.4011                 0.3260
 IR Inten    --      0.7812                 8.5296                 0.1852

                     10                     11                     12
                      A                      A                      A
 Frequencies --    414.0059               437.0870               465.0597
 Red. masses --     10.0062                 3.1229                 3.6542
 Frc consts  --      1.0105                 0.3515                 0.4656
 IR Inten    --      0.0902                 2.0069                 8.0268

                     13                     14                     15
                      A                      A                      A
 Frequencies --    516.6047               525.2796               538.3514
 Red. masses --      8.5620                 5.4104                 3.4666
 Frc consts  --      1.3463                 0.8796                 0.5919
 IR Inten    --      0.0430                13.6228                 3.5637

                     16                     17                     18
                      A                      A                      A
 Frequencies --    553.9189               575.3162               591.7155
 Red. masses --      7.5409                 3.7159                 7.6495
 Frc consts  --      1.3632                 0.7247                 1.5780
 IR Inten    --      3.5683                 0.0432                 4.3483

                     19                     20                     21
                      A                      A                      A
 Frequencies --    647.9192               683.3741               722.6275
 Red. masses --      6.2490                 6.4669                 6.6736
 Frc consts  --      1.5456                 1.7794                 2.0532
 IR Inten    --      0.0001                 6.2369                22.3376

                     22                     23                     24
                      A                      A                      A
 Frequencies --    749.9395               756.0703               766.9832
 Red. masses --     10.3062                 2.0085                 3.1807
 Frc consts  --      3.4151                 0.6765                 1.1024
 IR Inten    --     15.7482                27.0724                 1.3595

                     25                     26                     27
                      A                      A                      A
 Frequencies --    775.8008               786.1425               849.9371
 Red. masses --      1.3549                 1.9061                 5.9516
 Frc consts  --      0.4805                 0.6941                 2.5331
 IR Inten    --     61.8859                38.0387                17.6652

                     28                     29                     30
                      A                      A                      A
 Frequencies --    883.5385               887.0027               901.2840
 Red. masses --      1.5608                 1.4128                 6.6316
 Frc consts  --      0.7179                 0.6549                 3.1739
 IR Inten    --      5.2934                 0.1234                 2.4870

                     31                     32                     33
                      A                      A                      A
 Frequencies --    950.4936               969.6899               975.9430
 Red. masses --      1.0783                 1.3583                 1.3636
 Frc consts  --      0.5740                 0.7525                 0.7652
 IR Inten    --     75.0706                 0.5263                 2.9361

                     34                     35                     36
                      A                      A                      A
 Frequencies --   1000.4805              1010.9283              1015.8891
 Red. masses --      7.5641                 1.3020                 1.3049
 Frc consts  --      4.4610                 0.7840                 0.7934
 IR Inten    --     52.8543                 0.5478                 0.0517

                     37                     38                     39
                      A                      A                      A
 Frequencies --   1052.8272              1068.2512              1100.9528
 Red. masses --      1.9986                 1.9257                 3.9784
 Frc consts  --      1.3052                 1.2947                 2.8412
 IR Inten    --      8.7012                 9.8881                 5.6518

                     40                     41                     42
                      A                      A                      A
 Frequencies --   1150.3835              1155.0392              1174.3670
 Red. masses --      1.4657                 1.3287                 1.1245
 Frc consts  --      1.1428                 1.0444                 0.9137
 IR Inten    --      9.6758                 3.0372                42.6168

                     43                     44                     45
                      A                      A                      A
 Frequencies --   1185.1844              1258.5107              1286.7734
 Red. masses --      1.2043                 1.8833                 1.5740
 Frc consts  --      0.9967                 1.7575                 1.5355
 IR Inten    --      0.3808                91.4547                 0.8478

                     46                     47                     48
                      A                      A                      A
 Frequencies --   1297.4229              1334.7565              1353.2229
 Red. masses --      2.8431                 3.1703                 4.5321
 Frc consts  --      2.8198                 3.3277                 4.8898
 IR Inten    --    186.1882                25.0656                 7.7019

                     49                     50                     51
                      A                      A                      A
 Frequencies --   1376.7219              1378.9182              1485.7573
 Red. masses --      7.6117                 3.7434                 2.5624
 Frc consts  --      8.5001                 4.1937                 3.3327
 IR Inten    --     11.9220                19.1682                 2.9156

                     52                     53                     54
                      A                      A                      A
 Frequencies --   1492.4928              1503.5444              1523.9892
 Red. masses --      2.5699                 2.9079                 4.0426
 Frc consts  --      3.3728                 3.8731                 5.5319
 IR Inten    --     42.6266                 7.3011               127.5983

                     55                     56                     57
                      A                      A                      A
 Frequencies --   1577.1686              1595.9285              1651.9174
 Red. masses --      4.3484                 2.8760                 6.8581
 Frc consts  --      6.3729                 4.3158                11.0263
 IR Inten    --    265.3532                37.1925                 6.1368

                     58                     59                     60
                      A                      A                      A
 Frequencies --   1678.4216              1686.8481              1712.4936
 Red. masses --      6.7737                 3.1183                 3.3036
 Frc consts  --     11.2430                 5.2278                 5.7081
 IR Inten    --     28.8393               192.2176               178.9823

                     61                     62                     63
                      A                      A                      A
 Frequencies --   2820.6162              3198.5577              3208.6917
 Red. masses --      1.0761                 1.0889                 1.0887
 Frc consts  --      5.0440                 6.5634                 6.6041
 IR Inten    --   1318.4105                 4.5020                 5.9585

                     64                     65                     66
                      A                      A                      A
 Frequencies --   3212.9119              3224.0176              3229.0565
 Red. masses --      1.0862                 1.0906                 1.0939
 Frc consts  --      6.6061                 6.6793                 6.7200
 IR Inten    --      1.7263                 4.0715                12.3633

                     67                     68                     69
                      A                      A                      A
 Frequencies --   3234.6097              3237.2694              3240.3677
 Red. masses --      1.0960                 1.0989                 1.0996
 Frc consts  --      6.7560                 6.7850                 6.8023
 IR Inten    --      9.6213                17.2245                13.0258

 - Thermochemistry -
 -------------------
 Temperature   298.150 Kelvin.  Pressure   1.00000 Atm.
 Atom     1 has atomic number  6 and mass  12.00000

 Molecular mass:   227.04049 amu.
 Principal axes and moments of inertia in atomic units:
                           1         2         3
     Eigenvalues --  1297.393726305.135317602.52903
           X           -0.70213   0.71205   0.00000
           Y            0.71205   0.70213  -0.00001
           Z            0.00001   0.00001   1.00000
 This molecule is an asymmetric top.
 Rotational symmetry number  1.
 Warning -- assumption of classical behavior for rotation
           may cause significant error
 Rotational temperatures (Kelvin)      0.06676     0.01374     0.01139
 Rotational constants (GHZ):           1.39105     0.28623     0.23739
 Zero-point vibrational energy     498761.1 (Joules/Mol)
                                  119.20676 (Kcal/Mol)
 Warning -- explicit consideration of  18 degrees of freedom as
           vibrations may cause significant error
 Vibrational temperatures:     51.30    90.01   178.01   219.67   284.88
          (Kelvin)            352.38   394.73   469.85   472.65   595.66
                              628.87   669.12   743.28   755.76   774.57
                              796.97   827.75   851.35   932.21   983.22
                             1039.70  1079.00  1087.82  1103.52  1116.20
                             1131.08  1222.87  1271.21  1276.20  1296.75
                             1367.55  1395.17  1404.16  1439.47  1454.50
                             1461.64  1514.78  1536.98  1584.03  1655.15
                             1661.84  1689.65  1705.22  1810.72  1851.38
                             1866.70  1920.42  1946.99  1980.80  1983.96
                             2137.67  2147.36  2163.27  2192.68  2269.19
                             2296.19  2376.74  2414.87  2427.00  2463.90
                             4058.24  4602.01  4616.59  4622.66  4638.64
                             4645.89  4653.88  4657.71  4662.17

 Zero-point correction=                           0.189968 (Hartree/Particle)
 Thermal correction to Energy=                    0.201586
 Thermal correction to Enthalpy=                  0.202530
 Thermal correction to Gibbs Free Energy=         0.151202
 Sum of electronic and zero-point Energies=          -1028.639185
 Sum of electronic and thermal Energies=             -1028.627567
 Sum of electronic and thermal Enthalpies=           -1028.626623
 Sum of electronic and thermal Free Energies=        -1028.677951

                     E (Thermal)             CV                S
                      KCal/Mol        Cal/Mol-Kelvin    Cal/Mol-Kelvin
 Total                  126.497             47.241            108.030
 Electronic               0.000              0.000              0.000
 Translational            0.889              2.981             42.162
 Rotational               0.889              2.981             32.497
 Vibrational            124.720             41.279             33.370
 Vibration     1          0.594              1.982              5.487
 Vibration     2          0.597              1.972              4.375
 Vibration     3          0.610              1.929              3.041
 Vibration     4          0.619              1.900              2.639
 Vibration     5          0.637              1.843              2.152
 Vibration     6          0.660              1.771              1.767
 Vibration     7          0.677              1.721              1.569
 Vibration     8          0.710              1.622              1.277
 Vibration     9          0.712              1.619              1.267
 Vibration    10          0.778              1.440              0.913
 Vibration    11          0.797              1.389              0.836
 Vibration    12          0.823              1.328              0.752
 Vibration    13          0.872              1.213              0.618
 Vibration    14          0.880              1.194              0.598
 Vibration    15          0.893              1.165              0.569
 Vibration    16          0.909              1.131              0.536
 Vibration    17          0.932              1.085              0.494
 Vibration    18          0.949              1.049              0.464

 Optimization completed.
    -- Stationary point found.
 Normal termination of Gaussian 16 at Tue Oct 27 23:58:36 2020.
