 Gaussian 16, Revision C.01,
 Gaussian 16:  ES64L-G16RevC.01  3-Jul-2019

 ----------------------------------------------------------------------
 #p opt=addgic freq wb97xd/cc-pvdz nosymm int=ultrafine scrf=(solvent=C
 arbonTetraChloride)
 ----------------------------------------------------------------------

 ------------------------------------------------
 NM 2D-scan of HBT TD-WB97XD pVDZ in CTC Relaxed.
 ------------------------------------------------
 Symbolic Z-matrix:
 Charge =  0 Multiplicity = 1

 SCF Done:  E(RwB97XD) =  -1028.80673223     A.U. after   15 cycles
 SCF Done:  E(RwB97XD) =  -1028.81293642     A.U. after   13 cycles
 SCF Done:  E(RwB97XD) =  -1028.81325586     A.U. after   12 cycles
 SCF Done:  E(RwB97XD) =  -1028.81358282     A.U. after   12 cycles
 SCF Done:  E(RwB97XD) =  -1028.81364324     A.U. after   11 cycles
 SCF Done:  E(RwB97XD) =  -1028.81364275     A.U. after   10 cycles
 SCF Done:  E(RwB97XD) =  -1028.81364374     A.U. after   10 cycles
 SCF Done:  E(RwB97XD) =  -1028.81364499     A.U. after    9 cycles
 Optimization completed.
    -- Stationary point found.
 Normal termination of Gaussian 16 at Tue Oct 27 23:43:50 2020.

 --------------------------------------------------------------------
 #P Geom=AllCheck Guess=TCheck SCRF=Check GenChk RwB97XD/CC-pVDZ Freq
 --------------------------------------------------------------------

 Structure from the checkpoint file:  "config_8_11.chk"
 ------------------------------------------------
 NM 2D-scan of HBT TD-WB97XD pVDZ in CTC Relaxed.
 ------------------------------------------------
 Charge =  0 Multiplicity = 1

                          Input orientation:
 ---------------------------------------------------------------------
 Center     Atomic      Atomic             Coordinates (Angstroms)
 Number     Number       Type             X           Y           Z
 ---------------------------------------------------------------------
      1          6           0        1.614757   -3.258338   -0.000032
      2          6           0        0.995510   -2.011010   -0.000020
      3          6           0        1.736101   -0.818129   -0.000010
      4          6           0        3.132415   -0.862056   -0.000013
      5          6           0        3.751441   -2.108306   -0.000025
      6          6           0        3.004720   -3.294835   -0.000034
      7          1           0        1.026367   -4.176196   -0.000039
      8          1           0        3.713128    0.060577   -0.000005
      9          1           0        4.840954   -2.160661   -0.000026
     10          1           0        3.517171   -4.257537   -0.000043
     11          7           0        0.919056    0.304577    0.000002
     12         16           0       -0.726305   -1.668249   -0.000014
     13          6           0       -1.351482    1.080084    0.000017
     14          6           0       -2.741164    0.804832    0.000020
     15          6           0       -0.849865    2.436297    0.000026
     16          6           0       -3.658568    1.824248    0.000030
     17          1           0       -3.082190   -0.234308    0.000015
     18          6           0       -1.849478    3.466361    0.000036
     19          6           0       -3.190026    3.163457    0.000037
     20          1           0       -4.727776    1.613292    0.000033
     21          1           0       -1.501117    4.500425    0.000042
     22          1           0       -3.918139    3.978372    0.000044
     23          6           0       -0.384460    0.041589    0.000003
     24          8           0        0.402161    2.697658    0.000029
     25          1           0        1.048292    1.414085    0.000019
 ---------------------------------------------------------------------

 SCF Done:  E(RwB97XD) =  -1028.81364499     A.U. after    1 cycles

 Alpha  occ. eigenvalues --  -89.09800 -19.22530 -14.50688 -10.40819 -10.36954
 Alpha  occ. eigenvalues --  -10.36304 -10.35807 -10.33088 -10.32684 -10.32315
 Alpha  occ. eigenvalues --  -10.32180 -10.31366 -10.30894 -10.30718 -10.29337
 Alpha  occ. eigenvalues --  -10.28903  -8.11857  -6.06724  -6.06355  -6.05880
 Alpha  occ. eigenvalues --   -1.12935  -1.09816  -0.98263  -0.95455  -0.93038
 Alpha  occ. eigenvalues --   -0.89140  -0.86391  -0.83845  -0.82287  -0.75714
 Alpha  occ. eigenvalues --   -0.72070  -0.71727  -0.68753  -0.68061  -0.64304
 Alpha  occ. eigenvalues --   -0.60885  -0.59636  -0.57002  -0.55653  -0.55549
 Alpha  occ. eigenvalues --   -0.54839  -0.53658  -0.52841  -0.50581  -0.49909
 Alpha  occ. eigenvalues --   -0.49229  -0.47925  -0.46635  -0.45434  -0.44901
 Alpha  occ. eigenvalues --   -0.44419  -0.43169  -0.41830  -0.40587  -0.36624
 Alpha  occ. eigenvalues --   -0.33274  -0.33125  -0.31574  -0.27027
 Alpha virt. eigenvalues --   -0.01099   0.04000   0.06113   0.06926   0.08720
 Alpha virt. eigenvalues --    0.11045   0.14146   0.14809   0.16331   0.17588
 Alpha virt. eigenvalues --    0.19033   0.20424   0.21286   0.21719   0.23043

 Mulliken charges:
               1
     1  C    0.016369
     2  C   -0.232353
     3  C    0.267700
     4  C   -0.010658
     5  C    0.008822
     6  C    0.003341
     7  H    0.023889
     8  H    0.029489
     9  H    0.025725
    10  H    0.025314
    11  N   -0.205851
    12  S    0.182774
    13  C   -0.110042
    14  C   -0.015009
    15  C    0.117154
    16  C   -0.025948
    17  H    0.009226
    18  C   -0.014446
    19  C    0.024814
    20  H    0.003515
    21  H    0.004785
    22  H    0.014511
    23  C    0.070681
    24  O   -0.403179
    25  H    0.189376
 Sum of Mulliken charges =  -0.00000

 Dipole moment (field-independent basis, Debye):
    X=              1.2172    Y=             -4.8121    Z=             -0.0000  Tot=              4.9636
 Quadrupole moment (field-independent basis, Debye-Ang):
   XX=            -82.4066   YY=            -93.9265   ZZ=           -104.0035
   XY=             -7.0601   XZ=             -0.0001   YZ=              0.0001

  Exact polarizability:     283.016     -80.995     276.556      -0.001       0.002      62.873
 Approx polarizability:     265.185     -29.608     253.698      -0.001       0.002      82.039

 ******    1 imaginary frequencies (negative Signs) ******

                      1                      2                      3
                      A                      A                      A
 Frequencies --   -457.2295                56.5057                77.7043
 Red. masses --      1.7300                 5.7050                 4.8674
 Frc consts  --      0.2131                 0.0107                 0.0173
 IR Inten    --    259.2149                 1.0552                 0.7396

                      4                      5                      6
                      A                      A                      A
 Frequencies --    148.2709               154.0017               201.7821
 Red. masses --      5.2647                 5.3705                 6.2418
 Frc consts  --      0.0682                 0.0750                 0.1497
 IR Inten    --      1.2213                 2.9718                 0.0649

                      7                      8                      9
                      A                      A                      A
 Frequencies --    240.5743               283.3796               315.0933
 Red. masses --      6.3045                 6.8756                 5.3522
 Frc consts  --      0.2150                 0.3253                 0.3131
 IR Inten    --      0.6809                 1.0926                 0.5686

                     10                     11                     12
                      A                      A                      A
 Frequencies --    413.6074               423.9677               431.7091
 Red. masses --      6.5178                 6.3132                 3.1729
 Frc consts  --      0.6569                 0.6686                 0.3484
 IR Inten    --      4.1924                 3.2126                 0.6012

                     13                     14                     15
                      A                      A                      A
 Frequencies --    454.5427               514.1659               534.3653
 Red. masses --      3.5967                 8.8015                 2.9814
 Frc consts  --      0.4378                 1.3709                 0.5016
 IR Inten    --     10.2459                 8.8456                 4.5596

                     16                     17                     18
                      A                      A                      A
 Frequencies --    550.9160               565.3893               576.2888
 Red. masses --      8.8684                 3.7347                 6.9136
 Frc consts  --      1.5859                 0.7034                 1.3528
 IR Inten    --      8.8799                 0.0560                17.4155

                     19                     20                     21
                      A                      A                      A
 Frequencies --    611.7279               645.3975               705.4136
 Red. masses --      6.7550                 6.3507                 5.8088
 Frc consts  --      1.4893                 1.5586                 1.7030
 IR Inten    --      9.7864                 0.0149                17.3791

                     22                     23                     24
                      A                      A                      A
 Frequencies --    725.6281               752.3900               764.1304
 Red. masses --      6.6648                 2.5395                 1.4775
 Frc consts  --      2.0676                 0.8470                 0.5083
 IR Inten    --     31.6468                12.7298                50.0190

                     25                     26                     27
                      A                      A                      A
 Frequencies --    775.7879               777.9000               778.9203
 Red. masses --      5.4936                 1.8619                 2.0564
 Frc consts  --      1.9480                 0.6638                 0.7351
 IR Inten    --     40.6389                 4.8029                57.2162

                     28                     29                     30
                      A                      A                      A
 Frequencies --    852.2237               878.2417               884.2935
 Red. masses --      6.1685                 1.7959                 1.3836
 Frc consts  --      2.6396                 0.8161                 0.6375
 IR Inten    --     15.8184                 9.2364                 0.5514

                     31                     32                     33
                      A                      A                      A
 Frequencies --    942.0651               967.4925               972.1788
 Red. masses --      5.9168                 1.3306                 1.3616
 Frc consts  --      3.0938                 0.7338                 0.7582
 IR Inten    --     15.8277                 0.4001                 1.5675

                     34                     35                     36
                      A                      A                      A
 Frequencies --   1015.2489              1015.3903              1028.6807
 Red. masses --      1.3054                 1.3064                 5.7970
 Frc consts  --      0.7928                 0.7936                 3.6142
 IR Inten    --      0.0295                 0.1766                 6.9888

                     37                     38                     39
                      A                      A                      A
 Frequencies --   1048.9429              1054.8068              1090.1573
 Red. masses --      2.0616                 2.0332                 1.0679
 Frc consts  --      1.3365                 1.3328                 0.7478
 IR Inten    --      3.1304                10.4853                74.8137

                     40                     41                     42
                      A                      A                      A
 Frequencies --   1110.2226              1159.9737              1160.6628
 Red. masses --      3.2902                 1.3997                 1.2859
 Frc consts  --      2.3894                 1.1097                 1.0207
 IR Inten    --      5.3841                 4.0874                18.9727

                     43                     44                     45
                      A                      A                      A
 Frequencies --   1179.8212              1187.7098              1255.1623
 Red. masses --      1.1336                 1.2066                 1.8974
 Frc consts  --      0.9297                 1.0029                 1.7612
 IR Inten    --     52.4858                 3.3361                21.3139

                     46                     47                     48
                      A                      A                      A
 Frequencies --   1289.2931              1328.0014              1358.9199
 Red. masses --      1.5565                 2.9213                 3.7248
 Frc consts  --      1.5244                 3.0355                 4.0526
 IR Inten    --     23.7987               224.6213                18.8101

                     49                     50                     51
                      A                      A                      A
 Frequencies --   1374.4435              1397.2766              1414.9835
 Red. masses --      4.9774                 4.5734                 3.2017
 Frc consts  --      5.5399                 5.2609                 3.7768
 IR Inten    --     21.0517                 4.8437                37.4560

                     52                     53                     54
                      A                      A                      A
 Frequencies --   1492.7293              1502.6414              1516.7936
 Red. masses --      2.6878                 2.7739                 3.2612
 Frc consts  --      3.5286                 3.6902                 4.4205
 IR Inten    --     19.4263                29.1756                19.4409

                     55                     56                     57
                      A                      A                      A
 Frequencies --   1576.5986              1590.8977              1610.6239
 Red. masses --      5.1831                 4.6111                 7.8985
 Frc consts  --      7.5907                 6.8760                12.0721
 IR Inten    --   1978.4322               157.0872               254.3360

                     58                     59                     60
                      A                      A                      A
 Frequencies --   1658.2766              1680.2531              1710.0347
 Red. masses --      6.9862                 6.8539                 6.4272
 Frc consts  --     11.3189                11.4008                11.0735
 IR Inten    --     15.8090                19.4101               216.8487

                     61                     62                     63
                      A                      A                      A
 Frequencies --   2275.1298              3188.7033              3197.8964
 Red. masses --      1.1194                 1.0890                 1.0885
 Frc consts  --      3.4139                 6.5237                 6.5583
 IR Inten    --    552.1895                 3.4283                13.7535

                     64                     65                     66
                      A                      A                      A
 Frequencies --   3216.3407              3225.0317              3226.4285
 Red. masses --      1.0863                 1.0944                 1.0909
 Frc consts  --      6.6212                 6.7064                 6.6907
 IR Inten    --      1.4302                21.5070                 3.1448

                     67                     68                     69
                      A                      A                      A
 Frequencies --   3236.1202              3236.3463              3242.4519
 Red. masses --      1.0975                 1.0961                 1.0997
 Frc consts  --      6.7716                 6.7641                 6.8121
 IR Inten    --     18.4768                 6.2992                10.2317

 - Thermochemistry -
 -------------------
 Temperature   298.150 Kelvin.  Pressure   1.00000 Atm.
 Atom     1 has atomic number  6 and mass  12.00000

 Molecular mass:   227.04049 amu.
 Principal axes and moments of inertia in atomic units:
                           1         2         3
     Eigenvalues --  1295.506566260.551037556.05759
           X           -0.70504   0.70917   0.00000
           Y            0.70917   0.70504  -0.00001
           Z            0.00001   0.00001   1.00000
 This molecule is an asymmetric top.
 Rotational symmetry number  1.
 Warning -- assumption of classical behavior for rotation
           may cause significant error
 Rotational temperatures (Kelvin)      0.06686     0.01383     0.01146
 Rotational constants (GHZ):           1.39308     0.28827     0.23885
    1 imaginary frequencies ignored.
 Zero-point vibrational energy     489446.4 (Joules/Mol)
                                  116.98050 (Kcal/Mol)
 Warning -- explicit consideration of  18 degrees of freedom as
           vibrations may cause significant error
 Vibrational temperatures:     81.30   111.80   213.33   221.57   290.32
          (Kelvin)            346.13   407.72   453.35   595.09   609.99
                              621.13   653.99   739.77   768.83   792.65
                              813.47   829.15   880.14   928.58  1014.93
                             1044.02  1082.52  1099.41  1116.19  1119.22
                             1120.69  1226.16  1263.59  1272.30  1355.42
                             1392.01  1398.75  1460.72  1460.92  1480.04
                             1509.19  1517.63  1568.49  1597.36  1668.94
                             1669.93  1697.50  1708.85  1805.90  1855.01
                             1910.70  1955.18  1977.52  2010.37  2035.85
                             2147.70  2161.97  2182.33  2268.37  2288.95
                             2317.33  2385.89  2417.51  2460.36  3273.40
                             4587.83  4601.06  4627.60  4640.10  4642.11
                             4656.06  4656.38  4665.17

 Zero-point correction=                           0.186420 (Hartree/Particle)
 Thermal correction to Energy=                    0.197752
 Thermal correction to Enthalpy=                  0.198696
 Thermal correction to Gibbs Free Energy=         0.148458
 Sum of electronic and zero-point Energies=          -1028.627225
 Sum of electronic and thermal Energies=             -1028.615893
 Sum of electronic and thermal Enthalpies=           -1028.614949
 Sum of electronic and thermal Free Energies=        -1028.665187

                     E (Thermal)             CV                S
                      KCal/Mol        Cal/Mol-Kelvin    Cal/Mol-Kelvin
 Total                  124.091             46.522            105.736
 Electronic               0.000              0.000              0.000
 Translational            0.889              2.981             42.162
 Rotational               0.889              2.981             32.483
 Vibrational            122.314             40.561             31.091
 Vibration     1          0.596              1.975              4.576
 Vibration     2          0.599              1.964              3.948
 Vibration     3          0.618              1.905              2.694
 Vibration     4          0.620              1.898              2.622
 Vibration     5          0.639              1.837              2.117
 Vibration     6          0.658              1.778              1.799
 Vibration     7          0.682              1.704              1.513
 Vibration     8          0.702              1.645              1.335
 Vibration     9          0.777              1.441              0.914
 Vibration    10          0.786              1.418              0.879
 Vibration    11          0.793              1.401              0.853
 Vibration    12          0.813              1.351              0.782
 Vibration    13          0.869              1.219              0.624
 Vibration    14          0.889              1.174              0.578
 Vibration    15          0.906              1.138              0.542
 Vibration    16          0.921              1.106              0.513
 Vibration    17          0.933              1.083              0.492
 Vibration    18          0.971              1.007              0.430

 Optimization completed.
    -- Stationary point found.
 Normal termination of Gaussian 16 at Tue Oct 27 23:49:55 2020.
