 Gaussian 16, Revision C.01,
 Gaussian 16:  ES64L-G16RevC.01  3-Jul-2019

 ----------------------------------------------------------------------
 #p opt=addgic freq wb97xd/cc-pvdz nosymm int=ultrafine scrf=(solvent=C
 arbonTetraChloride)
 ----------------------------------------------------------------------

 ------------------------------------------------
 NM 2D-scan of HBT TD-WB97XD pVDZ in CTC Relaxed.
 ------------------------------------------------
 Symbolic Z-matrix:
 Charge =  0 Multiplicity = 1

 SCF Done:  E(RwB97XD) =  -1028.81822775     A.U. after   15 cycles
 SCF Done:  E(RwB97XD) =  -1028.82803862     A.U. after   13 cycles
 SCF Done:  E(RwB97XD) =  -1028.82885426     A.U. after   12 cycles
 SCF Done:  E(RwB97XD) =  -1028.82917657     A.U. after   11 cycles
 SCF Done:  E(RwB97XD) =  -1028.82923562     A.U. after   10 cycles
 SCF Done:  E(RwB97XD) =  -1028.82923786     A.U. after    9 cycles
 SCF Done:  E(RwB97XD) =  -1028.82923803     A.U. after    8 cycles
 SCF Done:  E(RwB97XD) =  -1028.82923796     A.U. after    7 cycles
 SCF Done:  E(RwB97XD) =  -1028.82923808     A.U. after    7 cycles
 Optimization completed.
    -- Stationary point found.
 Normal termination of Gaussian 16 at Tue Oct 27 23:27:07 2020.

 --------------------------------------------------------------------
 #P Geom=AllCheck Guess=TCheck SCRF=Check GenChk RwB97XD/CC-pVDZ Freq
 --------------------------------------------------------------------

 Structure from the checkpoint file:  "config_4_10.chk"
 ------------------------------------------------
 NM 2D-scan of HBT TD-WB97XD pVDZ in CTC Relaxed.
 ------------------------------------------------
 Charge =  0 Multiplicity = 1

                          Input orientation:
 ---------------------------------------------------------------------
 Center     Atomic      Atomic             Coordinates (Angstroms)
 Number     Number       Type             X           Y           Z
 ---------------------------------------------------------------------
      1          6           0        1.637715   -3.281710   -0.000039
      2          6           0        0.990919   -2.044790   -0.000020
      3          6           0        1.714166   -0.841203   -0.000002
      4          6           0        3.113947   -0.861489   -0.000003
      5          6           0        3.758405   -2.090613   -0.000021
      6          6           0        3.027593   -3.289662   -0.000039
      7          1           0        1.071745   -4.213585   -0.000053
      8          1           0        3.669882    0.076575    0.000011
      9          1           0        4.848736   -2.126609   -0.000022
     10          1           0        3.556669   -4.243705   -0.000054
     11          7           0        0.920496    0.288686    0.000012
     12         16           0       -0.727925   -1.697827   -0.000014
     13          6           0       -1.355613    1.085501    0.000019
     14          6           0       -2.735541    0.829661    0.000023
     15          6           0       -0.890436    2.428987    0.000024
     16          6           0       -3.657666    1.864686    0.000032
     17          1           0       -3.087334   -0.205101    0.000018
     18          6           0       -1.839217    3.468311    0.000034
     19          6           0       -3.196876    3.187869    0.000038
     20          1           0       -4.726123    1.649014    0.000035
     21          1           0       -1.471467    4.495127    0.000038
     22          1           0       -3.913129    4.011920    0.000046
     23          6           0       -0.358159    0.019845    0.000009
     24          8           0        0.401809    2.729998    0.000019
     25          1           0        0.907295    1.851929    0.000014
 ---------------------------------------------------------------------

 SCF Done:  E(RwB97XD) =  -1028.82923808     A.U. after    1 cycles

 Alpha  occ. eigenvalues --  -89.08828 -19.27373 -14.47033 -10.39538 -10.37230
 Alpha  occ. eigenvalues --  -10.35047 -10.34885 -10.32411 -10.32134 -10.31821
 Alpha  occ. eigenvalues --  -10.31755 -10.31661 -10.31564 -10.31345 -10.30146
 Alpha  occ. eigenvalues --  -10.30002  -8.10862  -6.05716  -6.05357  -6.04910
 Alpha  occ. eigenvalues --   -1.16117  -1.09123  -0.97324  -0.96119  -0.91724
 Alpha  occ. eigenvalues --   -0.88619  -0.85428  -0.84440  -0.83015  -0.75532
 Alpha  occ. eigenvalues --   -0.71410  -0.70560  -0.69412  -0.68230  -0.63190
 Alpha  occ. eigenvalues --   -0.60630  -0.58886  -0.58326  -0.56326  -0.54509
 Alpha  occ. eigenvalues --   -0.54223  -0.53286  -0.52694  -0.50947  -0.50238
 Alpha  occ. eigenvalues --   -0.49453  -0.47503  -0.45993  -0.45384  -0.45023
 Alpha  occ. eigenvalues --   -0.43920  -0.42823  -0.42744  -0.39869  -0.36852
 Alpha  occ. eigenvalues --   -0.36221  -0.32234  -0.31656  -0.28956
 Alpha virt. eigenvalues --   -0.00496   0.04758   0.06858   0.07286   0.07695
 Alpha virt. eigenvalues --    0.11358   0.14152   0.15141   0.16455   0.17956
 Alpha virt. eigenvalues --    0.18982   0.20918   0.21735   0.22591   0.22686

 Mulliken charges:
               1
     1  C    0.010375
     2  C   -0.220336
     3  C    0.237928
     4  C   -0.014076
     5  C    0.006084
     6  C    0.000986
     7  H    0.019407
     8  H    0.019789
     9  H    0.020513
    10  H    0.021878
    11  N   -0.347764
    12  S    0.151062
    13  C   -0.065852
    14  C   -0.022918
    15  C    0.075540
    16  C   -0.009137
    17  H    0.013009
    18  C    0.004624
    19  C    0.020928
    20  H    0.009256
    21  H    0.015178
    22  H    0.018199
    23  C    0.084957
    24  O   -0.219139
    25  H    0.169510
 Sum of Mulliken charges =  -0.00000

 Dipole moment (field-independent basis, Debye):
    X=              0.0853    Y=             -2.7232    Z=             -0.0000  Tot=              2.7245
 Quadrupole moment (field-independent basis, Debye-Ang):
   XX=            -82.7281   YY=            -90.2543   ZZ=           -104.0746
   XY=             -7.2064   XZ=             -0.0001   YZ=              0.0002

  Exact polarizability:     274.940     -67.497     255.789      -0.001       0.002      62.943
 Approx polarizability:     262.581     -23.378     242.573      -0.001       0.002      82.179

                      1                      2                      3
                      A                      A                      A
 Frequencies --     39.4982                62.0718               124.8500
 Red. masses --      5.4464                 5.9197                 5.6533
 Frc consts  --      0.0050                 0.0134                 0.0519
 IR Inten    --      0.0281                 1.2899                 1.5750

                      4                      5                      6
                      A                      A                      A
 Frequencies --    153.1679               198.3470               245.0315
 Red. masses --      5.0140                 5.9534                 5.7119
 Frc consts  --      0.0693                 0.1380                 0.2021
 IR Inten    --      0.0724                 0.6114                 0.0477

                      7                      8                      9
                      A                      A                      A
 Frequencies --    274.8843               326.8005               328.2641
 Red. masses --      7.5101                 6.4020                 5.1312
 Frc consts  --      0.3343                 0.4028                 0.3258
 IR Inten    --      0.8519                 8.0429                 0.2162

                     10                     11                     12
                      A                      A                      A
 Frequencies --    412.5269               437.4028               465.4454
 Red. masses --      9.9561                 3.1302                 3.6688
 Frc consts  --      0.9983                 0.3528                 0.4683
 IR Inten    --      0.1223                 2.0614                 7.9714

                     13                     14                     15
                      A                      A                      A
 Frequencies --    516.4643               526.0385               538.6874
 Red. masses --      8.6204                 5.3470                 3.4685
 Frc consts  --      1.3548                 0.8718                 0.5930
 IR Inten    --      0.0842                12.6351                 3.5860

                     16                     17                     18
                      A                      A                      A
 Frequencies --    552.9818               575.1132               592.2007
 Red. masses --      7.6181                 3.7132                 7.6502
 Frc consts  --      1.3725                 0.7236                 1.5807
 IR Inten    --      3.3843                 0.0451                 4.5697

                     19                     20                     21
                      A                      A                      A
 Frequencies --    647.9166               683.2811               720.5618
 Red. masses --      6.2356                 6.4511                 6.7305
 Frc consts  --      1.5423                 1.7745                 2.0589
 IR Inten    --      0.0000                 6.6395                23.5939

                     22                     23                     24
                      A                      A                      A
 Frequencies --    747.3470               756.0504               766.6989
 Red. masses --     10.2760                 2.0220                 3.1499
 Frc consts  --      3.3816                 0.6810                 1.0909
 IR Inten    --     14.6215                26.6996                 1.4960

                     25                     26                     27
                      A                      A                      A
 Frequencies --    776.1541               786.4059               849.2701
 Red. masses --      1.3563                 1.8929                 5.9875
 Frc consts  --      0.4814                 0.6897                 2.5444
 IR Inten    --     62.4737                37.4966                17.8900

                     28                     29                     30
                      A                      A                      A
 Frequencies --    883.8929               887.2291               901.6397
 Red. masses --      1.5597                 1.4119                 6.6155
 Frc consts  --      0.7179                 0.6548                 3.1687
 IR Inten    --      5.3170                 0.0567                 2.1038

                     31                     32                     33
                      A                      A                      A
 Frequencies --    940.4526               970.4892               976.2315
 Red. masses --      1.0813                 1.3572                 1.3635
 Frc consts  --      0.5635                 0.7532                 0.7656
 IR Inten    --     75.4536                 0.7559                 2.5298

                     34                     35                     36
                      A                      A                      A
 Frequencies --    998.5667              1010.9351              1016.0360
 Red. masses --      7.5760                 1.3015                 1.3047
 Frc consts  --      4.4508                 0.7837                 0.7936
 IR Inten    --     54.6751                 0.4923                 0.0427

                     37                     38                     39
                      A                      A                      A
 Frequencies --   1052.7983              1069.6905              1100.0489
 Red. masses --      1.9991                 1.9401                 4.0861
 Frc consts  --      1.3055                 1.3079                 2.9133
 IR Inten    --      8.6591                 9.4203                 5.8094

                     40                     41                     42
                      A                      A                      A
 Frequencies --   1150.5953              1154.3514              1175.5776
 Red. masses --      1.4697                 1.3173                 1.1345
 Frc consts  --      1.1464                 1.0342                 0.9237
 IR Inten    --      8.9998                 3.0356                44.2923

                     43                     44                     45
                      A                      A                      A
 Frequencies --   1185.3942              1259.2883              1287.0065
 Red. masses --      1.2003                 1.9175                 1.5777
 Frc consts  --      0.9937                 1.7916                 1.5397
 IR Inten    --      0.2252               105.0525                 2.5938

                     46                     47                     48
                      A                      A                      A
 Frequencies --   1298.6007              1338.5910              1350.8386
 Red. masses --      2.6163                 3.3327                 4.4820
 Frc consts  --      2.5995                 3.5184                 4.8187
 IR Inten    --    169.8510                26.2747                 4.0269

                     49                     50                     51
                      A                      A                      A
 Frequencies --   1376.4865              1379.0988              1486.5254
 Red. masses --      7.5789                 3.6435                 2.4868
 Frc consts  --      8.4606                 4.0828                 3.2378
 IR Inten    --     12.4253                19.2885                 2.7841

                     52                     53                     54
                      A                      A                      A
 Frequencies --   1492.8379              1503.0755              1523.5888
 Red. masses --      2.5744                 2.9221                 3.9913
 Frc consts  --      3.3803                 3.8897                 5.4589
 IR Inten    --     44.0746                 6.6766               127.4934

                     55                     56                     57
                      A                      A                      A
 Frequencies --   1576.2534              1593.9883              1651.7823
 Red. masses --      3.6238                 3.1939                 6.8353
 Frc consts  --      5.3047                 4.7812                10.9879
 IR Inten    --    243.8710                62.5920                 5.9936

                     58                     59                     60
                      A                      A                      A
 Frequencies --   1679.0329              1683.4514              1711.3925
 Red. masses --      6.5348                 3.0262                 3.8300
 Frc consts  --     10.8543                 5.0529                 6.6091
 IR Inten    --     32.0536               186.2170               167.7558

                     61                     62                     63
                      A                      A                      A
 Frequencies --   2869.9247              3197.7730              3208.1362
 Red. masses --      1.0747                 1.0889                 1.0886
 Frc consts  --      5.2155                 6.5605                 6.6015
 IR Inten    --   1283.6432                 4.7887                 5.7566

                     64                     65                     66
                      A                      A                      A
 Frequencies --   3212.8059              3224.0089              3228.6970
 Red. masses --      1.0862                 1.0907                 1.0940
 Frc consts  --      6.6059                 6.6794                 6.7191
 IR Inten    --      1.7973                 4.1245                12.1528

                     67                     68                     69
                      A                      A                      A
 Frequencies --   3234.7209              3237.1968              3240.4342
 Red. masses --      1.0960                 1.0988                 1.0996
 Frc consts  --      6.7565                 6.7840                 6.8026
 IR Inten    --      9.6361                17.2082                12.8782

 - Thermochemistry -
 -------------------
 Temperature   298.150 Kelvin.  Pressure   1.00000 Atm.
 Atom     1 has atomic number  6 and mass  12.00000

 Molecular mass:   227.04049 amu.
 Principal axes and moments of inertia in atomic units:
                           1         2         3
     Eigenvalues --  1302.342326308.347497610.68981
           X           -0.70168   0.71249   0.00000
           Y            0.71249   0.70168  -0.00001
           Z            0.00001   0.00001   1.00000
 This molecule is an asymmetric top.
 Rotational symmetry number  1.
 Warning -- assumption of classical behavior for rotation
           may cause significant error
 Rotational temperatures (Kelvin)      0.06651     0.01373     0.01138
 Rotational constants (GHZ):           1.38577     0.28609     0.23713
 Zero-point vibrational energy     498979.9 (Joules/Mol)
                                  119.25906 (Kcal/Mol)
 Warning -- explicit consideration of  18 degrees of freedom as
           vibrations may cause significant error
 Vibrational temperatures:     56.83    89.31   179.63   220.37   285.38
          (Kelvin)            352.55   395.50   470.19   472.30   593.53
                              629.33   669.67   743.08   756.85   775.05
                              795.62   827.46   852.04   932.21   983.09
                             1036.73  1075.27  1087.79  1103.11  1116.71
                             1131.46  1221.91  1271.72  1276.52  1297.26
                             1353.10  1396.32  1404.58  1436.71  1454.51
                             1461.85  1514.74  1539.05  1582.72  1655.45
                             1660.85  1691.39  1705.52  1811.83  1851.72
                             1868.40  1925.93  1943.56  1980.46  1984.22
                             2138.78  2147.86  2162.59  2192.10  2267.88
                             2293.39  2376.55  2415.75  2422.11  2462.31
                             4129.18  4600.88  4615.79  4622.51  4638.63
                             4645.37  4654.04  4657.60  4662.26

 Zero-point correction=                           0.190051 (Hartree/Particle)
 Thermal correction to Energy=                    0.201662
 Thermal correction to Enthalpy=                  0.202606
 Thermal correction to Gibbs Free Energy=         0.151373
 Sum of electronic and zero-point Energies=          -1028.639187
 Sum of electronic and thermal Energies=             -1028.627576
 Sum of electronic and thermal Enthalpies=           -1028.626632
 Sum of electronic and thermal Free Energies=        -1028.677865

                     E (Thermal)             CV                S
                      KCal/Mol        Cal/Mol-Kelvin    Cal/Mol-Kelvin
 Total                  126.545             47.257            107.828
 Electronic               0.000              0.000              0.000
 Translational            0.889              2.981             42.162
 Rotational               0.889              2.981             32.503
 Vibrational            124.767             41.295             33.164
 Vibration     1          0.594              1.981              5.284
 Vibration     2          0.597              1.972              4.390
 Vibration     3          0.610              1.928              3.024
 Vibration     4          0.619              1.899              2.633
 Vibration     5          0.637              1.842              2.148
 Vibration     6          0.660              1.771              1.766
 Vibration     7          0.677              1.720              1.565
 Vibration     8          0.710              1.622              1.276
 Vibration     9          0.711              1.619              1.269
 Vibration    10          0.776              1.443              0.918
 Vibration    11          0.798              1.389              0.835
 Vibration    12          0.823              1.327              0.750
 Vibration    13          0.871              1.214              0.618
 Vibration    14          0.881              1.192              0.596
 Vibration    15          0.894              1.164              0.568
 Vibration    16          0.908              1.133              0.538
 Vibration    17          0.931              1.085              0.494
 Vibration    18          0.950              1.048              0.463

 Optimization completed.
    -- Stationary point found.
 Normal termination of Gaussian 16 at Tue Oct 27 23:34:54 2020.
