 Gaussian 16, Revision C.01,
 Gaussian 16:  ES64L-G16RevC.01  3-Jul-2019

 ----------------------------------------------------------------------
 #p opt=addgic freq wb97xd/cc-pvdz nosymm int=ultrafine scrf=(solvent=C
 arbonTetraChloride)
 ----------------------------------------------------------------------

 ------------------------------------------------
 NM 2D-scan of HBT TD-WB97XD pVDZ in CTC Relaxed.
 ------------------------------------------------
 Symbolic Z-matrix:
 Charge =  0 Multiplicity = 1

 SCF Done:  E(RwB97XD) =  -1028.79221386     A.U. after   15 cycles
 SCF Done:  E(RwB97XD) =  -1028.81879563     A.U. after   13 cycles
 SCF Done:  E(RwB97XD) =  -1028.82095094     A.U. after   12 cycles
 SCF Done:  E(RwB97XD) =  -1028.82127082     A.U. after   11 cycles
 SCF Done:  E(RwB97XD) =  -1028.82129043     A.U. after   10 cycles
 SCF Done:  E(RwB97XD) =  -1028.82129238     A.U. after    9 cycles
 Optimization completed.
    -- Stationary point found.
 Normal termination of Gaussian 16 at Tue Oct 27 20:33:00 2020.

 --------------------------------------------------------------------
 #P Geom=AllCheck Guess=TCheck SCRF=Check GenChk RwB97XD/CC-pVDZ Freq
 --------------------------------------------------------------------

 Structure from the checkpoint file:  "config_4_1.chk"
 ------------------------------------------------
 NM 2D-scan of HBT TD-WB97XD pVDZ in CTC Relaxed.
 ------------------------------------------------
 Charge =  0 Multiplicity = 1

                          Input orientation:
 ---------------------------------------------------------------------
 Center     Atomic      Atomic             Coordinates (Angstroms)
 Number     Number       Type             X           Y           Z
 ---------------------------------------------------------------------
      1          6           0        1.770185   -3.298612   -0.000019
      2          6           0        0.986503   -2.134448   -0.000015
      3          6           0        1.626536   -0.885036   -0.000019
      4          6           0        3.018037   -0.753559   -0.000026
      5          6           0        3.785389   -1.901491   -0.000031
      6          6           0        3.158843   -3.160327   -0.000029
      7          1           0        1.318081   -4.290906   -0.000020
      8          1           0        3.456555    0.244771   -0.000028
      9          1           0        4.874162   -1.835780   -0.000038
     10          1           0        3.774591   -4.061306   -0.000035
     11          7           0        0.797664    0.197806   -0.000017
     12         16           0       -0.765378   -1.866596   -0.000016
     13          6           0       -1.414953    1.048332    0.000005
     14          6           0       -2.821047    0.932005   -0.000009
     15          6           0       -0.867340    2.374628    0.000034
     16          6           0       -3.648316    2.046918    0.000012
     17          1           0       -3.268708   -0.065040   -0.000039
     18          6           0       -1.719744    3.487909    0.000064
     19          6           0       -3.089782    3.333474    0.000054
     20          1           0       -4.731019    1.918740   -0.000002
     21          1           0       -1.248049    4.471043    0.000095
     22          1           0       -3.734898    4.214030    0.000078
     23          6           0       -0.469644   -0.087911   -0.000006
     24          8           0        0.432238    2.679889    0.000046
     25          1           0        0.920612    1.820022    0.000051
 ---------------------------------------------------------------------

 SCF Done:  E(RwB97XD) =  -1028.82129238     A.U. after    1 cycles

 Alpha  occ. eigenvalues --  -89.09122 -19.27573 -14.46623 -10.39840 -10.37296
 Alpha  occ. eigenvalues --  -10.35184 -10.34653 -10.32833 -10.32637 -10.31844
 Alpha  occ. eigenvalues --  -10.31731 -10.31560 -10.31501 -10.31183 -10.30110
 Alpha  occ. eigenvalues --  -10.29756  -8.10990  -6.05868  -6.05507  -6.05025
 Alpha  occ. eigenvalues --   -1.16278  -1.09182  -0.97214  -0.95900  -0.91186
 Alpha  occ. eigenvalues --   -0.88534  -0.85172  -0.84343  -0.83006  -0.75507
 Alpha  occ. eigenvalues --   -0.71253  -0.70537  -0.69406  -0.68148  -0.62897
 Alpha  occ. eigenvalues --   -0.60455  -0.58675  -0.58253  -0.56210  -0.54419
 Alpha  occ. eigenvalues --   -0.54009  -0.53213  -0.52308  -0.51078  -0.50167
 Alpha  occ. eigenvalues --   -0.49442  -0.47757  -0.45862  -0.45261  -0.44919
 Alpha  occ. eigenvalues --   -0.43654  -0.42745  -0.42743  -0.39771  -0.36822
 Alpha  occ. eigenvalues --   -0.36136  -0.32295  -0.31590  -0.28875
 Alpha virt. eigenvalues --   -0.00483   0.04708   0.06936   0.07277   0.07296
 Alpha virt. eigenvalues --    0.11387   0.12536   0.15075   0.15805   0.17735
 Alpha virt. eigenvalues --    0.19023   0.20574   0.21724   0.22469   0.22698

 Mulliken charges:
               1
     1  C   -0.001446
     2  C   -0.222985
     3  C    0.252461
     4  C   -0.012814
     5  C    0.008979
     6  C   -0.002129
     7  H    0.021863
     8  H    0.019364
     9  H    0.020095
    10  H    0.022194
    11  N   -0.331953
    12  S    0.142277
    13  C   -0.090361
    14  C   -0.013287
    15  C    0.078976
    16  C   -0.011404
    17  H    0.007436
    18  C    0.013797
    19  C    0.020058
    20  H    0.009861
    21  H    0.015121
    22  H    0.017369
    23  C    0.079005
    24  O   -0.203523
    25  H    0.161048
 Sum of Mulliken charges =   0.00000

 Dipole moment (field-independent basis, Debye):
    X=              0.3372    Y=             -2.3736    Z=              0.0000  Tot=              2.3975
 Quadrupole moment (field-independent basis, Debye-Ang):
   XX=            -82.7038   YY=            -89.9513   ZZ=           -104.2544
   XY=             -7.0329   XZ=             -0.0000   YZ=              0.0002

  Exact polarizability:     276.136     -65.759     257.706      -0.001       0.002      63.160
 Approx polarizability:     264.124     -22.700     244.161      -0.000       0.002      82.345

                      1                      2                      3
                      A                      A                      A
 Frequencies --     34.2210                53.1119               118.8405
 Red. masses --      5.6347                 5.9376                 5.6922
 Frc consts  --      0.0039                 0.0099                 0.0474
 IR Inten    --      0.0227                 1.3129                 0.9841

                      4                      5                      6
                      A                      A                      A
 Frequencies --    151.1756               199.0423               244.4134
 Red. masses --      4.8316                 5.6592                 5.8186
 Frc consts  --      0.0651                 0.1321                 0.2048
 IR Inten    --      0.0079                 0.3903                 0.0830

                      7                      8                      9
                      A                      A                      A
 Frequencies --    267.3079               315.2052               323.9107
 Red. masses --      7.7525                 6.5254                 5.0907
 Frc consts  --      0.3264                 0.3820                 0.3147
 IR Inten    --      0.9199                 6.5107                 0.5381

                     10                     11                     12
                      A                      A                      A
 Frequencies --    396.8476               439.1491               466.7535
 Red. masses --      9.1328                 3.1549                 3.7389
 Frc consts  --      0.8474                 0.3585                 0.4799
 IR Inten    --      0.3399                 2.1784                 8.5485

                     13                     14                     15
                      A                      A                      A
 Frequencies --    511.2738               514.1805               539.6113
 Red. masses --      5.2988                 7.2331                 3.4882
 Frc consts  --      0.8161                 1.1267                 0.5984
 IR Inten    --      6.1106                 0.9048                 3.9154

                     16                     17                     18
                      A                      A                      A
 Frequencies --    546.7215               572.8888               594.7307
 Red. masses --      8.6820                 3.6800                 7.6852
 Frc consts  --      1.5290                 0.7116                 1.6016
 IR Inten    --      2.8729                 0.0494                 5.7630

                     19                     20                     21
                      A                      A                      A
 Frequencies --    644.4926               678.5759               693.1393
 Red. masses --      5.8275                 6.5778                 7.6621
 Frc consts  --      1.4262                 1.7846                 2.1689
 IR Inten    --      0.1985                26.3483                28.3367

                     22                     23                     24
                      A                      A                      A
 Frequencies --    722.9143               753.0624               758.5183
 Red. masses --      8.4996                 2.1166                 2.4131
 Frc consts  --      2.6171                 0.7072                 0.8180
 IR Inten    --      3.6457                32.8496                 0.8308

                     25                     26                     27
                      A                      A                      A
 Frequencies --    776.0286               784.4091               832.5277
 Red. masses --      1.3365                 1.8674                 1.2171
 Frc consts  --      0.4742                 0.6770                 0.4970
 IR Inten    --     69.1150                26.5310                72.3042

                     28                     29                     30
                      A                      A                      A
 Frequencies --    839.5172               884.9122               885.9824
 Red. masses --      6.0697                 1.5054                 1.4610
 Frc consts  --      2.5204                 0.6945                 0.6757
 IR Inten    --     23.1420                 7.1112                 0.2453

                     31                     32                     33
                      A                      A                      A
 Frequencies --    901.1264               972.6895               974.8890
 Red. masses --      6.4784                 1.3535                 1.3635
 Frc consts  --      3.0995                 0.7545                 0.7635
 IR Inten    --      0.4625                 1.3080                 1.5011

                     34                     35                     36
                      A                      A                      A
 Frequencies --    978.6880              1011.0154              1014.7064
 Red. masses --      7.5577                 1.2987                 1.3062
 Frc consts  --      4.2651                 0.7821                 0.7924
 IR Inten    --     72.0762                 0.3019                 0.0136

                     37                     38                     39
                      A                      A                      A
 Frequencies --   1050.3018              1067.8686              1087.4629
 Red. masses --      2.0682                 2.0180                 4.6594
 Frc consts  --      1.3442                 1.3559                 3.2464
 IR Inten    --      8.3021                13.2375                 5.5083

                     40                     41                     42
                      A                      A                      A
 Frequencies --   1143.2463              1150.8402              1173.7230
 Red. masses --      1.5532                 1.2679                 1.1211
 Frc consts  --      1.1961                 0.9894                 0.9100
 IR Inten    --     11.8133                 5.2213                51.2730

                     43                     44                     45
                      A                      A                      A
 Frequencies --   1182.8248              1240.5755              1282.2856
 Red. masses --      1.1746                 1.8890                 1.9213
 Frc consts  --      0.9683                 1.7129                 1.8613
 IR Inten    --      0.2097               161.3104                71.1318

                     46                     47                     48
                      A                      A                      A
 Frequencies --   1282.8200              1308.4176              1356.2180
 Red. masses --      1.7402                 5.3050                 3.2554
 Frc consts  --      1.6872                 5.3509                 3.5279
 IR Inten    --     27.6409                11.8162                16.8749

                     49                     50                     51
                      A                      A                      A
 Frequencies --   1369.9418              1381.1255              1450.6532
 Red. masses --      6.5938                 2.9878                 1.7552
 Frc consts  --      7.2910                 3.3579                 2.1763
 IR Inten    --     20.1860                 7.5177                56.3008

                     52                     53                     54
                      A                      A                      A
 Frequencies --   1491.2020              1493.2197              1519.9695
 Red. masses --      2.6916                 3.1746                 3.4577
 Frc consts  --      3.5264                 4.1705                 4.7067
 IR Inten    --      7.5124                44.2597               131.9666

                     55                     56                     57
                      A                      A                      A
 Frequencies --   1548.7678              1600.1243              1645.1272
 Red. masses --      2.4957                 8.1693                 5.9916
 Frc consts  --      3.5270                12.3237                 9.5542
 IR Inten    --     40.8359               216.0075                22.9724

                     58                     59                     60
                      A                      A                      A
 Frequencies --   1654.3105              1682.5596              1707.2093
 Red. masses --      4.6669                 6.8144                 6.3011
 Frc consts  --      7.5251                11.3662                10.8203
 IR Inten    --    119.8843                13.3744               104.1584

                     61                     62                     63
                      A                      A                      A
 Frequencies --   3192.8234              3207.7258              3210.1059
 Red. masses --      1.0891                 1.0884                 1.0862
 Frc consts  --      6.5417                 6.5980                 6.5948
 IR Inten    --      2.5429                10.1132                 0.4277

                     64                     65                     66
                      A                      A                      A
 Frequencies --   3221.2818              3227.2837              3229.8004
 Red. masses --      1.0900                 1.0939                 1.0959
 Frc consts  --      6.6641                 6.7128                 6.7357
 IR Inten    --      4.5446                13.7493                16.2968

                     67                     68                     69
                      A                      A                      A
 Frequencies --   3234.7158              3238.0114              3291.0204
 Red. masses --      1.0993                 1.1002                 1.0673
 Frc consts  --      6.7772                 6.7963                 6.8106
 IR Inten    --     15.7666                13.5144               959.1454

 - Thermochemistry -
 -------------------
 Temperature   298.150 Kelvin.  Pressure   1.00000 Atm.
 Atom     1 has atomic number  6 and mass  12.00000

 Molecular mass:   227.04049 amu.
 Principal axes and moments of inertia in atomic units:
                           1         2         3
     Eigenvalues --  1353.819076330.182127684.00120
           X           -0.69670   0.71736  -0.00000
           Y            0.71736   0.69670  -0.00001
           Z            0.00001   0.00001   1.00000
 This molecule is an asymmetric top.
 Rotational symmetry number  1.
 Warning -- assumption of classical behavior for rotation
           may cause significant error
 Rotational temperatures (Kelvin)      0.06398     0.01368     0.01127
 Rotational constants (GHZ):           1.33307     0.28510     0.23487
 Zero-point vibrational energy     498365.1 (Joules/Mol)
                                  119.11212 (Kcal/Mol)
 Warning -- explicit consideration of  18 degrees of freedom as
           vibrations may cause significant error
 Vibrational temperatures:     49.24    76.42   170.98   217.51   286.38
          (Kelvin)            351.66   384.60   453.51   466.04   570.98
                              631.84   671.55   735.61   739.79   776.38
                              786.61   824.26   855.68   927.28   976.32
                              997.27  1040.11  1083.49  1091.34  1116.53
                             1128.59  1197.82  1207.88  1273.19  1274.73
                             1296.52  1399.48  1402.65  1408.11  1454.63
                             1459.94  1511.15  1536.42  1564.62  1644.88
                             1655.80  1688.73  1701.82  1784.91  1844.92
                             1845.69  1882.52  1951.30  1971.04  1987.13
                             2087.17  2145.51  2148.41  2186.90  2228.33
                             2302.22  2366.97  2380.18  2420.83  2456.29
                             4593.76  4615.20  4618.63  4634.71  4643.34
                             4646.96  4654.03  4658.78  4735.04

 Zero-point correction=                           0.189817 (Hartree/Particle)
 Thermal correction to Energy=                    0.201593
 Thermal correction to Enthalpy=                  0.202537
 Thermal correction to Gibbs Free Energy=         0.150750
 Sum of electronic and zero-point Energies=          -1028.631475
 Sum of electronic and thermal Energies=             -1028.619699
 Sum of electronic and thermal Enthalpies=           -1028.618755
 Sum of electronic and thermal Free Energies=        -1028.670543

                     E (Thermal)             CV                S
                      KCal/Mol        Cal/Mol-Kelvin    Cal/Mol-Kelvin
 Total                  126.501             47.801            108.996
 Electronic               0.000              0.000              0.000
 Translational            0.889              2.981             42.162
 Rotational               0.889              2.981             32.554
 Vibrational            124.724             41.840             34.280
 Vibration     1          0.594              1.983              5.568
 Vibration     2          0.596              1.976              4.698
 Vibration     3          0.609              1.934              3.119
 Vibration     4          0.619              1.901              2.657
 Vibration     5          0.637              1.841              2.142
 Vibration     6          0.660              1.772              1.771
 Vibration     7          0.672              1.733              1.614
 Vibration     8          0.703              1.645              1.335
 Vibration     9          0.708              1.628              1.290
 Vibration    10          0.763              1.477              0.974
 Vibration    11          0.799              1.385              0.829
 Vibration    12          0.824              1.324              0.747
 Vibration    13          0.866              1.225              0.631
 Vibration    14          0.869              1.219              0.624
 Vibration    15          0.895              1.162              0.566
 Vibration    16          0.902              1.147              0.551
 Vibration    17          0.929              1.090              0.499
 Vibration    18          0.952              1.043              0.459

 Optimization completed.
    -- Stationary point found.
 Normal termination of Gaussian 16 at Tue Oct 27 20:40:10 2020.
