 Gaussian 16, Revision C.01,
 Gaussian 16:  ES64L-G16RevC.01  3-Jul-2019

 ----------------------------------------------------------------------
 #p opt=addgic freq wb97xd/cc-pvdz nosymm int=ultrafine scrf=(solvent=C
 arbonTetraChloride)
 ----------------------------------------------------------------------

 ------------------------------------------------
 NM 2D-scan of HBT TD-WB97XD pVDZ in CTC Relaxed.
 ------------------------------------------------
 Symbolic Z-matrix:
 Charge =  0 Multiplicity = 1

 SCF Done:  E(RwB97XD) =  -1028.80533265     A.U. after   15 cycles
 SCF Done:  E(RwB97XD) =  -1028.82359775     A.U. after   13 cycles
 SCF Done:  E(RwB97XD) =  -1028.82522210     A.U. after   12 cycles
 SCF Done:  E(RwB97XD) =  -1028.82560474     A.U. after   11 cycles
 SCF Done:  E(RwB97XD) =  -1028.82563310     A.U. after   10 cycles
 SCF Done:  E(RwB97XD) =  -1028.82563561     A.U. after    9 cycles
 Optimization completed.
    -- Stationary point found.
 Normal termination of Gaussian 16 at Tue Oct 27 21:28:04 2020.

 --------------------------------------------------------------------
 #P Geom=AllCheck Guess=TCheck SCRF=Check GenChk RwB97XD/CC-pVDZ Freq
 --------------------------------------------------------------------

 Structure from the checkpoint file:  "config_4_4.chk"
 ------------------------------------------------
 NM 2D-scan of HBT TD-WB97XD pVDZ in CTC Relaxed.
 ------------------------------------------------
 Charge =  0 Multiplicity = 1

                          Input orientation:
 ---------------------------------------------------------------------
 Center     Atomic      Atomic             Coordinates (Angstroms)
 Number     Number       Type             X           Y           Z
 ---------------------------------------------------------------------
      1          6           0        1.725908   -3.294721   -0.000028
      2          6           0        0.987108   -2.104770   -0.000023
      3          6           0        1.655325   -0.870030   -0.000012
      4          6           0        3.051161   -0.788670   -0.000003
      5          6           0        3.778421   -1.964942   -0.000008
      6          6           0        3.116593   -3.204873   -0.000022
      7          1           0        1.235172   -4.268409   -0.000038
      8          1           0        3.529136    0.191380    0.000006
      9          1           0        4.868761   -1.933138   -0.000003
     10          1           0        3.704238   -4.124261   -0.000027
     11          7           0        0.838799    0.228453   -0.000011
     12         16           0       -0.754078   -1.809132   -0.000032
     13          6           0       -1.394986    1.060296   -0.000007
     14          6           0       -2.793762    0.897287   -0.000008
     15          6           0       -0.874685    2.392905    0.000019
     16          6           0       -3.653090    1.986712    0.000030
     17          1           0       -3.209640   -0.113484   -0.000035
     18          6           0       -1.759257    3.482454    0.000067
     19          6           0       -3.126389    3.286115    0.000074
     20          1           0       -4.731873    1.829595    0.000031
     21          1           0       -1.321205    4.481107    0.000092
     22          1           0       -3.795593    4.148577    0.000109
     23          6           0       -0.432507   -0.052045   -0.000022
     24          8           0        0.422120    2.696559   -0.000007
     25          1           0        0.914632    1.830010   -0.000047
 ---------------------------------------------------------------------

 SCF Done:  E(RwB97XD) =  -1028.82563561     A.U. after    1 cycles

 Alpha  occ. eigenvalues --  -89.09040 -19.27504 -14.46752 -10.39735 -10.37271
 Alpha  occ. eigenvalues --  -10.35089 -10.34773 -10.32587 -10.32561 -10.31844
 Alpha  occ. eigenvalues --  -10.31704 -10.31608 -10.31525 -10.31242 -10.30125
 Alpha  occ. eigenvalues --  -10.29833  -8.10962  -6.05832  -6.05472  -6.05002
 Alpha  occ. eigenvalues --   -1.16235  -1.09171  -0.97252  -0.95974  -0.91373
 Alpha  occ. eigenvalues --   -0.88572  -0.85256  -0.84390  -0.83020  -0.75522
 Alpha  occ. eigenvalues --   -0.71297  -0.70527  -0.69409  -0.68227  -0.62998
 Alpha  occ. eigenvalues --   -0.60524  -0.58752  -0.58282  -0.56255  -0.54454
 Alpha  occ. eigenvalues --   -0.54088  -0.53240  -0.52443  -0.51039  -0.50198
 Alpha  occ. eigenvalues --   -0.49470  -0.47703  -0.45911  -0.45307  -0.44958
 Alpha  occ. eigenvalues --   -0.43743  -0.42776  -0.42757  -0.39812  -0.36846
 Alpha  occ. eigenvalues --   -0.36173  -0.32281  -0.31615  -0.28901
 Alpha virt. eigenvalues --   -0.00492   0.04728   0.06918   0.07281   0.07430
 Alpha virt. eigenvalues --    0.11376   0.13167   0.15091   0.15965   0.17814
 Alpha virt. eigenvalues --    0.19009   0.20690   0.21738   0.22528   0.22702

 Mulliken charges:
               1
     1  C    0.002591
     2  C   -0.222789
     3  C    0.247702
     4  C   -0.012527
     5  C    0.008130
     6  C   -0.001116
     7  H    0.020969
     8  H    0.019265
     9  H    0.020198
    10  H    0.022062
    11  N   -0.337887
    12  S    0.145747
    13  C   -0.082451
    14  C   -0.015961
    15  C    0.076881
    16  C   -0.010672
    17  H    0.008581
    18  C    0.011163
    19  C    0.020447
    20  H    0.009653
    21  H    0.015072
    22  H    0.017650
    23  C    0.081857
    24  O   -0.208294
    25  H    0.163730
 Sum of Mulliken charges =  -0.00000

 Dipole moment (field-independent basis, Debye):
    X=              0.2513    Y=             -2.4910    Z=             -0.0000  Tot=              2.5036
 Quadrupole moment (field-independent basis, Debye-Ang):
   XX=            -82.7276   YY=            -90.0206   ZZ=           -104.1879
   XY=             -7.0971   XZ=             -0.0001   YZ=              0.0003

  Exact polarizability:     275.731     -66.465     257.090      -0.001       0.003      63.076
 Approx polarizability:     263.601     -23.027     243.580      -0.000       0.002      82.278

                      1                      2                      3
                      A                      A                      A
 Frequencies --     37.4895                56.6781               119.7107
 Red. masses --      5.5870                 5.8571                 5.6632
 Frc consts  --      0.0046                 0.0111                 0.0478
 IR Inten    --      0.0501                 1.2973                 1.2097

                      4                      5                      6
                      A                      A                      A
 Frequencies --    151.4033               199.0399               245.0301
 Red. masses --      4.9018                 5.7622                 5.7977
 Frc consts  --      0.0662                 0.1345                 0.2051
 IR Inten    --      0.0204                 0.4738                 0.0656

                      7                      8                      9
                      A                      A                      A
 Frequencies --    268.7829               317.3999               325.4352
 Red. masses --      7.6212                 6.4812                 5.1009
 Frc consts  --      0.3244                 0.3847                 0.3183
 IR Inten    --      0.8673                 7.1266                 0.3888

                     10                     11                     12
                      A                      A                      A
 Frequencies --    402.3880               438.4980               466.0969
 Red. masses --      9.3609                 3.1459                 3.7038
 Frc consts  --      0.8930                 0.3564                 0.4741
 IR Inten    --      0.2781                 2.0953                 8.4613

                     13                     14                     15
                      A                      A                      A
 Frequencies --    514.3840               518.0726               539.1193
 Red. masses --      8.1832                 4.9926                 3.4747
 Frc consts  --      1.2757                 0.7895                 0.5950
 IR Inten    --      1.4355                 7.9585                 3.7971

                     16                     17                     18
                      A                      A                      A
 Frequencies --    548.4756               573.5865               594.2543
 Red. masses --      8.4930                 3.6926                 7.6769
 Frc consts  --      1.5053                 0.7158                 1.5973
 IR Inten    --      2.7782                 0.0487                 5.4941

                     19                     20                     21
                      A                      A                      A
 Frequencies --    646.4636               681.5400               703.5555
 Red. masses --      6.0548                 6.4001                 7.4256
 Frc consts  --      1.4909                 1.7515                 2.1656
 IR Inten    --      0.0407                12.6947                32.8968

                     22                     23                     24
                      A                      A                      A
 Frequencies --    730.4660               754.3840               763.0247
 Red. masses --      9.2118                 2.0390                 2.9857
 Frc consts  --      2.8960                 0.6837                 1.0242
 IR Inten    --      6.4138                27.5704                 0.8008

                     25                     26                     27
                      A                      A                      A
 Frequencies --    775.8697               785.6583               843.3383
 Red. masses --      1.3287                 1.8765                 5.9814
 Frc consts  --      0.4713                 0.6824                 2.5064
 IR Inten    --     67.2594                31.5866                21.1820

                     28                     29                     30
                      A                      A                      A
 Frequencies --    871.8246               884.3636               887.8194
 Red. masses --      1.1520                 1.5398                 1.3927
 Frc consts  --      0.5159                 0.7095                 0.6468
 IR Inten    --     65.8597                 4.7957                11.2114

                     31                     32                     33
                      A                      A                      A
 Frequencies --    902.0824               970.9516               975.4462
 Red. masses --      6.5128                 1.3572                 1.3632
 Frc consts  --      3.1225                 0.7538                 0.7642
 IR Inten    --      0.6436                 1.0431                 1.8247

                     34                     35                     36
                      A                      A                      A
 Frequencies --    985.6236              1011.0319              1015.2991
 Red. masses --      7.5369                 1.2999                 1.3053
 Frc consts  --      4.3139                 0.7829                 0.7928
 IR Inten    --     66.6190                 0.3496                 0.0172

                     37                     38                     39
                      A                      A                      A
 Frequencies --   1051.2517              1067.7336              1092.7265
 Red. masses --      2.0293                 1.9824                 4.5284
 Frc consts  --      1.3213                 1.3316                 3.1858
 IR Inten    --      8.0989                11.7402                 5.7166

                     40                     41                     42
                      A                      A                      A
 Frequencies --   1145.5938              1150.9863              1173.7724
 Red. masses --      1.5113                 1.2764                 1.1177
 Frc consts  --      1.1686                 0.9963                 0.9073
 IR Inten    --     10.2649                 4.4841                47.7027

                     43                     44                     45
                      A                      A                      A
 Frequencies --   1183.7620              1247.7459              1284.0814
 Red. masses --      1.1812                 1.8676                 1.5531
 Frc consts  --      0.9752                 1.7131                 1.5088
 IR Inten    --      0.2833               136.8930                 2.0188

                     46                     47                     48
                      A                      A                      A
 Frequencies --   1287.3085              1325.3702              1355.0396
 Red. masses --      2.3906                 5.6016                 3.2050
 Frc consts  --      2.3342                 5.7974                 3.4672
 IR Inten    --    130.1947                10.0997                16.3232

                     49                     50                     51
                      A                      A                      A
 Frequencies --   1372.5491              1379.6389              1467.6889
 Red. masses --      8.1012                 3.0451                 1.8772
 Frc consts  --      8.9920                 3.4149                 2.3825
 IR Inten    --     16.8717                13.3411                34.7177

                     52                     53                     54
                      A                      A                      A
 Frequencies --   1492.4340              1496.2128              1521.2319
 Red. masses --      2.6768                 3.2356                 3.7713
 Frc consts  --      3.5129                 4.2677                 5.1420
 IR Inten    --     17.6624                28.3141               129.1656

                     55                     56                     57
                      A                      A                      A
 Frequencies --   1556.8826              1594.3890              1647.9695
 Red. masses --      2.2913                 7.2152                 6.4913
 Frc consts  --      3.2722                10.8066                10.3868
 IR Inten    --     83.0842               209.8427                10.7167

                     58                     59                     60
                      A                      A                      A
 Frequencies --   1661.6102              1682.1397              1707.9719
 Red. masses --      3.7965                 6.8272                 5.9576
 Frc consts  --      6.1758                11.3820                10.2396
 IR Inten    --    150.0835                19.7684               122.4582

                     61                     62                     63
                      A                      A                      A
 Frequencies --   3147.0360              3192.3496              3207.0273
 Red. masses --      1.0695                 1.0895                 1.0883
 Frc consts  --      6.2410                 6.5416                 6.5951
 IR Inten    --   1074.3572                10.0383                 1.4096

                     64                     65                     66
                      A                      A                      A
 Frequencies --   3212.0575              3222.3545              3227.7204
 Red. masses --      1.0860                 1.0903                 1.0938
 Frc consts  --      6.6017                 6.6704                 6.7140
 IR Inten    --      1.0092                 2.6468                12.1627

                     67                     68                     69
                      A                      A                      A
 Frequencies --   3231.9370              3235.0634              3238.7838
 Red. masses --      1.0960                 1.0991                 1.1000
 Frc consts  --      6.7451                 6.7773                 6.7985
 IR Inten    --      9.5609                18.0038                13.6677

 - Thermochemistry -
 -------------------
 Temperature   298.150 Kelvin.  Pressure   1.00000 Atm.
 Atom     1 has atomic number  6 and mass  12.00000

 Molecular mass:   227.04049 amu.
 Principal axes and moments of inertia in atomic units:
                           1         2         3
     Eigenvalues --  1335.235326324.479997659.71531
           X           -0.69856   0.71556  -0.00000
           Y            0.71556   0.69856  -0.00001
           Z            0.00001   0.00001   1.00000
 This molecule is an asymmetric top.
 Rotational symmetry number  1.
 Warning -- assumption of classical behavior for rotation
           may cause significant error
 Rotational temperatures (Kelvin)      0.06487     0.01370     0.01131
 Rotational constants (GHZ):           1.35163     0.28536     0.23561
 Zero-point vibrational energy     498633.5 (Joules/Mol)
                                  119.17626 (Kcal/Mol)
 Warning -- explicit consideration of  18 degrees of freedom as
           vibrations may cause significant error
 Vibrational temperatures:     53.94    81.55   172.24   217.84   286.37
          (Kelvin)            352.54   386.72   456.67   468.23   578.95
                              630.90   670.61   740.08   745.39   775.67
                              789.13   825.26   855.00   930.12   980.58
                             1012.26  1050.98  1085.39  1097.82  1116.30
                             1130.39  1213.38  1254.36  1272.40  1277.37
                             1297.90  1396.98  1403.45  1418.09  1454.65
                             1460.79  1512.52  1536.23  1572.19  1648.25
                             1656.01  1688.80  1703.17  1795.23  1847.51
                             1852.15  1906.91  1949.60  1974.79  1984.99
                             2111.68  2147.28  2152.72  2188.71  2240.01
                             2293.97  2371.06  2390.69  2420.22  2457.39
                             4527.88  4593.08  4614.20  4621.43  4636.25
                             4643.97  4650.04  4654.53  4659.89

 Zero-point correction=                           0.189919 (Hartree/Particle)
 Thermal correction to Energy=                    0.201635
 Thermal correction to Enthalpy=                  0.202579
 Thermal correction to Gibbs Free Energy=         0.151023
 Sum of electronic and zero-point Energies=          -1028.635716
 Sum of electronic and thermal Energies=             -1028.624001
 Sum of electronic and thermal Enthalpies=           -1028.623057
 Sum of electronic and thermal Free Energies=        -1028.674613

                     E (Thermal)             CV                S
                      KCal/Mol        Cal/Mol-Kelvin    Cal/Mol-Kelvin
 Total                  126.528             47.596            108.509
 Electronic               0.000              0.000              0.000
 Translational            0.889              2.981             42.162
 Rotational               0.889              2.981             32.536
 Vibrational            124.750             41.635             33.811
 Vibration     1          0.594              1.982              5.388
 Vibration     2          0.596              1.975              4.570
 Vibration     3          0.609              1.933              3.105
 Vibration     4          0.619              1.901              2.655
 Vibration     5          0.637              1.841              2.142
 Vibration     6          0.660              1.771              1.766
 Vibration     7          0.673              1.731              1.604
 Vibration     8          0.704              1.640              1.323
 Vibration     9          0.710              1.625              1.283
 Vibration    10          0.768              1.465              0.954
 Vibration    11          0.799              1.386              0.831
 Vibration    12          0.823              1.325              0.749
 Vibration    13          0.869              1.218              0.623
 Vibration    14          0.873              1.210              0.614
 Vibration    15          0.894              1.164              0.567
 Vibration    16          0.904              1.143              0.547
 Vibration    17          0.930              1.088              0.497
 Vibration    18          0.952              1.044              0.460

 Optimization completed.
    -- Stationary point found.
 Normal termination of Gaussian 16 at Tue Oct 27 21:34:13 2020.
