 Gaussian 16, Revision C.01,
 Gaussian 16:  ES64L-G16RevC.01  3-Jul-2019

 ----------------------------------------------------------------------
 #p opt=addgic freq wb97xd/cc-pvdz nosymm int=ultrafine scrf=(solvent=C
 arbonTetraChloride)
 ----------------------------------------------------------------------

 ------------------------------------------------
 NM 2D-scan of HBT TD-WB97XD pVDZ in CTC Relaxed.
 ------------------------------------------------
 Symbolic Z-matrix:
 Charge =  0 Multiplicity = 1

 SCF Done:  E(RwB97XD) =  -1028.80578129     A.U. after   15 cycles
 SCF Done:  E(RwB97XD) =  -1028.81237072     A.U. after   13 cycles
 SCF Done:  E(RwB97XD) =  -1028.81279609     A.U. after   12 cycles
 SCF Done:  E(RwB97XD) =  -1028.81314427     A.U. after   12 cycles
 SCF Done:  E(RwB97XD) =  -1028.81318594     A.U. after   11 cycles
 SCF Done:  E(RwB97XD) =  -1028.81318650     A.U. after   10 cycles
 SCF Done:  E(RwB97XD) =  -1028.81318603     A.U. after   10 cycles
 SCF Done:  E(RwB97XD) =  -1028.81318798     A.U. after   10 cycles
 Optimization completed.
    -- Stationary point found.
 Normal termination of Gaussian 16 at Wed Oct 28 00:01:08 2020.

 --------------------------------------------------------------------
 #P Geom=AllCheck Guess=TCheck SCRF=Check GenChk RwB97XD/CC-pVDZ Freq
 --------------------------------------------------------------------

 Structure from the checkpoint file:  "config_8_12.chk"
 ------------------------------------------------
 NM 2D-scan of HBT TD-WB97XD pVDZ in CTC Relaxed.
 ------------------------------------------------
 Charge =  0 Multiplicity = 1

                          Input orientation:
 ---------------------------------------------------------------------
 Center     Atomic      Atomic             Coordinates (Angstroms)
 Number     Number       Type             X           Y           Z
 ---------------------------------------------------------------------
      1          6           0        1.600946   -3.259143   -0.000024
      2          6           0        0.994087   -2.006006   -0.000017
      3          6           0        1.743644   -0.817913   -0.000015
      4          6           0        3.139520   -0.876245   -0.000022
      5          6           0        3.746848   -2.128754   -0.000029
      6          6           0        2.990313   -3.308948   -0.000029
      7          1           0        1.003098   -4.170899   -0.000025
      8          1           0        3.730106    0.040105   -0.000022
      9          1           0        4.835876   -2.190533   -0.000034
     10          1           0        3.494281   -4.276104   -0.000034
     11          7           0        0.933485    0.312160   -0.000005
     12         16           0       -0.724078   -1.653544   -0.000011
     13          6           0       -1.342986    1.085417    0.000020
     14          6           0       -2.730803    0.794719    0.000019
     15          6           0       -0.853953    2.446614    0.000038
     16          6           0       -3.658208    1.803182    0.000025
     17          1           0       -3.060979   -0.247903    0.000010
     18          6           0       -1.866232    3.466087    0.000041
     19          6           0       -3.202637    3.148103    0.000034
     20          1           0       -4.725239    1.581589    0.000023
     21          1           0       -1.529886    4.504147    0.000052
     22          1           0       -3.939575    3.955087    0.000038
     23          6           0       -0.372447    0.053928    0.000003
     24          8           0        0.394038    2.719421    0.000056
     25          1           0        1.068880    1.413136    0.000000
 ---------------------------------------------------------------------

 SCF Done:  E(RwB97XD) =  -1028.81318798     A.U. after    1 cycles

 Alpha  occ. eigenvalues --  -89.09785 -19.22417 -14.50915 -10.40841 -10.37057
 Alpha  occ. eigenvalues --  -10.36280 -10.35824 -10.33095 -10.32720 -10.32332
 Alpha  occ. eigenvalues --  -10.32191 -10.31351 -10.30895 -10.30647 -10.29328
 Alpha  occ. eigenvalues --  -10.28885  -8.11850  -6.06717  -6.06348  -6.05871
 Alpha  occ. eigenvalues --   -1.12859  -1.09773  -0.98298  -0.95476  -0.93081
 Alpha  occ. eigenvalues --   -0.89150  -0.86444  -0.83822  -0.82258  -0.75697
 Alpha  occ. eigenvalues --   -0.72097  -0.71839  -0.68741  -0.68020  -0.64372
 Alpha  occ. eigenvalues --   -0.60891  -0.59648  -0.56974  -0.55632  -0.55577
 Alpha  occ. eigenvalues --   -0.54870  -0.53690  -0.52880  -0.50510  -0.49887
 Alpha  occ. eigenvalues --   -0.49201  -0.47983  -0.46655  -0.45450  -0.44886
 Alpha  occ. eigenvalues --   -0.44432  -0.43157  -0.41840  -0.40575  -0.36642
 Alpha  occ. eigenvalues --   -0.33304  -0.33004  -0.31576  -0.26965
 Alpha virt. eigenvalues --   -0.01116   0.03981   0.06049   0.06927   0.08769
 Alpha virt. eigenvalues --    0.11061   0.14196   0.14816   0.16357   0.17580
 Alpha virt. eigenvalues --    0.18996   0.20394   0.21221   0.21681   0.23057

 Mulliken charges:
               1
     1  C    0.016922
     2  C   -0.231071
     3  C    0.266168
     4  C   -0.010925
     5  C    0.008617
     6  C    0.003541
     7  H    0.023960
     8  H    0.029598
     9  H    0.025835
    10  H    0.025388
    11  N   -0.201023
    12  S    0.183156
    13  C   -0.108057
    14  C   -0.015975
    15  C    0.116747
    16  C   -0.026100
    17  H    0.010155
    18  C   -0.015062
    19  C    0.024929
    20  H    0.003368
    21  H    0.004614
    22  H    0.014474
    23  C    0.070242
    24  O   -0.406172
    25  H    0.186669
 Sum of Mulliken charges =  -0.00000

 Dipole moment (field-independent basis, Debye):
    X=              1.2490    Y=             -4.8859    Z=             -0.0001  Tot=              5.0430
 Quadrupole moment (field-independent basis, Debye-Ang):
   XX=            -82.3350   YY=            -94.1729   ZZ=           -104.0039
   XY=             -7.0495   XZ=             -0.0002   YZ=             -0.0001

  Exact polarizability:     283.203     -81.584     277.375      -0.001       0.002      62.862
 Approx polarizability:     265.094     -29.767     254.035      -0.001       0.002      82.021

 ******    1 imaginary frequencies (negative Signs) ******

                      1                      2                      3
                      A                      A                      A
 Frequencies --   -364.2064                55.7192                78.3582
 Red. masses --      2.0252                 5.7587                 4.8008
 Frc consts  --      0.1583                 0.0105                 0.0174
 IR Inten    --    179.1232                 1.1071                 0.6848

                      4                      5                      6
                      A                      A                      A
 Frequencies --    147.4703               160.7061               201.5734
 Red. masses --      5.2797                 5.2568                 6.2491
 Frc consts  --      0.0677                 0.0800                 0.1496
 IR Inten    --      1.3006                 4.9446                 0.0570

                      7                      8                      9
                      A                      A                      A
 Frequencies --    239.8330               284.9423               314.4077
 Red. masses --      6.3129                 6.7729                 5.3613
 Frc consts  --      0.2139                 0.3240                 0.3123
 IR Inten    --      0.7236                 0.8997                 0.5560

                     10                     11                     12
                      A                      A                      A
 Frequencies --    417.4019               431.4247               435.5773
 Red. masses --     10.1242                 3.1792                 4.1734
 Frc consts  --      1.0392                 0.3486                 0.4665
 IR Inten    --      2.3689                 0.4708                 7.9941

                     13                     14                     15
                      A                      A                      A
 Frequencies --    454.1801               513.7638               533.3998
 Red. masses --      3.5888                 8.8184                 2.9472
 Frc consts  --      0.4362                 1.3714                 0.4940
 IR Inten    --     10.3424                 9.1327                 4.6056

                     16                     17                     18
                      A                      A                      A
 Frequencies --    550.6040               564.8423               575.6014
 Red. masses --      8.8290                 3.7544                 6.8062
 Frc consts  --      1.5770                 0.7057                 1.3286
 IR Inten    --      9.9244                 0.0502                17.9584

                     19                     20                     21
                      A                      A                      A
 Frequencies --    612.1678               644.6137               708.9366
 Red. masses --      6.5894                 6.3001                 5.6399
 Frc consts  --      1.4549                 1.5424                 1.6701
 IR Inten    --     10.1362                 0.0235                15.1652

                     22                     23                     24
                      A                      A                      A
 Frequencies --    726.8987               752.1454               763.6374
 Red. masses --      6.7699                 2.5541                 1.4694
 Frc consts  --      2.1076                 0.8513                 0.5048
 IR Inten    --     41.2057                12.3642                51.4139

                     25                     26                     27
                      A                      A                      A
 Frequencies --    775.4419               777.4856               778.8552
 Red. masses --      5.0914                 1.7297                 2.2452
 Frc consts  --      1.8038                 0.6160                 0.8025
 IR Inten    --     40.2163                13.6681                47.4249

                     28                     29                     30
                      A                      A                      A
 Frequencies --    852.0321               878.0125               884.1909
 Red. masses --      6.1294                 1.8112                 1.3821
 Frc consts  --      2.6217                 0.8226                 0.6366
 IR Inten    --     15.5638                 9.3597                 0.5935

                     31                     32                     33
                      A                      A                      A
 Frequencies --    942.7811               967.2566               971.8273
 Red. masses --      5.6941                 1.3293                 1.3617
 Frc consts  --      2.9819                 0.7327                 0.7577
 IR Inten    --     17.1989                 0.3832                 1.6866

                     34                     35                     36
                      A                      A                      A
 Frequencies --   1014.9895              1015.8786              1031.5553
 Red. masses --      1.3051                 1.3071                 5.0689
 Frc consts  --      0.7922                 0.7948                 3.1780
 IR Inten    --      0.0012                 0.1725                 9.8532

                     37                     38                     39
                      A                      A                      A
 Frequencies --   1048.7232              1054.7580              1073.2830
 Red. masses --      2.1381                 2.0375                 1.0703
 Frc consts  --      1.3855                 1.3355                 0.7264
 IR Inten    --      1.8206                10.4384                76.1475

                     40                     41                     42
                      A                      A                      A
 Frequencies --   1111.9734              1160.6155              1161.5658
 Red. masses --      3.1692                 1.3903                 1.2938
 Frc consts  --      2.3088                 1.1034                 1.0285
 IR Inten    --      6.0488                 1.0392                24.8571

                     43                     44                     45
                      A                      A                      A
 Frequencies --   1180.0487              1188.2797              1254.8025
 Red. masses --      1.1399                 1.2159                 1.9091
 Frc consts  --      0.9352                 1.0116                 1.7710
 IR Inten    --     44.6460                 4.6479                20.6037

                     46                     47                     48
                      A                      A                      A
 Frequencies --   1289.2024              1326.9717              1357.3781
 Red. masses --      1.5607                 2.8669                 3.7464
 Frc consts  --      1.5283                 2.9743                 4.0670
 IR Inten    --     23.6044               209.1128                21.7219

                     49                     50                     51
                      A                      A                      A
 Frequencies --   1373.2376              1398.4425              1416.4962
 Red. masses --      4.9114                 4.3277                 3.3136
 Frc consts  --      5.4569                 4.9865                 3.9173
 IR Inten    --     22.5841                 5.7479                43.9939

                     52                     53                     54
                      A                      A                      A
 Frequencies --   1492.3475              1502.2783              1515.8077
 Red. masses --      2.6762                 2.7565                 3.2317
 Frc consts  --      3.5116                 3.6653                 4.3749
 IR Inten    --     18.0775                30.4647                18.1340

                     55                     56                     57
                      A                      A                      A
 Frequencies --   1576.9296              1590.1924              1612.9490
 Red. masses --      4.8419                 4.8274                 8.1733
 Frc consts  --      7.0940                 7.1922                12.5281
 IR Inten    --   1977.8631               111.7772               314.5318

                     58                     59                     60
                      A                      A                      A
 Frequencies --   1657.6098              1680.0498              1710.0655
 Red. masses --      6.9780                 6.8791                 6.4504
 Frc consts  --     11.2966                11.4400                11.1138
 IR Inten    --     16.9423                22.3615               233.9834

                     61                     62                     63
                      A                      A                      A
 Frequencies --   2350.0076              3188.1894              3198.2475
 Red. masses --      1.1150                 1.0890                 1.0883
 Frc consts  --      3.6279                 6.5219                 6.5590
 IR Inten    --    564.6356                 3.4213                13.9794

                     64                     65                     66
                      A                      A                      A
 Frequencies --   3216.0831              3225.0544              3225.9651
 Red. masses --      1.0863                 1.0944                 1.0909
 Frc consts  --      6.6199                 6.7068                 6.6886
 IR Inten    --      1.2955                22.0533                 3.0454

                     67                     68                     69
                      A                      A                      A
 Frequencies --   3235.6646              3235.9563              3241.9555
 Red. masses --      1.0961                 1.0976                 1.0998
 Frc consts  --      6.7612                 6.7714                 6.8104
 IR Inten    --      6.5135                18.0458                10.4180

 - Thermochemistry -
 -------------------
 Temperature   298.150 Kelvin.  Pressure   1.00000 Atm.
 Atom     1 has atomic number  6 and mass  12.00000

 Molecular mass:   227.04049 amu.
 Principal axes and moments of inertia in atomic units:
                           1         2         3
     Eigenvalues --  1294.262556264.764657559.02720
           X           -0.70469   0.70952   0.00000
           Y            0.70952   0.70469  -0.00001
           Z            0.00001   0.00001   1.00000
 This molecule is an asymmetric top.
 Rotational symmetry number  1.
 Warning -- assumption of classical behavior for rotation
           may cause significant error
 Rotational temperatures (Kelvin)      0.06692     0.01383     0.01146
 Rotational constants (GHZ):           1.39442     0.28808     0.23875
    1 imaginary frequencies ignored.
 Zero-point vibrational energy     489928.5 (Joules/Mol)
                                  117.09571 (Kcal/Mol)
 Warning -- explicit consideration of  18 degrees of freedom as
           vibrations may cause significant error
 Vibrational temperatures:     80.17   112.74   212.18   231.22   290.02
          (Kelvin)            345.07   409.97   452.36   600.55   620.72
                              626.70   653.46   739.19   767.44   792.20
                              812.68   828.16   880.77   927.46  1020.00
                             1045.85  1082.17  1098.70  1115.69  1118.63
                             1120.60  1225.88  1263.26  1272.15  1356.45
                             1391.67  1398.24  1460.34  1461.62  1484.18
                             1508.88  1517.56  1544.21  1599.88  1669.87
                             1671.23  1697.83  1709.67  1805.38  1854.87
                             1909.22  1952.96  1975.78  2012.05  2038.02
                             2147.16  2161.44  2180.91  2268.85  2287.93
                             2320.67  2384.93  2417.22  2460.40  3381.14
                             4587.09  4601.56  4627.23  4640.13  4641.44
                             4655.40  4655.82  4664.45

 Zero-point correction=                           0.186604 (Hartree/Particle)
 Thermal correction to Energy=                    0.197914
 Thermal correction to Enthalpy=                  0.198858
 Thermal correction to Gibbs Free Energy=         0.148668
 Sum of electronic and zero-point Energies=          -1028.626584
 Sum of electronic and thermal Energies=             -1028.615274
 Sum of electronic and thermal Enthalpies=           -1028.614330
 Sum of electronic and thermal Free Energies=        -1028.664520

                     E (Thermal)             CV                S
                      KCal/Mol        Cal/Mol-Kelvin    Cal/Mol-Kelvin
 Total                  124.193             46.493            105.635
 Electronic               0.000              0.000              0.000
 Translational            0.889              2.981             42.162
 Rotational               0.889              2.981             32.483
 Vibrational            122.416             40.532             30.990
 Vibration     1          0.596              1.975              4.603
 Vibration     2          0.600              1.964              3.932
 Vibration     3          0.617              1.905              2.705
 Vibration     4          0.622              1.891              2.541
 Vibration     5          0.638              1.838              2.119
 Vibration     6          0.657              1.779              1.804
 Vibration     7          0.683              1.702              1.504
 Vibration     8          0.702              1.646              1.339
 Vibration     9          0.780              1.432              0.901
 Vibration    10          0.792              1.402              0.854
 Vibration    11          0.796              1.393              0.841
 Vibration    12          0.813              1.352              0.783
 Vibration    13          0.869              1.220              0.625
 Vibration    14          0.888              1.176              0.580
 Vibration    15          0.906              1.138              0.543
 Vibration    16          0.921              1.107              0.514
 Vibration    17          0.932              1.084              0.494
 Vibration    18          0.971              1.006              0.429

 Optimization completed.
    -- Stationary point found.
 Normal termination of Gaussian 16 at Wed Oct 28 00:07:12 2020.
