 Gaussian 16, Revision C.01,
 Gaussian 16:  ES64L-G16RevC.01  3-Jul-2019

 ----------------------------------------------------------------------
 #p opt=addgic freq wb97xd/cc-pvdz nosymm int=ultrafine scrf=(solvent=C
 arbonTetraChloride)
 ----------------------------------------------------------------------

 ------------------------------------------------
 NM 2D-scan of HBT TD-WB97XD pVDZ in CTC Relaxed.
 ------------------------------------------------
 Symbolic Z-matrix:
 Charge =  0 Multiplicity = 1

 SCF Done:  E(RwB97XD) =  -1028.80120221     A.U. after   16 cycles
 SCF Done:  E(RwB97XD) =  -1028.81178474     A.U. after   13 cycles
 SCF Done:  E(RwB97XD) =  -1028.81241471     A.U. after   12 cycles
 SCF Done:  E(RwB97XD) =  -1028.81325134     A.U. after   12 cycles
 SCF Done:  E(RwB97XD) =  -1028.81328498     A.U. after   10 cycles
 SCF Done:  E(RwB97XD) =  -1028.81328653     A.U. after    9 cycles
 Optimization completed.
    -- Stationary point found.
 Normal termination of Gaussian 16 at Tue Oct 27 22:24:10 2020.

 --------------------------------------------------------------------
 #P Geom=AllCheck Guess=TCheck SCRF=Check GenChk RwB97XD/CC-pVDZ Freq
 --------------------------------------------------------------------

 Structure from the checkpoint file:  "config_9_8.chk"
 ------------------------------------------------
 NM 2D-scan of HBT TD-WB97XD pVDZ in CTC Relaxed.
 ------------------------------------------------
 Charge =  0 Multiplicity = 1

                          Input orientation:
 ---------------------------------------------------------------------
 Center     Atomic      Atomic             Coordinates (Angstroms)
 Number     Number       Type             X           Y           Z
 ---------------------------------------------------------------------
      1          6           0        1.662383   -3.265974   -0.000039
      2          6           0        0.999439   -2.040497   -0.000022
      3          6           0        1.715319   -0.838663   -0.000006
      4          6           0        3.110255   -0.827507   -0.000003
      5          6           0        3.769357   -2.051220   -0.000019
      6          6           0        3.054931   -3.256785   -0.000037
      7          1           0        1.108738   -4.205083   -0.000052
      8          1           0        3.654992    0.116737    0.000010
      9          1           0        4.859841   -2.071305   -0.000018
     10          1           0        3.594941   -4.204271   -0.000050
     11          7           0        0.875799    0.255862    0.000006
     12         16           0       -0.737496   -1.717480   -0.000017
     13          6           0       -1.374219    1.070347    0.000012
     14          6           0       -2.775564    0.843990    0.000015
     15          6           0       -0.835470    2.425306    0.000022
     16          6           0       -3.663732    1.889687    0.000032
     17          1           0       -3.148392   -0.184457    0.000004
     18          6           0       -1.817385    3.481125    0.000039
     19          6           0       -3.162703    3.219345    0.000046
     20          1           0       -4.738091    1.706062    0.000036
     21          1           0       -1.435775    4.503516    0.000045
     22          1           0       -3.869540    4.052889    0.000059
     23          6           0       -0.433560    0.007264   -0.000000
     24          8           0        0.406753    2.675599   -0.000000
     25          1           0        1.089646    1.295557    0.000024
 ---------------------------------------------------------------------

 SCF Done:  E(RwB97XD) =  -1028.81328653     A.U. after    1 cycles

 Alpha  occ. eigenvalues --  -89.10038 -19.22001 -14.51042 -10.41173 -10.36971
 Alpha  occ. eigenvalues --  -10.36259 -10.35960 -10.33247 -10.32758 -10.32426
 Alpha  occ. eigenvalues --  -10.32247 -10.31291 -10.30784 -10.30764 -10.29219
 Alpha  occ. eigenvalues --  -10.28689  -8.12043  -6.06923  -6.06546  -6.06057
 Alpha  occ. eigenvalues --   -1.13130  -1.09918  -0.98425  -0.95232  -0.93091
 Alpha  occ. eigenvalues --   -0.89244  -0.86429  -0.83922  -0.82040  -0.75748
 Alpha  occ. eigenvalues --   -0.72559  -0.71790  -0.68981  -0.68048  -0.64572
 Alpha  occ. eigenvalues --   -0.60875  -0.59699  -0.56837  -0.55777  -0.55706
 Alpha  occ. eigenvalues --   -0.54939  -0.53650  -0.52927  -0.50537  -0.49843
 Alpha  occ. eigenvalues --   -0.49124  -0.48133  -0.46682  -0.45520  -0.44836
 Alpha  occ. eigenvalues --   -0.44465  -0.43083  -0.41808  -0.40536  -0.36728
 Alpha  occ. eigenvalues --   -0.33435  -0.32471  -0.31611  -0.26684
 Alpha virt. eigenvalues --   -0.01194   0.03877   0.06103   0.06743   0.08986
 Alpha virt. eigenvalues --    0.11054   0.13497   0.14726   0.16113   0.17460
 Alpha virt. eigenvalues --    0.19025   0.20259   0.21239   0.21658   0.23081

 Mulliken charges:
               1
     1  C    0.013559
     2  C   -0.240491
     3  C    0.266906
     4  C   -0.009597
     5  C    0.010940
     6  C    0.002291
     7  H    0.024862
     8  H    0.030860
     9  H    0.026453
    10  H    0.025696
    11  N   -0.153804
    12  S    0.183391
    13  C   -0.123023
    14  C   -0.008829
    15  C    0.115014
    16  C   -0.029694
    17  H    0.005387
    18  C   -0.015978
    19  C    0.026011
    20  H    0.003116
    21  H    0.003130
    22  H    0.013834
    23  C    0.072424
    24  O   -0.400805
    25  H    0.158350
 Sum of Mulliken charges =  -0.00000

 Dipole moment (field-independent basis, Debye):
    X=              1.4859    Y=             -4.9652    Z=              0.0000  Tot=              5.1828
 Quadrupole moment (field-independent basis, Debye-Ang):
   XX=            -82.3413   YY=            -94.2655   ZZ=           -104.0288
   XY=             -7.0181   XZ=             -0.0000   YZ=              0.0003

  Exact polarizability:     285.454     -83.876     281.658      -0.001       0.002      62.933
 Approx polarizability:     266.124     -31.419     255.327      -0.001       0.002      82.029

                      1                      2                      3
                      A                      A                      A
 Frequencies --     55.9330                75.8481               116.0390
 Red. masses --      5.5190                 5.1355                 5.6437
 Frc consts  --      0.0102                 0.0174                 0.0448
 IR Inten    --      0.7672                 1.4535                 2.9340

                      4                      5                      6
                      A                      A                      A
 Frequencies --    142.2381               199.8434               236.1272
 Red. masses --      5.2921                 6.1554                 6.1982
 Frc consts  --      0.0631                 0.1448                 0.2036
 IR Inten    --      1.2490                 0.0148                 0.7432

                      7                      8                      9
                      A                      A                      A
 Frequencies --    269.0855               310.5344               316.0733
 Red. masses --      7.5253                 5.3700                 6.1135
 Frc consts  --      0.3210                 0.3051                 0.3598
 IR Inten    --      9.7917                 0.8874                 9.4858

                     10                     11                     12
                      A                      A                      A
 Frequencies --    409.4856               430.6971               451.0509
 Red. masses --     10.7555                 3.2226                 3.6081
 Frc consts  --      1.0626                 0.3522                 0.4325
 IR Inten    --      3.0016                 0.4882                10.1943

                     13                     14                     15
                      A                      A                      A
 Frequencies --    511.7888               532.5801               542.0297
 Red. masses --      8.7596                 2.8869                 7.7677
 Frc consts  --      1.3518                 0.4825                 1.3446
 IR Inten    --      8.6107                 5.1977                 6.5398

                     16                     17                     18
                      A                      A                      A
 Frequencies --    557.7326               563.1232               584.9304
 Red. masses --      6.3874                 3.7500                 6.6649
 Frc consts  --      1.1706                 0.7006                 1.3436
 IR Inten    --      5.0881                 0.0252                39.0814

                     19                     20                     21
                      A                      A                      A
 Frequencies --    640.8093               645.1236               716.6572
 Red. masses --      6.1240                 5.4008                 6.4233
 Frc consts  --      1.4816                 1.3243                 1.9437
 IR Inten    --      0.0718                 2.7139                27.5654

                     22                     23                     24
                      A                      A                      A
 Frequencies --    731.8690               751.7621               762.8231
 Red. masses --      7.8108                 2.6490                 1.4832
 Frc consts  --      2.4650                 0.8820                 0.5085
 IR Inten    --     63.2158                 9.3573                50.9476

                     25                     26                     27
                      A                      A                      A
 Frequencies --    777.9859               778.4505               830.1019
 Red. masses --      1.8233                 1.9520                 4.4256
 Frc consts  --      0.6502                 0.6969                 1.7967
 IR Inten    --      4.7635                57.3057                19.2803

                     28                     29                     30
                      A                      A                      A
 Frequencies --    860.9703               878.1411               884.0896
 Red. masses --      4.1998                 1.8245                 1.3823
 Frc consts  --      1.8342                 0.8290                 0.6366
 IR Inten    --     11.5241                 7.5360                 0.2279

                     31                     32                     33
                      A                      A                      A
 Frequencies --    957.5470               969.1872               969.9098
 Red. masses --      4.9639                 1.2415                 1.1615
 Frc consts  --      2.6816                 0.6871                 0.6437
 IR Inten    --     36.2881                31.2193                46.0869

                     34                     35                     36
                      A                      A                      A
 Frequencies --    972.5961              1015.6343              1016.3085
 Red. masses --      1.3572                 1.3035                 1.3055
 Frc consts  --      0.7564                 0.7922                 0.7945
 IR Inten    --      3.5493                 0.1241                 0.6703

                     37                     38                     39
                      A                      A                      A
 Frequencies --   1043.2927              1056.7795              1075.5690
 Red. masses --      2.2447                 2.0884                 3.4018
 Frc consts  --      1.4395                 1.3742                 2.3187
 IR Inten    --     14.4473                10.7436                31.2759

                     40                     41                     42
                      A                      A                      A
 Frequencies --   1121.2928              1159.2966              1160.6212
 Red. masses --      2.4366                 1.3822                 1.2236
 Frc consts  --      1.8050                 1.0945                 0.9711
 IR Inten    --     72.7007                11.8574                35.6475

                     43                     44                     45
                      A                      A                      A
 Frequencies --   1183.1197              1195.2395              1259.6926
 Red. masses --      1.1447                 1.2459                 1.8770
 Frc consts  --      0.9441                 1.0486                 1.7548
 IR Inten    --     16.8788                 7.7546                10.2397

                     46                     47                     48
                      A                      A                      A
 Frequencies --   1290.6567              1324.0410              1367.4571
 Red. masses --      1.5311                 2.7892                 3.6733
 Frc consts  --      1.5027                 2.8809                 4.0470
 IR Inten    --     14.8067               136.9130                14.1413

                     49                     50                     51
                      A                      A                      A
 Frequencies --   1383.8996              1394.6163              1419.0615
 Red. masses --      3.9634                 7.0834                 2.6428
 Frc consts  --      4.4723                 8.1171                 3.1355
 IR Inten    --     81.9947                14.2164                13.6258

                     52                     53                     54
                      A                      A                      A
 Frequencies --   1494.8082              1506.7305              1522.3968
 Red. masses --      2.6687                 2.7204                 3.3569
 Frc consts  --      3.5134                 3.6388                 4.5840
 IR Inten    --     15.9382               133.8325                93.4572

                     55                     56                     57
                      A                      A                      A
 Frequencies --   1576.0255              1605.9842              1616.5178
 Red. masses --      4.3525                 4.3173                 8.1758
 Frc consts  --      6.3697                 6.5606                12.5876
 IR Inten    --   1350.1486               224.5891               567.5218

                     58                     59                     60
                      A                      A                      A
 Frequencies --   1668.7348              1682.8617              1712.2328
 Red. masses --      7.0325                 7.0124                 6.3488
 Frc consts  --     11.5380                11.7007                10.9665
 IR Inten    --     51.0889                98.3000               201.6829

                     61                     62                     63
                      A                      A                      A
 Frequencies --   2823.0864              3183.8235              3194.4318
 Red. masses --      1.1020                 1.0891                 1.0882
 Frc consts  --      5.1745                 6.5048                 6.5427
 IR Inten    --    512.1709                 4.2150                14.3866

                     64                     65                     66
                      A                      A                      A
 Frequencies --   3216.8234              3222.0822              3227.3852
 Red. masses --      1.0865                 1.0946                 1.0910
 Frc consts  --      6.6244                 6.6952                 6.6953
 IR Inten    --      1.6878                22.7799                 3.1035

                     67                     68                     69
                      A                      A                      A
 Frequencies --   3234.5244              3237.4509              3243.3110
 Red. masses --      1.0971                 1.0961                 1.0998
 Frc consts  --      6.7624                 6.7688                 6.8164
 IR Inten    --     18.7478                 6.3251                 9.4729

 - Thermochemistry -
 -------------------
 Temperature   298.150 Kelvin.  Pressure   1.00000 Atm.
 Atom     1 has atomic number  6 and mass  12.00000

 Molecular mass:   227.04049 amu.
 Principal axes and moments of inertia in atomic units:
                           1         2         3
     Eigenvalues --  1305.971046293.478037599.44907
           X           -0.70445   0.70975   0.00000
           Y            0.70975   0.70445  -0.00001
           Z            0.00001   0.00000   1.00000
 This molecule is an asymmetric top.
 Rotational symmetry number  1.
 Warning -- assumption of classical behavior for rotation
           may cause significant error
 Rotational temperatures (Kelvin)      0.06632     0.01376     0.01140
 Rotational constants (GHZ):           1.38192     0.28676     0.23748
 Zero-point vibrational energy     495666.4 (Joules/Mol)
                                  118.46712 (Kcal/Mol)
 Warning -- explicit consideration of  18 degrees of freedom as
           vibrations may cause significant error
 Vibrational temperatures:     80.48   109.13   166.95   204.65   287.53
          (Kelvin)            339.73   387.15   446.79   454.76   589.16
                              619.68   648.96   736.35   766.26   779.86
                              802.45   810.21   841.58   921.98   928.19
                             1031.11  1053.00  1081.62  1097.53  1119.35
                             1120.02  1194.33  1238.74  1263.45  1272.01
                             1377.70  1394.44  1395.48  1399.35  1461.27
                             1462.24  1501.07  1520.47  1547.50  1613.29
                             1667.97  1669.88  1702.25  1719.68  1812.42
                             1856.97  1905.00  1967.47  1991.12  2006.54
                             2041.71  2150.70  2167.85  2190.39  2267.55
                             2310.65  2325.81  2400.94  2421.26  2463.52
                             4061.79  4580.81  4596.07  4628.29  4635.86
                             4643.49  4653.76  4657.97  4666.40

 Zero-point correction=                           0.188789 (Hartree/Particle)
 Thermal correction to Energy=                    0.200515
 Thermal correction to Enthalpy=                  0.201459
 Thermal correction to Gibbs Free Energy=         0.150367
 Sum of electronic and zero-point Energies=          -1028.624497
 Sum of electronic and thermal Energies=             -1028.612771
 Sum of electronic and thermal Enthalpies=           -1028.611827
 Sum of electronic and thermal Free Energies=        -1028.662919

                     E (Thermal)             CV                S
                      KCal/Mol        Cal/Mol-Kelvin    Cal/Mol-Kelvin
 Total                  125.825             47.824            107.532
 Electronic               0.000              0.000              0.000
 Translational            0.889              2.981             42.162
 Rotational               0.889              2.981             32.502
 Vibrational            124.048             41.863             32.869
 Vibration     1          0.596              1.975              4.596
 Vibration     2          0.599              1.965              3.996
 Vibration     3          0.608              1.936              3.165
 Vibration     4          0.616              1.911              2.774
 Vibration     5          0.638              1.840              2.135
 Vibration     6          0.655              1.785              1.832
 Vibration     7          0.673              1.730              1.602
 Vibration     8          0.699              1.654              1.359
 Vibration     9          0.703              1.643              1.330
 Vibration    10          0.774              1.450              0.928
 Vibration    11          0.792              1.403              0.856
 Vibration    12          0.810              1.359              0.793
 Vibration    13          0.867              1.224              0.629
 Vibration    14          0.888              1.178              0.581
 Vibration    15          0.897              1.157              0.561
 Vibration    16          0.913              1.123              0.528
 Vibration    17          0.919              1.111              0.518
 Vibration    18          0.942              1.064              0.476

 Optimization completed.
    -- Stationary point found.
 Normal termination of Gaussian 16 at Tue Oct 27 22:30:28 2020.
