 Gaussian 16, Revision C.01,
 Gaussian 16:  ES64L-G16RevC.01  3-Jul-2019

 ----------------------------------------------------------------------
 #p opt=addgic freq wb97xd/cc-pvdz nosymm int=ultrafine scrf=(solvent=C
 arbonTetraChloride)
 ----------------------------------------------------------------------

 ------------------------------------------------
 NM 2D-scan of HBT TD-WB97XD pVDZ in CTC Relaxed.
 ------------------------------------------------
 Symbolic Z-matrix:
 Charge =  0 Multiplicity = 1

 SCF Done:  E(RwB97XD) =  -1028.55249068     A.U. after   15 cycles
 SCF Done:  E(RwB97XD) =  -1028.75965103     A.U. after   13 cycles
 SCF Done:  E(RwB97XD) =  -1028.80232538     A.U. after   15 cycles
 SCF Done:  E(RwB97XD) =  -1028.81410062     A.U. after   13 cycles
 SCF Done:  E(RwB97XD) =  -1028.81551832     A.U. after   12 cycles
 SCF Done:  E(RwB97XD) =  -1028.81566010     A.U. after   11 cycles
 SCF Done:  E(RwB97XD) =  -1028.81567116     A.U. after    9 cycles
 SCF Done:  E(RwB97XD) =  -1028.81567202     A.U. after    8 cycles
 Optimization completed.
    -- Stationary point found.
 Normal termination of Gaussian 16 at Tue Oct 27 20:33:14 2020.

 --------------------------------------------------------------------
 #P Geom=AllCheck Guess=TCheck SCRF=Check GenChk RwB97XD/CC-pVDZ Freq
 --------------------------------------------------------------------

 Structure from the checkpoint file:  "config_2_1.chk"
 ------------------------------------------------
 NM 2D-scan of HBT TD-WB97XD pVDZ in CTC Relaxed.
 ------------------------------------------------
 Charge =  0 Multiplicity = 1

                          Input orientation:
 ---------------------------------------------------------------------
 Center     Atomic      Atomic             Coordinates (Angstroms)
 Number     Number       Type             X           Y           Z
 ---------------------------------------------------------------------
      1          6           0        1.778271   -3.325441   -0.000033
      2          6           0        0.972966   -2.171637   -0.000004
      3          6           0        1.610524   -0.917070    0.000005
      4          6           0        3.000231   -0.769160   -0.000005
      5          6           0        3.784451   -1.902466   -0.000030
      6          6           0        3.167043   -3.167059   -0.000047
      7          1           0        1.345144   -4.326394   -0.000042
      8          1           0        3.418413    0.237883    0.000005
      9          1           0        4.872430   -1.825102   -0.000040
     10          1           0        3.791998   -4.061952   -0.000069
     11          7           0        0.804427    0.180056    0.000012
     12         16           0       -0.779677   -1.897905    0.000034
     13          6           0       -1.400664    1.058656    0.000003
     14          6           0       -2.812840    0.941352   -0.000015
     15          6           0       -0.881851    2.398078    0.000023
     16          6           0       -3.648040    2.048186    0.000005
     17          1           0       -3.256169   -0.057569   -0.000043
     18          6           0       -1.740787    3.502589    0.000063
     19          6           0       -3.105908    3.342788    0.000055
     20          1           0       -4.729408    1.908922   -0.000010
     21          1           0       -1.269572    4.485627    0.000094
     22          1           0       -3.757565    4.218222    0.000083
     23          6           0       -0.460505   -0.090646    0.000013
     24          8           0        0.405720    2.800144    0.000018
     25          1           0        0.974376    2.021981    0.000021
 ---------------------------------------------------------------------

 SCF Done:  E(RwB97XD) =  -1028.81567202     A.U. after    1 cycles

 Alpha  occ. eigenvalues --  -89.08948 -19.28487 -14.46444 -10.39744 -10.37586
 Alpha  occ. eigenvalues --  -10.35167 -10.34379 -10.33272 -10.32592 -10.31912
 Alpha  occ. eigenvalues --  -10.31659 -10.31377 -10.31301 -10.31189 -10.30235
 Alpha  occ. eigenvalues --  -10.29823  -8.10758  -6.05642  -6.05287  -6.04788
 Alpha  occ. eigenvalues --   -1.16577  -1.08908  -0.97097  -0.95928  -0.90819
 Alpha  occ. eigenvalues --   -0.88425  -0.85156  -0.84354  -0.82876  -0.75444
 Alpha  occ. eigenvalues --   -0.71207  -0.70673  -0.69514  -0.67879  -0.62870
 Alpha  occ. eigenvalues --   -0.60073  -0.58509  -0.58253  -0.56266  -0.54409
 Alpha  occ. eigenvalues --   -0.53644  -0.53054  -0.52262  -0.50956  -0.50269
 Alpha  occ. eigenvalues --   -0.49184  -0.47774  -0.45698  -0.45176  -0.44841
 Alpha  occ. eigenvalues --   -0.43626  -0.42860  -0.42548  -0.39591  -0.37173
 Alpha  occ. eigenvalues --   -0.36061  -0.32099  -0.31646  -0.29020
 Alpha virt. eigenvalues --   -0.00407   0.04815   0.06795   0.07091   0.07190
 Alpha virt. eigenvalues --    0.11593   0.12055   0.15083   0.15630   0.17411
 Alpha virt. eigenvalues --    0.18991   0.20175   0.21702   0.22354   0.22799

 Mulliken charges:
               1
     1  C   -0.006652
     2  C   -0.211197
     3  C    0.235331
     4  C   -0.012448
     5  C    0.008990
     6  C   -0.003600
     7  H    0.022188
     8  H    0.015786
     9  H    0.018872
    10  H    0.021608
    11  N   -0.309786
    12  S    0.129225
    13  C   -0.078762
    14  C   -0.011974
    15  C    0.070155
    16  C   -0.008677
    17  H    0.008627
    18  C    0.022044
    19  C    0.018193
    20  H    0.010711
    21  H    0.016851
    22  H    0.017644
    23  C    0.064525
    24  O   -0.187047
    25  H    0.149391
 Sum of Mulliken charges =  -0.00000

 Dipole moment (field-independent basis, Debye):
    X=              0.3215    Y=             -1.8997    Z=              0.0000  Tot=              1.9267
 Quadrupole moment (field-independent basis, Debye-Ang):
   XX=            -82.5792   YY=            -89.7225   ZZ=           -104.3742
   XY=             -6.7291   XZ=             -0.0001   YZ=              0.0004

  Exact polarizability:     276.043     -64.301     257.802      -0.001       0.003      63.277
 Approx polarizability:     264.489     -21.746     244.780      -0.001       0.002      82.407

                      1                      2                      3
                      A                      A                      A
 Frequencies --     41.1922                46.2184               110.6962
 Red. masses --      5.3452                 6.3002                 5.6593
 Frc consts  --      0.0053                 0.0079                 0.0409
 IR Inten    --      0.0209                 1.1838                 0.7526

                      4                      5                      6
                      A                      A                      A
 Frequencies --    149.6595               200.0282               243.2375
 Red. masses --      4.7560                 5.5239                 5.8754
 Frc consts  --      0.0628                 0.1302                 0.2048
 IR Inten    --      0.0061                 0.1365                 0.2789

                      7                      8                      9
                      A                      A                      A
 Frequencies --    252.2548               283.8301               322.5242
 Red. masses --      8.5127                 6.0973                 4.9256
 Frc consts  --      0.3191                 0.2894                 0.3019
 IR Inten    --      4.5859                 4.3767                 1.1320

                     10                     11                     12
                      A                      A                      A
 Frequencies --    390.8139               441.3650               470.3444
 Red. masses --      8.3426                 3.1917                 3.7081
 Frc consts  --      0.7507                 0.3663                 0.4833
 IR Inten    --      0.2634                 1.7296                11.6977

                     13                     14                     15
                      A                      A                      A
 Frequencies --    480.2456               510.3327               539.7908
 Red. masses --      4.4962                 8.9487                 3.4320
 Frc consts  --      0.6110                 1.3732                 0.5892
 IR Inten    --      2.5115                 0.8806                 5.0957

                     16                     17                     18
                      A                      A                      A
 Frequencies --    545.5545               565.0542               573.9704
 Red. masses --      8.6898                 1.3358                 2.5907
 Frc consts  --      1.5238                 0.2513                 0.5029
 IR Inten    --      3.2664                59.5657                15.9458

                     19                     20                     21
                      A                      A                      A
 Frequencies --    596.2439               651.3619               662.5127
 Red. masses --      7.7153                 4.6089                 8.3855
 Frc consts  --      1.6160                 1.1521                 2.1685
 IR Inten    --      6.4277                11.2392                65.4160

                     22                     23                     24
                      A                      A                      A
 Frequencies --    676.7567               711.3599               753.7490
 Red. masses --      6.7211                 7.1840                 1.9664
 Frc consts  --      1.8136                 2.1419                 0.6582
 IR Inten    --      0.4368                 2.3543                21.4927

                     25                     26                     27
                      A                      A                      A
 Frequencies --    765.4838               778.3037               787.4645
 Red. masses --      3.8645                 1.3047                 1.8876
 Frc consts  --      1.3342                 0.4656                 0.6896
 IR Inten    --      7.2363                61.8083                33.5015

                     28                     29                     30
                      A                      A                      A
 Frequencies --    831.7396               886.1654               887.0264
 Red. masses --      6.2894                 1.4567                 1.4996
 Frc consts  --      2.5635                 0.6740                 0.6952
 IR Inten    --     32.0946                 4.3596                 0.6011

                     31                     32                     33
                      A                      A                      A
 Frequencies --    893.7712               961.7113               974.8823
 Red. masses --      6.3826                 7.5825                 1.3523
 Frc consts  --      3.0040                 4.1319                 0.7572
 IR Inten    --      0.8530                83.7999                 1.9784

                     34                     35                     36
                      A                      A                      A
 Frequencies --    975.6932              1011.7256              1014.2776
 Red. masses --      1.3628                 1.2992                 1.3062
 Frc consts  --      0.7644                 0.7835                 0.7917
 IR Inten    --      0.6643                 0.2711                 0.0057

                     37                     38                     39
                      A                      A                      A
 Frequencies --   1048.5205              1068.9694              1084.0126
 Red. masses --      2.0924                 2.1183                 4.8193
 Frc consts  --      1.3553                 1.4262                 3.3366
 IR Inten    --      8.2663                20.4350                 5.1902

                     40                     41                     42
                      A                      A                      A
 Frequencies --   1135.6796              1148.2230              1175.7053
 Red. masses --      1.6899                 1.2561                 1.1137
 Frc consts  --      1.2842                 0.9757                 0.9070
 IR Inten    --     24.9921                 8.8134                55.9353

                     43                     44                     45
                      A                      A                      A
 Frequencies --   1182.5153              1210.1542              1267.8977
 Red. masses --      1.1826                 1.4047                 2.6736
 Frc consts  --      0.9743                 1.2121                 2.5323
 IR Inten    --      0.3097               181.5465                20.1746

                     46                     47                     48
                      A                      A                      A
 Frequencies --   1268.8532              1280.3634              1345.5016
 Red. masses --      2.9129                 1.7462                 2.3678
 Frc consts  --      2.7631                 1.6866                 2.5256
 IR Inten    --     59.2393                 4.6841                 8.6213

                     49                     50                     51
                      A                      A                      A
 Frequencies --   1358.9330              1380.2213              1382.6961
 Red. masses --      3.9356                 2.8402                 3.0957
 Frc consts  --      4.2821                 3.1878                 3.4871
 IR Inten    --     14.7785                 0.2617                91.9813

                     52                     53                     54
                      A                      A                      A
 Frequencies --   1488.5035              1491.0033              1512.8192
 Red. masses --      2.5951                 3.0650                 3.0339
 Frc consts  --      3.3877                 4.0146                 4.0910
 IR Inten    --     24.1953                26.0887               111.3423

                     55                     56                     57
                      A                      A                      A
 Frequencies --   1530.3295              1612.9124              1636.7658
 Red. masses --      3.2462                 8.3763                 6.0774
 Frc consts  --      4.4791                12.8388                 9.5927
 IR Inten    --      7.2525               175.0111                40.2855

                     58                     59                     60
                      A                      A                      A
 Frequencies --   1644.7696              1685.7236              1708.9959
 Red. masses --      7.2050                 6.8947                 6.6523
 Frc consts  --     11.4840                11.5435                11.4473
 IR Inten    --     68.8937                 1.1673                68.3353

                     61                     62                     63
                      A                      A                      A
 Frequencies --   3193.6896              3207.5548              3209.9338
 Red. masses --      1.0890                 1.0864                 1.0884
 Frc consts  --      6.5443                 6.5856                 6.6076
 IR Inten    --      3.5762                 0.5320                 5.4063

                     64                     65                     66
                      A                      A                      A
 Frequencies --   3220.1611              3227.8346              3228.4894
 Red. masses --      1.0897                 1.0957                 1.0942
 Frc consts  --      6.6578                 6.7262                 6.7199
 IR Inten    --      3.5200                15.0502                14.6412

                     67                     68                     69
                      A                      A                      A
 Frequencies --   3236.7909              3237.2674              3774.5639
 Red. masses --      1.0994                 1.1003                 1.0652
 Frc consts  --      6.7865                 6.7939                 8.9417
 IR Inten    --     16.8834                 9.8788               464.2375

 - Thermochemistry -
 -------------------
 Temperature   298.150 Kelvin.  Pressure   1.00000 Atm.
 Atom     1 has atomic number  6 and mass  12.00000

 Molecular mass:   227.04049 amu.
 Principal axes and moments of inertia in atomic units:
                           1         2         3
     Eigenvalues --  1381.221746393.291127774.51286
           X           -0.69053   0.72331   0.00000
           Y            0.72331   0.69053  -0.00001
           Z            0.00001   0.00000   1.00000
 This molecule is an asymmetric top.
 Rotational symmetry number  1.
 Warning -- assumption of classical behavior for rotation
           may cause significant error
 Rotational temperatures (Kelvin)      0.06271     0.01355     0.01114
 Rotational constants (GHZ):           1.30663     0.28229     0.23214
 Zero-point vibrational energy     497489.2 (Joules/Mol)
                                  118.90277 (Kcal/Mol)
 Warning -- explicit consideration of  19 degrees of freedom as
           vibrations may cause significant error
 Vibrational temperatures:     59.27    66.50   159.27   215.33   287.80
          (Kelvin)            349.96   362.94   408.37   464.04   562.29
                              635.03   676.72   690.97   734.25   776.64
                              784.93   812.99   825.82   857.86   937.16
                              953.21   973.70  1023.49  1084.48  1101.36
                             1119.81  1132.99  1196.69  1274.99  1276.23
                             1285.94  1383.69  1402.64  1403.80  1455.65
                             1459.32  1508.59  1538.01  1559.65  1633.99
                             1652.04  1691.58  1701.38  1741.14  1824.22
                             1825.60  1842.16  1935.88  1955.20  1985.83
                             1989.39  2141.62  2145.22  2176.61  2201.80
                             2320.62  2354.94  2366.46  2425.38  2458.86
                             4595.01  4614.96  4618.38  4633.09  4644.13
                             4645.08  4657.02  4657.71  5430.76

 Zero-point correction=                           0.189484 (Hartree/Particle)
 Thermal correction to Energy=                    0.201501
 Thermal correction to Enthalpy=                  0.202445
 Thermal correction to Gibbs Free Energy=         0.150239
 Sum of electronic and zero-point Energies=          -1028.626188
 Sum of electronic and thermal Energies=             -1028.614171
 Sum of electronic and thermal Enthalpies=           -1028.613227
 Sum of electronic and thermal Free Energies=        -1028.665434

                     E (Thermal)             CV                S
                      KCal/Mol        Cal/Mol-Kelvin    Cal/Mol-Kelvin
 Total                  126.444             48.663            109.877
 Electronic               0.000              0.000              0.000
 Translational            0.889              2.981             42.162
 Rotational               0.889              2.981             32.596
 Vibrational            124.666             42.701             35.120
 Vibration     1          0.594              1.981              5.201
 Vibration     2          0.595              1.979              4.973
 Vibration     3          0.607              1.941              3.257
 Vibration     4          0.618              1.903              2.677
 Vibration     5          0.638              1.840              2.133
 Vibration     6          0.659              1.774              1.779
 Vibration     7          0.664              1.759              1.715
 Vibration     8          0.682              1.704              1.510
 Vibration     9          0.708              1.630              1.297
 Vibration    10          0.758              1.490              0.997
 Vibration    11          0.801              1.380              0.822
 Vibration    12          0.827              1.316              0.737
 Vibration    13          0.837              1.294              0.709
 Vibration    14          0.865              1.227              0.633
 Vibration    15          0.895              1.162              0.566
 Vibration    16          0.901              1.149              0.553
 Vibration    17          0.921              1.107              0.514
 Vibration    18          0.930              1.088              0.497
 Vibration    19          0.954              1.040              0.456

 Optimization completed.
    -- Stationary point found.
 Normal termination of Gaussian 16 at Tue Oct 27 20:39:09 2020.
