 Gaussian 16, Revision C.01,
 Gaussian 16:  ES64L-G16RevC.01  3-Jul-2019

 ----------------------------------------------------------------------
 #p opt=addgic freq wb97xd/cc-pvdz nosymm int=ultrafine scrf=(solvent=C
 arbonTetraChloride)
 ----------------------------------------------------------------------

 ------------------------------------------------
 NM 2D-scan of HBT TD-WB97XD pVDZ in CTC Relaxed.
 ------------------------------------------------
 Symbolic Z-matrix:
 Charge =  0 Multiplicity = 1

 SCF Done:  E(RwB97XD) =  -1028.73968848     A.U. after   16 cycles
 SCF Done:  E(RwB97XD) =  -1028.79387588     A.U. after   14 cycles
 SCF Done:  E(RwB97XD) =  -1028.80022967     A.U. after   13 cycles
 SCF Done:  E(RwB97XD) =  -1028.80086840     A.U. after   12 cycles
 SCF Done:  E(RwB97XD) =  -1028.80093277     A.U. after   11 cycles
 SCF Done:  E(RwB97XD) =  -1028.80100893     A.U. after   11 cycles
 SCF Done:  E(RwB97XD) =  -1028.80100960     A.U. after    9 cycles
 Optimization completed.
    -- Stationary point found.
 Normal termination of Gaussian 16 at Tue Oct 27 21:05:17 2020.

 --------------------------------------------------------------------
 #P Geom=AllCheck Guess=TCheck SCRF=Check GenChk RwB97XD/CC-pVDZ Freq
 --------------------------------------------------------------------

 Structure from the checkpoint file:  "config_11_3.chk"
 ------------------------------------------------
 NM 2D-scan of HBT TD-WB97XD pVDZ in CTC Relaxed.
 ------------------------------------------------
 Charge =  0 Multiplicity = 1

                          Input orientation:
 ---------------------------------------------------------------------
 Center     Atomic      Atomic             Coordinates (Angstroms)
 Number     Number       Type             X           Y           Z
 ---------------------------------------------------------------------
      1          6           0        1.743612   -3.271392   -0.000011
      2          6           0        1.016713   -2.082814    0.000003
      3          6           0        1.688317   -0.872616   -0.000009
      4          6           0        3.077773   -0.771407   -0.000025
      5          6           0        3.797645   -1.959450   -0.000033
      6          6           0        3.136267   -3.193121   -0.000029
      7          1           0        1.242695   -4.239236   -0.000008
      8          1           0        3.567425    0.202723   -0.000031
      9          1           0        4.887752   -1.928347   -0.000045
     10          1           0        3.718276   -4.115253   -0.000041
     11          7           0        0.799689    0.170309   -0.000016
     12         16           0       -0.745180   -1.787193    0.000030
     13          6           0       -1.424495    1.057670    0.000002
     14          6           0       -2.834524    0.914602   -0.000022
     15          6           0       -0.812645    2.397122    0.000025
     16          6           0       -3.678166    2.004478   -0.000002
     17          1           0       -3.261217   -0.092897   -0.000059
     18          6           0       -1.764526    3.498722    0.000079
     19          6           0       -3.121423    3.309480    0.000059
     20          1           0       -4.759330    1.864497   -0.000023
     21          1           0       -1.333070    4.501439    0.000131
     22          1           0       -3.788712    4.175220    0.000091
     23          6           0       -0.518515   -0.047144    0.000005
     24          8           0        0.421483    2.586504    0.000059
     25          1           0        1.179145    1.097250   -0.000057
 ---------------------------------------------------------------------

 SCF Done:  E(RwB97XD) =  -1028.80100960     A.U. after    1 cycles

 Alpha  occ. eigenvalues --  -89.10269 -19.21482 -14.51143 -10.41730 -10.36749
 Alpha  occ. eigenvalues --  -10.36225 -10.36015 -10.33441 -10.32940 -10.32621
 Alpha  occ. eigenvalues --  -10.32347 -10.31174 -10.30940 -10.30584 -10.29061
 Alpha  occ. eigenvalues --  -10.28494  -8.12223  -6.07120  -6.06725  -6.06227
 Alpha  occ. eigenvalues --   -1.13564  -1.10234  -0.98636  -0.94982  -0.93148
 Alpha  occ. eigenvalues --   -0.89343  -0.86434  -0.84099  -0.81671  -0.75765
 Alpha  occ. eigenvalues --   -0.73648  -0.71570  -0.69469  -0.67841  -0.64551
 Alpha  occ. eigenvalues --   -0.60872  -0.59807  -0.56697  -0.56048  -0.55920
 Alpha  occ. eigenvalues --   -0.55003  -0.53577  -0.52891  -0.50617  -0.49579
 Alpha  occ. eigenvalues --   -0.49054  -0.48153  -0.46683  -0.45632  -0.44798
 Alpha  occ. eigenvalues --   -0.44513  -0.42915  -0.41721  -0.40468  -0.36865
 Alpha  occ. eigenvalues --   -0.33611  -0.31676  -0.31673  -0.26292
 Alpha virt. eigenvalues --   -0.01318   0.03724   0.06179   0.06681   0.09358
 Alpha virt. eigenvalues --    0.11072   0.12183   0.14625   0.15936   0.17240
 Alpha virt. eigenvalues --    0.18939   0.19969   0.21204   0.21646   0.22956

 Mulliken charges:
               1
     1  C    0.008852
     2  C   -0.252540
     3  C    0.249564
     4  C   -0.010649
     5  C    0.013646
     6  C    0.001682
     7  H    0.025904
     8  H    0.033718
     9  H    0.027742
    10  H    0.026257
    11  N   -0.088628
    12  S    0.178545
    13  C   -0.140432
    14  C   -0.001623
    15  C    0.116287
    16  C   -0.035040
    17  H    0.000542
    18  C   -0.027230
    19  C    0.028276
    20  H    0.002901
    21  H    0.000996
    22  H    0.013092
    23  C    0.089786
    24  O   -0.383606
    25  H    0.121959
 Sum of Mulliken charges =  -0.00000

 Dipole moment (field-independent basis, Debye):
    X=              1.9277    Y=             -5.0584    Z=             -0.0002  Tot=              5.4133
 Quadrupole moment (field-independent basis, Debye-Ang):
   XX=            -82.1250   YY=            -94.3347   ZZ=           -104.0611
   XY=             -6.8986   XZ=             -0.0003   YZ=             -0.0001

  Exact polarizability:     289.478     -88.123     287.419      -0.001       0.003      63.031
 Approx polarizability:     268.458     -34.761     256.407      -0.001       0.002      82.061

 ******    1 imaginary frequencies (negative Signs) ******

                      1                      2                      3
                      A                      A                      A
 Frequencies --    -22.4152                63.8728               114.5275
 Red. masses --      5.0575                 6.4052                 5.6724
 Frc consts  --      0.0015                 0.0154                 0.0438
 IR Inten    --      0.9545                 2.1499                 0.6336

                      4                      5                      6
                      A                      A                      A
 Frequencies --    120.9376               191.7012               233.1538
 Red. masses --      5.0664                 5.7169                 5.9110
 Frc consts  --      0.0437                 0.1238                 0.1893
 IR Inten    --      0.4000                 0.0205                 0.9353

                      7                      8                      9
                      A                      A                      A
 Frequencies --    267.1552               305.3012               332.9069
 Red. masses --      7.4228                 5.1849                 6.5208
 Frc consts  --      0.3121                 0.2847                 0.4258
 IR Inten    --      3.6015                 2.2305                 5.4896

                     10                     11                     12
                      A                      A                      A
 Frequencies --    391.1559               427.6640               443.8576
 Red. masses --      9.9455                 3.2537                 3.5640
 Frc consts  --      0.8966                 0.3506                 0.4137
 IR Inten    --      6.0977                 1.1768                10.6609

                     13                     14                     15
                      A                      A                      A
 Frequencies --    504.1184               527.1491               538.6716
 Red. masses --      8.1222                 2.7698                 8.9631
 Frc consts  --      1.2162                 0.4535                 1.5323
 IR Inten    --      8.4371                 9.0319                 9.5423

                     16                     17                     18
                      A                      A                      A
 Frequencies --    559.8118               561.2175               586.4046
 Red. masses --      6.8160                 3.7084                 7.2233
 Frc consts  --      1.2585                 0.6882                 1.4635
 IR Inten    --      0.7051                 0.0786                38.9974

                     19                     20                     21
                      A                      A                      A
 Frequencies --    616.8758               661.8264               675.5227
 Red. masses --      2.2870                 5.8849                 1.6114
 Frc consts  --      0.5128                 1.5187                 0.4332
 IR Inten    --     13.3389                 6.7100                36.1903

                     22                     23                     24
                      A                      A                      A
 Frequencies --    698.3635               740.6700               750.1211
 Red. masses --      6.3174                 8.1730                 2.6161
 Frc consts  --      1.8153                 2.6417                 0.8673
 IR Inten    --     33.7804                50.3690                 9.7143

                     25                     26                     27
                      A                      A                      A
 Frequencies --    761.1338               775.9393               780.8961
 Red. masses --      1.4074                 1.6077                 2.3666
 Frc consts  --      0.4804                 0.5703                 0.8503
 IR Inten    --     49.5662                29.9661                49.5918

                     28                     29                     30
                      A                      A                      A
 Frequencies --    829.2251               877.2947               880.0429
 Red. masses --      6.2090                 1.9599                 1.3844
 Frc consts  --      2.5155                 0.8887                 0.6317
 IR Inten    --     22.9789                15.6145                 1.8979

                     31                     32                     33
                      A                      A                      A
 Frequencies --    903.6437               962.5561               968.1188
 Red. masses --      5.1661                 4.3367                 1.3255
 Frc consts  --      2.4855                 2.3674                 0.7320
 IR Inten    --      2.3907                42.7351                 0.2403

                     34                     35                     36
                      A                      A                      A
 Frequencies --    971.2006              1014.6420              1016.0221
 Red. masses --      1.3577                 1.3033                 1.3028
 Frc consts  --      0.7545                 0.7905                 0.7924
 IR Inten    --      1.4197                 0.0065                 0.3493

                     37                     38                     39
                      A                      A                      A
 Frequencies --   1046.7116              1057.2043              1082.9852
 Red. masses --      2.1474                 2.1722                 3.5274
 Frc consts  --      1.3862                 1.4304                 2.4375
 IR Inten    --      9.2574                11.2394                25.9009

                     40                     41                     42
                      A                      A                      A
 Frequencies --   1111.4014              1154.8056              1157.6898
 Red. masses --      2.1776                 1.3169                 1.1994
 Frc consts  --      1.5848                 1.0347                 0.9471
 IR Inten    --    141.6165                 7.9379                71.2472

                     43                     44                     45
                      A                      A                      A
 Frequencies --   1182.7666              1193.9757              1253.4050
 Red. masses --      1.1409                 1.2307                 1.9407
 Frc consts  --      0.9404                 1.0337                 1.7963
 IR Inten    --     12.2688                18.4103                 1.4932

                     46                     47                     48
                      A                      A                      A
 Frequencies --   1293.5603              1299.4390              1368.3239
 Red. masses --      1.5634                 2.4027                 3.4892
 Frc consts  --      1.5413                 2.3903                 3.8490
 IR Inten    --      6.1474               191.0676               121.7771

                     49                     50                     51
                      A                      A                      A
 Frequencies --   1375.4491              1393.9563              1417.9499
 Red. masses --      4.1338                 6.2274                 2.2919
 Frc consts  --      4.6078                 7.1294                 2.7150
 IR Inten    --      4.5515                91.2199                24.2985

                     52                     53                     54
                      A                      A                      A
 Frequencies --   1490.1881              1505.3758              1533.1829
 Red. masses --      2.7557                 2.9361                 2.9826
 Frc consts  --      3.6055                 3.9203                 4.1308
 IR Inten    --    190.6585               596.0419               218.4752

                     55                     56                     57
                      A                      A                      A
 Frequencies --   1557.6263              1598.5898              1641.8054
 Red. masses --      4.6115                 6.3148                 6.7894
 Frc consts  --      6.5920                 9.5079                10.7827
 IR Inten    --    909.4320               249.6626               106.8720

                     58                     59                     60
                      A                      A                      A
 Frequencies --   1681.7822              1696.1610              1720.0003
 Red. masses --      7.2086                 7.7736                 7.2765
 Frc consts  --     12.0127                13.1766                12.6832
 IR Inten    --     75.5205               136.6202               275.4640

                     61                     62                     63
                      A                      A                      A
 Frequencies --   3176.5157              3190.3858              3217.1020
 Red. masses --      1.0895                 1.0879                 1.0943
 Frc consts  --      6.4771                 6.5241                 6.6729
 IR Inten    --      6.4996                14.7735                24.2961

                     64                     65                     66
                      A                      A                      A
 Frequencies --   3218.4964              3228.5766              3229.5728
 Red. masses --      1.0865                 1.0907                 1.0969
 Frc consts  --      6.6309                 6.6985                 6.7410
 IR Inten    --      1.9698                 1.6014                20.9181

                     67                     68                     69
                      A                      A                      A
 Frequencies --   3236.8763              3244.1600              3646.9589
 Red. masses --      1.0965                 1.0998                 1.0820
 Frc consts  --      6.7685                 6.8196                 8.4790
 IR Inten    --      3.9921                12.6245               203.3319

 - Thermochemistry -
 -------------------
 Temperature   298.150 Kelvin.  Pressure   1.00000 Atm.
 Atom     1 has atomic number  6 and mass  12.00000

 Molecular mass:   227.04049 amu.
 Principal axes and moments of inertia in atomic units:
                           1         2         3
     Eigenvalues --  1311.551796348.169297659.72108
           X           -0.70564   0.70857   0.00000
           Y            0.70857   0.70564  -0.00001
           Z            0.00001   0.00000   1.00000
 This molecule is an asymmetric top.
 Rotational symmetry number  1.
 Warning -- assumption of classical behavior for rotation
           may cause significant error
 Rotational temperatures (Kelvin)      0.06604     0.01364     0.01131
 Rotational constants (GHZ):           1.37604     0.28429     0.23561
    1 imaginary frequencies ignored.
 Zero-point vibrational energy     497985.5 (Joules/Mol)
                                  119.02140 (Kcal/Mol)
 Warning -- explicit consideration of  18 degrees of freedom as
           vibrations may cause significant error
 Vibrational temperatures:     91.90   164.78   174.00   275.82   335.46
          (Kelvin)            384.38   439.26   478.98   562.79   615.31
                              638.61   725.31   758.45   775.03   805.44
                              807.47   843.71   887.55   952.22   971.93
                             1004.79  1065.66  1079.26  1095.10  1116.40
                             1123.54  1193.07  1262.23  1266.19  1300.14
                             1384.90  1392.91  1397.34  1459.84  1461.83
                             1505.98  1521.08  1558.17  1599.06  1661.51
                             1665.66  1701.74  1717.86  1803.37  1861.14
                             1869.60  1968.71  1978.96  2005.59  2040.11
                             2144.05  2165.90  2205.91  2241.08  2300.01
                             2362.19  2419.71  2440.40  2474.70  4570.30
                             4590.25  4628.69  4630.70  4645.20  4646.63
                             4657.14  4667.62  5247.16

 Zero-point correction=                           0.189673 (Hartree/Particle)
 Thermal correction to Energy=                    0.200769
 Thermal correction to Enthalpy=                  0.201713
 Thermal correction to Gibbs Free Energy=         0.152270
 Sum of electronic and zero-point Energies=          -1028.611337
 Sum of electronic and thermal Energies=             -1028.600240
 Sum of electronic and thermal Enthalpies=           -1028.599296
 Sum of electronic and thermal Free Energies=        -1028.648740

                     E (Thermal)             CV                S
                      KCal/Mol        Cal/Mol-Kelvin    Cal/Mol-Kelvin
 Total                  125.985             46.436            104.063
 Electronic               0.000              0.000              0.000
 Translational            0.889              2.981             42.162
 Rotational               0.889              2.981             32.522
 Vibrational            124.207             40.474             29.379
 Vibration     1          0.597              1.972              4.334
 Vibration     2          0.607              1.937              3.191
 Vibration     3          0.609              1.932              3.085
 Vibration     4          0.634              1.851              2.211
 Vibration     5          0.654              1.790              1.855
 Vibration     6          0.672              1.733              1.615
 Vibration     7          0.696              1.664              1.388
 Vibration     8          0.715              1.610              1.246
 Vibration     9          0.759              1.489              0.996
 Vibration    10          0.789              1.410              0.866
 Vibration    11          0.803              1.374              0.815
 Vibration    12          0.859              1.241              0.648
 Vibration    13          0.882              1.190              0.594
 Vibration    14          0.894              1.165              0.568
 Vibration    15          0.915              1.118              0.524
 Vibration    16          0.917              1.115              0.521
 Vibration    17          0.943              1.061              0.474
 Vibration    18          0.977              0.996              0.422

 Optimization completed.
    -- Stationary point found.
 Normal termination of Gaussian 16 at Tue Oct 27 21:11:18 2020.
