 Gaussian 16, Revision C.01,
 Gaussian 16:  ES64L-G16RevC.01  3-Jul-2019

 ----------------------------------------------------------------------
 #p opt=addgic freq wb97xd/cc-pvdz nosymm int=ultrafine scrf=(solvent=C
 arbonTetraChloride)
 ----------------------------------------------------------------------

 ------------------------------------------------
 NM 2D-scan of HBT TD-WB97XD pVDZ in CTC Relaxed.
 ------------------------------------------------
 Symbolic Z-matrix:
 Charge =  0 Multiplicity = 1

 SCF Done:  E(RwB97XD) =  -1028.78820096     A.U. after   16 cycles
 SCF Done:  E(RwB97XD) =  -1028.80403202     A.U. after   14 cycles
 SCF Done:  E(RwB97XD) =  -1028.80570669     A.U. after   13 cycles
 SCF Done:  E(RwB97XD) =  -1028.80608812     A.U. after   12 cycles
 SCF Done:  E(RwB97XD) =  -1028.80614273     A.U. after   10 cycles
 SCF Done:  E(RwB97XD) =  -1028.80615043     A.U. after   10 cycles
 SCF Done:  E(RwB97XD) =  -1028.80615080     A.U. after    9 cycles
 SCF Done:  E(RwB97XD) =  -1028.80615104     A.U. after    8 cycles
 Optimization completed.
    -- Stationary point found.
 Normal termination of Gaussian 16 at Wed Oct 28 02:18:54 2020.

 --------------------------------------------------------------------
 #P Geom=AllCheck Guess=TCheck SCRF=Check GenChk RwB97XD/CC-pVDZ Freq
 --------------------------------------------------------------------

 Structure from the checkpoint file:  "config_8_20.chk"
 ------------------------------------------------
 NM 2D-scan of HBT TD-WB97XD pVDZ in CTC Relaxed.
 ------------------------------------------------
 Charge =  0 Multiplicity = 1

                          Input orientation:
 ---------------------------------------------------------------------
 Center     Atomic      Atomic             Coordinates (Angstroms)
 Number     Number       Type             X           Y           Z
 ---------------------------------------------------------------------
      1          6           0        1.495432   -3.266533   -0.000085
      2          6           0        0.987641   -1.971785   -0.000039
      3          6           0        1.805617   -0.825748    0.000017
      4          6           0        3.193624   -0.995434    0.000027
      5          6           0        3.707522   -2.293332   -0.000021
      6          6           0        2.875572   -3.421047   -0.000077
      7          1           0        0.824732   -4.126228   -0.000126
      8          1           0        3.858477   -0.131292    0.000072
      9          1           0        4.789873   -2.429192   -0.000013
     10          1           0        3.310667   -4.420989   -0.000111
     11          7           0        1.051190    0.360016    0.000068
     12         16           0       -0.698566   -1.540653   -0.000031
     13          6           0       -1.274752    1.133097    0.000066
     14          6           0       -2.644197    0.724938    0.000095
     15          6           0       -0.898182    2.533824    0.000041
     16          6           0       -3.651140    1.640078    0.000076
     17          1           0       -2.892287   -0.339229    0.000137
     18          6           0       -2.009756    3.460692   -0.000032
     19          6           0       -3.307801    3.026153    0.000003
     20          1           0       -4.695275    1.328368    0.000102
     21          1           0       -1.768927    4.525202   -0.000113
     22          1           0       -4.113047    3.765282   -0.000036
     23          6           0       -0.274562    0.151160    0.000043
     24          8           0        0.311263    2.907063   -0.000086
     25          1           0        1.257758    1.405080    0.000131
 ---------------------------------------------------------------------

 SCF Done:  E(RwB97XD) =  -1028.80615104     A.U. after    1 cycles

 Alpha  occ. eigenvalues --  -89.09524 -19.21818 -14.52432 -10.41022 -10.37718
 Alpha  occ. eigenvalues --  -10.36155 -10.35837 -10.33099 -10.32995 -10.32442
 Alpha  occ. eigenvalues --  -10.32264 -10.31220 -10.30904 -10.30312 -10.29294
 Alpha  occ. eigenvalues --  -10.28802  -8.11651  -6.06519  -6.06147  -6.05658
 Alpha  occ. eigenvalues --   -1.12454  -1.09500  -0.98518  -0.95679  -0.93241
 Alpha  occ. eigenvalues --   -0.89171  -0.86790  -0.83629  -0.82065  -0.75536
 Alpha  occ. eigenvalues --   -0.72721  -0.72185  -0.68707  -0.67838  -0.64814
 Alpha  occ. eigenvalues --   -0.60918  -0.59683  -0.56923  -0.55707  -0.55683
 Alpha  occ. eigenvalues --   -0.55023  -0.54020  -0.52942  -0.50007  -0.49711
 Alpha  occ. eigenvalues --   -0.49026  -0.48250  -0.46776  -0.45588  -0.44854
 Alpha  occ. eigenvalues --   -0.44440  -0.42893  -0.41940  -0.40441  -0.36769
 Alpha  occ. eigenvalues --   -0.33510  -0.32164  -0.31550  -0.26585
 Alpha virt. eigenvalues --   -0.01213   0.03876   0.05607   0.07117   0.09099
 Alpha virt. eigenvalues --    0.11188   0.14283   0.14961   0.16468   0.17623
 Alpha virt. eigenvalues --    0.18411   0.19981   0.20610   0.21447   0.22449

 Mulliken charges:
               1
     1  C    0.020713
     2  C   -0.220759
     3  C    0.253375
     4  C   -0.013639
     5  C    0.006644
     6  C    0.005413
     7  H    0.024129
     8  H    0.029800
     9  H    0.026379
    10  H    0.025824
    11  N   -0.178753
    12  S    0.181603
    13  C   -0.087673
    14  C   -0.023950
    15  C    0.101108
    16  C   -0.027281
    17  H    0.019002
    18  C   -0.020524
    19  C    0.026533
    20  H    0.002828
    21  H    0.003938
    22  H    0.014403
    23  C    0.068865
    24  O   -0.397796
    25  H    0.159818
 Sum of Mulliken charges =  -0.00000

 Dipole moment (field-independent basis, Debye):
    X=              1.5260    Y=             -5.3321    Z=              0.0003  Tot=              5.5462
 Quadrupole moment (field-independent basis, Debye-Ang):
   XX=            -81.5646   YY=            -96.2144   ZZ=           -104.0247
   XY=             -6.7609   XZ=              0.0003   YZ=              0.0010

  Exact polarizability:     284.249     -85.200     282.591      -0.001       0.001      62.797
 Approx polarizability:     264.156     -30.456     255.731      -0.001       0.001      81.894

                      1                      2                      3
                      A                      A                      A
 Frequencies --     49.4354                68.4492                90.0191
 Red. masses --      6.1603                 4.4865                 5.8122
 Frc consts  --      0.0089                 0.0124                 0.0277
 IR Inten    --      1.3982                 0.3819                 4.9433

                      4                      5                      6
                      A                      A                      A
 Frequencies --    139.7818               197.7540               233.1619
 Red. masses --      5.3377                 6.2477                 6.1059
 Frc consts  --      0.0614                 0.1440                 0.1956
 IR Inten    --      1.9547                 0.0007                 1.0460

                      7                      8                      9
                      A                      A                      A
 Frequencies --    249.4363               297.0302               309.0443
 Red. masses --      7.2640                 6.5685                 5.3772
 Frc consts  --      0.2663                 0.3414                 0.3026
 IR Inten    --     11.0055                 0.6244                 0.3741

                     10                     11                     12
                      A                      A                      A
 Frequencies --    416.5999               427.9917               451.0211
 Red. masses --      9.5067                 3.2156                 3.5155
 Frc consts  --      0.9721                 0.3470                 0.4213
 IR Inten    --      2.5462                 0.0028                10.4055

                     13                     14                     15
                      A                      A                      A
 Frequencies --    513.8610               524.4027               527.6952
 Red. masses --      8.6667                 2.6998                 6.0874
 Frc consts  --      1.3483                 0.4374                 0.9987
 IR Inten    --     11.9672                 5.2322                 4.0569

                     16                     17                     18
                      A                      A                      A
 Frequencies --    550.8993               561.1852               580.2636
 Red. masses --      7.4230                 3.8841                 6.8692
 Frc consts  --      1.3273                 0.7207                 1.3627
 IR Inten    --     12.8897                 0.0747                35.2926

                     19                     20                     21
                      A                      A                      A
 Frequencies --    637.5121               643.4354               729.0406
 Red. masses --      5.7534                 5.7943                 6.1825
 Frc consts  --      1.3777                 1.4134                 1.9360
 IR Inten    --      0.1991                 4.3702                84.0036

                     22                     23                     24
                      A                      A                      A
 Frequencies --    732.0092               749.9037               758.3721
 Red. masses --      7.1633                 2.7892                 1.4276
 Frc consts  --      2.2615                 0.9241                 0.4838
 IR Inten    --     32.8256                 7.5566                59.2330

                     25                     26                     27
                      A                      A                      A
 Frequencies --    774.2058               778.1414               823.0050
 Red. masses --      1.5960                 2.3228                 4.2599
 Frc consts  --      0.5636                 0.8287                 1.7000
 IR Inten    --     32.8949                26.6701                20.5707

                     28                     29                     30
                      A                      A                      A
 Frequencies --    851.9469               876.5711               883.7077
 Red. masses --      4.9703                 1.9072                 1.3736
 Frc consts  --      2.1255                 0.8634                 0.6320
 IR Inten    --     11.0725                 6.6469                 1.7737

                     31                     32                     33
                      A                      A                      A
 Frequencies --    931.9173               962.4012               963.5006
 Red. masses --      1.1235                 4.7411                 1.3263
 Frc consts  --      0.5749                 2.5873                 0.7255
 IR Inten    --     90.5075                30.5060                 0.0285

                     34                     35                     36
                      A                      A                      A
 Frequencies --    970.1378              1013.4632              1019.2613
 Red. masses --      1.3624                 1.3052                 1.3095
 Frc consts  --      0.7555                 0.7898                 0.8016
 IR Inten    --      0.4401                 0.0380                 0.4647

                     37                     38                     39
                      A                      A                      A
 Frequencies --   1033.1912              1054.3512              1086.0966
 Red. masses --      2.1960                 2.0467                 3.3985
 Frc consts  --      1.3812                 1.3405                 2.3620
 IR Inten    --     19.4704                10.8340                33.9109

                     40                     41                     42
                      A                      A                      A
 Frequencies --   1140.4363              1163.3550              1167.2936
 Red. masses --      1.8893                 1.2434                 1.4421
 Frc consts  --      1.4477                 0.9915                 1.1577
 IR Inten    --     58.4818                41.5650                10.5430

                     43                     44                     45
                      A                      A                      A
 Frequencies --   1179.8853              1197.0132              1242.2218
 Red. masses --      1.1786                 1.3392                 1.9888
 Frc consts  --      0.9667                 1.1306                 1.8081
 IR Inten    --     17.2059                17.7571                34.2123

                     46                     47                     48
                      A                      A                      A
 Frequencies --   1282.8561              1310.0761              1348.2592
 Red. masses --      1.8755                 2.2633                 3.5002
 Frc consts  --      1.8185                 2.2887                 3.7488
 IR Inten    --     41.8132                75.3863                21.9576

                     49                     50                     51
                      A                      A                      A
 Frequencies --   1369.4303              1398.3651              1422.1363
 Red. masses --      4.1212                 3.6361                 3.2190
 Frc consts  --      4.5536                 4.1891                 3.8358
 IR Inten    --     62.5964                43.0449                58.0572

                     52                     53                     54
                      A                      A                      A
 Frequencies --   1488.0134              1499.5915              1510.4855
 Red. masses --      2.6094                 2.6889                 3.1102
 Frc consts  --      3.4041                 3.5627                 4.1809
 IR Inten    --     22.9203                55.4708                 7.3638

                     55                     56                     57
                      A                      A                      A
 Frequencies --   1579.5971              1595.1598              1636.2817
 Red. masses --      4.3322                 5.5407                 9.0717
 Frc consts  --      6.3688                 8.3066                14.3105
 IR Inten    --   1854.3228                94.1207               561.1319

                     58                     59                     60
                      A                      A                      A
 Frequencies --   1654.8832              1679.4564              1713.8711
 Red. masses --      6.8356                 6.9393                 6.5699
 Frc consts  --     11.0296                11.5319                11.3702
 IR Inten    --     12.1811                20.8340               304.7484

                     61                     62                     63
                      A                      A                      A
 Frequencies --   2925.8676              3193.9079              3197.5487
 Red. masses --      1.0906                 1.0862                 1.0899
 Frc consts  --      5.5010                 6.5283                 6.5655
 IR Inten    --    330.5647                 6.1697                12.1149

                     64                     65                     66
                      A                      A                      A
 Frequencies --   3213.3869              3221.6505              3222.6602
 Red. masses --      1.0863                 1.0952                 1.0906
 Frc consts  --      6.6088                 6.6974                 6.6734
 IR Inten    --      1.0090                26.6752                 2.8244

                     67                     68                     69
                      A                      A                      A
 Frequencies --   3231.5210              3237.4151              3238.9126
 Red. masses --      1.0960                 1.0978                 1.1000
 Frc consts  --      6.7433                 6.7789                 6.7991
 IR Inten    --      5.3007                15.7651                11.2667

 - Thermochemistry -
 -------------------
 Temperature   298.150 Kelvin.  Pressure   1.00000 Atm.
 Atom     1 has atomic number  6 and mass  12.00000

 Molecular mass:   227.04049 amu.
 Principal axes and moments of inertia in atomic units:
                           1         2         3
     Eigenvalues --  1285.895696322.679657608.57534
           X           -0.70084   0.71332   0.00001
           Y            0.71332   0.70084  -0.00000
           Z            0.00001  -0.00000   1.00000
 This molecule is an asymmetric top.
 Rotational symmetry number  1.
 Warning -- assumption of classical behavior for rotation
           may cause significant error
 Rotational temperatures (Kelvin)      0.06736     0.01370     0.01138
 Rotational constants (GHZ):           1.40349     0.28544     0.23720
 Zero-point vibrational energy     494785.9 (Joules/Mol)
                                  118.25667 (Kcal/Mol)
 Warning -- explicit consideration of  18 degrees of freedom as
           vibrations may cause significant error
 Vibrational temperatures:     71.13    98.48   129.52   201.11   284.52
          (Kelvin)            335.47   358.88   427.36   444.65   599.39
                              615.78   648.92   739.33   754.50   759.24
                              792.62   807.42   834.87   917.24   925.76
                             1048.93  1053.20  1078.94  1091.13  1113.91
                             1119.57  1184.12  1225.76  1261.19  1271.46
                             1340.82  1384.68  1386.26  1395.81  1458.15
                             1466.49  1486.53  1516.98  1562.65  1640.83
                             1673.81  1679.48  1697.59  1722.24  1787.28
                             1845.74  1884.91  1939.84  1970.30  2011.94
                             2046.14  2140.92  2157.58  2173.25  2272.69
                             2295.08  2354.24  2381.01  2416.36  2465.88
                             4209.67  4595.32  4600.56  4623.35  4635.24
                             4636.69  4649.44  4657.92  4660.07

 Zero-point correction=                           0.188454 (Hartree/Particle)
 Thermal correction to Energy=                    0.200354
 Thermal correction to Enthalpy=                  0.201298
 Thermal correction to Gibbs Free Energy=         0.149568
 Sum of electronic and zero-point Energies=          -1028.617697
 Sum of electronic and thermal Energies=             -1028.605797
 Sum of electronic and thermal Enthalpies=           -1028.604853
 Sum of electronic and thermal Free Energies=        -1028.656583

                     E (Thermal)             CV                S
                      KCal/Mol        Cal/Mol-Kelvin    Cal/Mol-Kelvin
 Total                  125.724             48.100            108.875
 Electronic               0.000              0.000              0.000
 Translational            0.889              2.981             42.162
 Rotational               0.889              2.981             32.492
 Vibrational            123.946             42.139             34.221
 Vibration     1          0.595              1.978              4.840
 Vibration     2          0.598              1.969              4.197
 Vibration     3          0.602              1.956              3.660
 Vibration     4          0.615              1.914              2.807
 Vibration     5          0.637              1.843              2.154
 Vibration     6          0.654              1.790              1.854
 Vibration     7          0.662              1.764              1.735
 Vibration     8          0.691              1.679              1.434
 Vibration     9          0.698              1.656              1.367
 Vibration    10          0.780              1.434              0.904
 Vibration    11          0.789              1.409              0.865
 Vibration    12          0.810              1.359              0.793
 Vibration    13          0.869              1.219              0.624
 Vibration    14          0.879              1.196              0.600
 Vibration    15          0.883              1.189              0.592
 Vibration    16          0.906              1.138              0.542
 Vibration    17          0.917              1.115              0.521
 Vibration    18          0.937              1.074              0.485

 Optimization completed.
    -- Stationary point found.
 Normal termination of Gaussian 16 at Wed Oct 28 02:25:36 2020.
