 Gaussian 16, Revision C.01,
 Gaussian 16:  ES64L-G16RevC.01  3-Jul-2019

 ----------------------------------------------------------------------
 #p opt=addgic freq wb97xd/cc-pvdz nosymm int=ultrafine scrf=(solvent=C
 arbonTetraChloride)
 ----------------------------------------------------------------------

 ------------------------------------------------
 NM 2D-scan of HBT TD-WB97XD pVDZ in CTC Relaxed.
 ------------------------------------------------
 Symbolic Z-matrix:
 Charge =  0 Multiplicity = 1

 SCF Done:  E(RwB97XD) =  -1028.78666928     A.U. after   15 cycles
 SCF Done:  E(RwB97XD) =  -1028.82614231     A.U. after   13 cycles
 SCF Done:  E(RwB97XD) =  -1028.82882740     A.U. after   13 cycles
 SCF Done:  E(RwB97XD) =  -1028.82911788     A.U. after   11 cycles
 SCF Done:  E(RwB97XD) =  -1028.82914085     A.U. after   10 cycles
 SCF Done:  E(RwB97XD) =  -1028.82914440     A.U. after    9 cycles
 SCF Done:  E(RwB97XD) =  -1028.82914462     A.U. after    8 cycles
 SCF Done:  E(RwB97XD) =  -1028.82914463     A.U. after    6 cycles
 Optimization completed.
    -- Stationary point found.
 Normal termination of Gaussian 16 at Tue Oct 27 22:56:22 2020.

 --------------------------------------------------------------------
 #P Geom=AllCheck Guess=TCheck SCRF=Check GenChk RwB97XD/CC-pVDZ Freq
 --------------------------------------------------------------------

 Structure from the checkpoint file:  "config_3_8.chk"
 ------------------------------------------------
 NM 2D-scan of HBT TD-WB97XD pVDZ in CTC Relaxed.
 ------------------------------------------------
 Charge =  0 Multiplicity = 1

                          Input orientation:
 ---------------------------------------------------------------------
 Center     Atomic      Atomic             Coordinates (Angstroms)
 Number     Number       Type             X           Y           Z
 ---------------------------------------------------------------------
      1          6           0        1.670867   -3.301251    0.000040
      2          6           0        0.981208   -2.083848    0.000063
      3          6           0        1.685298   -0.866963   -0.000051
      4          6           0        3.084020   -0.843679   -0.000191
      5          6           0        3.765917   -2.048523   -0.000210
      6          6           0        3.062624   -3.265160   -0.000095
      7          1           0        1.139824   -4.253581    0.000117
      8          1           0        3.603330    0.115144   -0.000276
      9          1           0        4.856770   -2.055845   -0.000315
     10          1           0        3.617054   -4.204889   -0.000118
     11          7           0        0.898426    0.260322   -0.000012
     12         16           0       -0.744918   -1.746779    0.000178
     13          6           0       -1.360934    1.081602    0.000137
     14          6           0       -2.750816    0.857095    0.000055
     15          6           0       -0.894195    2.428083    0.000138
     16          6           0       -3.655080    1.907284   -0.000103
     17          1           0       -3.122573   -0.170734    0.000060
     18          6           0       -1.821504    3.480697   -0.000037
     19          6           0       -3.180279    3.226295   -0.000164
     20          1           0       -4.726460    1.706263   -0.000195
     21          1           0       -1.427922    4.497698   -0.000018
     22          1           0       -3.884137    4.060680   -0.000278
     23          6           0       -0.376592   -0.005442    0.000158
     24          8           0        0.394880    2.776245    0.000448
     25          1           0        0.923132    1.939917    0.000773
 ---------------------------------------------------------------------

 SCF Done:  E(RwB97XD) =  -1028.82914463     A.U. after    1 cycles

 Alpha  occ. eigenvalues --  -89.08819 -19.27983 -14.46800 -10.39541 -10.37377
 Alpha  occ. eigenvalues --  -10.34937 -10.34762 -10.32512 -10.32428 -10.31880
 Alpha  occ. eigenvalues --  -10.31622 -10.31555 -10.31452 -10.31336 -10.30219
 Alpha  occ. eigenvalues --  -10.29993  -8.10785  -6.05647  -6.05290  -6.04829
 Alpha  occ. eigenvalues --   -1.16446  -1.08990  -0.97234  -0.96090  -0.91415
 Alpha  occ. eigenvalues --   -0.88557  -0.85304  -0.84499  -0.82959  -0.75489
 Alpha  occ. eigenvalues --   -0.71340  -0.70577  -0.69442  -0.68182  -0.63067
 Alpha  occ. eigenvalues --   -0.60442  -0.58721  -0.58372  -0.56358  -0.54483
 Alpha  occ. eigenvalues --   -0.53988  -0.53187  -0.52606  -0.50923  -0.50311
 Alpha  occ. eigenvalues --   -0.49350  -0.47730  -0.45874  -0.45340  -0.44962
 Alpha  occ. eigenvalues --   -0.43826  -0.42897  -0.42646  -0.39751  -0.37158
 Alpha  occ. eigenvalues --   -0.36175  -0.32147  -0.31684  -0.29036
 Alpha virt. eigenvalues --   -0.00454   0.04817   0.06859   0.07203   0.07581
 Alpha virt. eigenvalues --    0.11458   0.13679   0.15138   0.16164   0.17875
 Alpha virt. eigenvalues --    0.18962   0.20715   0.21714   0.22534   0.22773

 Mulliken charges:
               1
     1  C    0.004946
     2  C   -0.216580
     3  C    0.232543
     4  C   -0.013274
     5  C    0.006977
     6  C   -0.000703
     7  H    0.019907
     8  H    0.017838
     9  H    0.019662
    10  H    0.021558
    11  N   -0.340606
    12  S    0.143579
    13  C   -0.066537
    14  C   -0.020174
    15  C    0.068605
    16  C   -0.007831
    17  H    0.011906
    18  C    0.012366
    19  C    0.020175
    20  H    0.009918
    21  H    0.016164
    22  H    0.018256
    23  C    0.081866
    24  O   -0.201136
    25  H    0.160573
 Sum of Mulliken charges =  -0.00000

 Dipole moment (field-independent basis, Debye):
    X=              0.0776    Y=             -2.3848    Z=              0.0002  Tot=              2.3860
 Quadrupole moment (field-independent basis, Debye-Ang):
   XX=            -82.7221   YY=            -89.9506   ZZ=           -104.1650
   XY=             -7.0810   XZ=              0.0005   YZ=             -0.0004

  Exact polarizability:     274.991     -66.413     256.025      -0.002      -0.002      63.032
 Approx polarizability:     262.904     -22.838     242.952      -0.002      -0.004      82.227

                      1                      2                      3
                      A                      A                      A
 Frequencies --     50.2226                58.1154               119.6475
 Red. masses --      5.7202                 5.6057                 5.6581
 Frc consts  --      0.0085                 0.0112                 0.0477
 IR Inten    --      0.1487                 1.0981                 1.2859

                      4                      5                      6
                      A                      A                      A
 Frequencies --    152.9229               199.5030               245.6731
 Red. masses --      4.9458                 5.8730                 5.7725
 Frc consts  --      0.0681                 0.1377                 0.2053
 IR Inten    --      0.0104                 0.5630                 0.0386

                      7                      8                      9
                      A                      A                      A
 Frequencies --    269.4422               306.6078               327.1981
 Red. masses --      7.8434                 6.3989                 5.1046
 Frc consts  --      0.3355                 0.3544                 0.3220
 IR Inten    --      1.3148                 6.9591                 0.3024

                     10                     11                     12
                      A                      A                      A
 Frequencies --    405.7168               438.9484               468.0207
 Red. masses --      9.1913                 3.1520                 3.7230
 Frc consts  --      0.8914                 0.3578                 0.4805
 IR Inten    --      0.2123                 2.1196                 8.0797

                     13                     14                     15
                      A                      A                      A
 Frequencies --    512.0889               515.5903               539.0010
 Red. masses --      5.1507                 7.8122                 3.4680
 Frc consts  --      0.7958                 1.2236                 0.5936
 IR Inten    --      7.0409                 0.5430                 3.7818

                     16                     17                     18
                      A                      A                      A
 Frequencies --    548.3505               574.4236               593.6090
 Red. masses --      8.4705                 3.7172                 7.6958
 Frc consts  --      1.5006                 0.7227                 1.5977
 IR Inten    --      2.4859                 0.0306                 5.8593

                     19                     20                     21
                      A                      A                      A
 Frequencies --    646.1042               680.1088               709.3825
 Red. masses --      5.8368                 6.4726                 7.6527
 Frc consts  --      1.4356                 1.7639                 2.2690
 IR Inten    --      0.2103                 6.7662                36.8531

                     22                     23                     24
                      A                      A                      A
 Frequencies --    730.1980               755.2187               759.8713
 Red. masses --      8.7936                 2.0922                 2.3500
 Frc consts  --      2.7625                 0.7031                 0.7995
 IR Inten    --      4.9694                36.3707                 2.0203

                     25                     26                     27
                      A                      A                      A
 Frequencies --    776.7594               786.6460               822.7503
 Red. masses --      1.3585                 1.8641                 1.2290
 Frc consts  --      0.4829                 0.6797                 0.4902
 IR Inten    --     67.9778                29.1082                73.2581

                     28                     29                     30
                      A                      A                      A
 Frequencies --    844.3069               885.1239               888.0683
 Red. masses --      6.0162                 1.5360                 1.4256
 Frc consts  --      2.5268                 0.7090                 0.6624
 IR Inten    --     21.4249                 3.8347                 1.4424

                     31                     32                     33
                      A                      A                      A
 Frequencies --    897.1977               972.5863               976.5052
 Red. masses --      6.5104                 1.3554                 1.3636
 Frc consts  --      3.0877                 0.7554                 0.7661
 IR Inten    --      1.9072                 1.1803                 1.6076

                     34                     35                     36
                      A                      A                      A
 Frequencies --    986.7521              1011.2581              1015.8047
 Red. masses --      7.5970                 1.3006                 1.3046
 Frc consts  --      4.3582                 0.7837                 0.7931
 IR Inten    --     63.7777                 0.3359                 0.0139

                     37                     38                     39
                      A                      A                      A
 Frequencies --   1052.4027              1069.9704              1096.9178
 Red. masses --      2.0174                 1.9847                 4.4160
 Frc consts  --      1.3165                 1.3387                 3.1306
 IR Inten    --      8.2414                11.1563                 6.0513

                     40                     41                     42
                      A                      A                      A
 Frequencies --   1148.0271              1151.9180              1175.9416
 Red. masses --      1.4988                 1.2916                 1.1284
 Frc consts  --      1.1638                 1.0098                 0.9193
 IR Inten    --      6.6788                 4.1885                46.7018

                     43                     44                     45
                      A                      A                      A
 Frequencies --   1184.9203              1248.1590              1285.2544
 Red. masses --      1.1924                 1.8454                 1.6065
 Frc consts  --      0.9864                 1.6939                 1.5636
 IR Inten    --      0.3022               141.2345                 5.2272

                     46                     47                     48
                      A                      A                      A
 Frequencies --   1287.9582              1329.0076              1350.2146
 Red. masses --      2.2261                 5.2212                 3.0929
 Frc consts  --      2.1757                 5.4334                 3.3221
 IR Inten    --    114.3166                19.2348                11.1528

                     49                     50                     51
                      A                      A                      A
 Frequencies --   1372.1332              1378.1871              1459.4240
 Red. masses --      8.0645                 3.4254                 1.7593
 Frc consts  --      8.9458                 3.8333                 2.2078
 IR Inten    --     15.6973                14.9963                50.6699

                     52                     53                     54
                      A                      A                      A
 Frequencies --   1492.1141              1501.5170              1521.2049
 Red. masses --      2.6378                 3.0547                 3.7951
 Frc consts  --      3.4602                 4.0577                 5.1742
 IR Inten    --     30.5046                 8.7624               124.5932

                     55                     56                     57
                      A                      A                      A
 Frequencies --   1547.5404              1594.5856              1647.1886
 Red. masses --      2.3111                 7.4031                 6.6748
 Frc consts  --      3.2610                11.0908                10.6703
 IR Inten    --     96.0174               200.6894                 7.7690

                     58                     59                     60
                      A                      A                      A
 Frequencies --   1659.9924              1682.2269              1708.8297
 Red. masses --      4.3547                 6.8772                 6.0507
 Frc consts  --      7.0700                11.4665                10.4100
 IR Inten    --    131.8277                11.3453               117.5498

                     61                     62                     63
                      A                      A                      A
 Frequencies --   3196.2534              3208.8215              3211.7115
 Red. masses --      1.0891                 1.0884                 1.0862
 Frc consts  --      6.5553                 6.6028                 6.6015
 IR Inten    --      2.2979                 9.0460                 1.7292

                     64                     65                     66
                      A                      A                      A
 Frequencies --   3222.9599              3228.8855              3233.6206
 Red. masses --      1.0906                 1.0942                 1.0959
 Frc consts  --      6.6745                 6.7210                 6.7517
 IR Inten    --      5.3479                10.0017                12.1846

                     67                     68                     69
                      A                      A                      A
 Frequencies --   3237.1000              3239.4577              3310.1863
 Red. masses --      1.0989                 1.0997                 1.0682
 Frc consts  --      6.7848                 6.7993                 6.8960
 IR Inten    --     18.2547                13.6420               868.7634

 - Thermochemistry -
 -------------------
 Temperature   298.150 Kelvin.  Pressure   1.00000 Atm.
 Atom     1 has atomic number  6 and mass  12.00000

 Molecular mass:   227.04049 amu.
 Principal axes and moments of inertia in atomic units:
                           1         2         3
     Eigenvalues --  1324.589896343.700047668.28988
           X           -0.69774   0.71635   0.00001
           Y            0.71635   0.69774  -0.00001
           Z            0.00001  -0.00000   1.00000
 This molecule is an asymmetric top.
 Rotational symmetry number  1.
 Warning -- assumption of classical behavior for rotation
           may cause significant error
 Rotational temperatures (Kelvin)      0.06539     0.01365     0.01130
 Rotational constants (GHZ):           1.36249     0.28449     0.23535
 Zero-point vibrational energy     499467.0 (Joules/Mol)
                                  119.37547 (Kcal/Mol)
 Warning -- explicit consideration of  18 degrees of freedom as
           vibrations may cause significant error
 Vibrational temperatures:     72.26    83.62   172.15   220.02   287.04
          (Kelvin)            353.47   387.67   441.14   470.77   583.74
                              631.55   673.38   736.78   741.82   775.50
                              788.95   826.47   854.07   929.60   978.52
                             1020.64  1050.59  1086.59  1093.29  1117.58
                             1131.81  1183.75  1214.77  1273.50  1277.73
                             1290.87  1399.33  1404.97  1419.72  1454.97
                             1461.52  1514.17  1539.45  1578.22  1651.75
                             1657.35  1691.92  1704.84  1795.82  1849.19
                             1853.08  1912.15  1942.66  1974.19  1982.90
                             2099.79  2146.82  2160.35  2188.67  2226.57
                             2294.25  2369.94  2388.36  2420.35  2458.62
                             4598.70  4616.78  4620.94  4637.12  4645.65
                             4652.46  4657.46  4660.86  4762.62

 Zero-point correction=                           0.190237 (Hartree/Particle)
 Thermal correction to Energy=                    0.201936
 Thermal correction to Enthalpy=                  0.202880
 Thermal correction to Gibbs Free Energy=         0.151607
 Sum of electronic and zero-point Energies=          -1028.638908
 Sum of electronic and thermal Energies=             -1028.627208
 Sum of electronic and thermal Enthalpies=           -1028.626264
 Sum of electronic and thermal Free Energies=        -1028.677537

                     E (Thermal)             CV                S
                      KCal/Mol        Cal/Mol-Kelvin    Cal/Mol-Kelvin
 Total                  126.717             47.661            107.913
 Electronic               0.000              0.000              0.000
 Translational            0.889              2.981             42.162
 Rotational               0.889              2.981             32.533
 Vibrational            124.939             41.699             33.218
 Vibration     1          0.595              1.978              4.809
 Vibration     2          0.596              1.974              4.520
 Vibration     3          0.609              1.933              3.106
 Vibration     4          0.619              1.899              2.636
 Vibration     5          0.638              1.841              2.138
 Vibration     6          0.660              1.770              1.761
 Vibration     7          0.674              1.729              1.600
 Vibration     8          0.697              1.661              1.381
 Vibration     9          0.711              1.621              1.274
 Vibration    10          0.771              1.458              0.942
 Vibration    11          0.799              1.385              0.830
 Vibration    12          0.825              1.321              0.743
 Vibration    13          0.867              1.223              0.629
 Vibration    14          0.871              1.215              0.620
 Vibration    15          0.894              1.164              0.567
 Vibration    16          0.904              1.143              0.548
 Vibration    17          0.931              1.087              0.496
 Vibration    18          0.951              1.045              0.461

 Optimization completed.
    -- Stationary point found.
 Normal termination of Gaussian 16 at Tue Oct 27 23:03:50 2020.
