 Gaussian 16, Revision C.01,
 Gaussian 16:  ES64L-G16RevC.01  3-Jul-2019

 ----------------------------------------------------------------------
 #p opt=addgic freq wb97xd/cc-pvdz nosymm int=ultrafine scrf=(solvent=C
 arbonTetraChloride)
 ----------------------------------------------------------------------

 ------------------------------------------------
 NM 2D-scan of HBT TD-WB97XD pVDZ in CTC Relaxed.
 ------------------------------------------------
 Symbolic Z-matrix:
 Charge =  0 Multiplicity = 1

 SCF Done:  E(RwB97XD) =  -1028.75530810     A.U. after   16 cycles
 SCF Done:  E(RwB97XD) =  -1028.80117323     A.U. after   13 cycles
 SCF Done:  E(RwB97XD) =  -1028.80893480     A.U. after   13 cycles
 SCF Done:  E(RwB97XD) =  -1028.80957100     A.U. after   12 cycles
 SCF Done:  E(RwB97XD) =  -1028.80960252     A.U. after   11 cycles
 SCF Done:  E(RwB97XD) =  -1028.80960777     A.U. after    9 cycles
 Optimization completed.
    -- Stationary point found.
 Normal termination of Gaussian 16 at Tue Oct 27 23:37:20 2020.

 --------------------------------------------------------------------
 #P Geom=AllCheck Guess=TCheck SCRF=Check GenChk RwB97XD/CC-pVDZ Freq
 --------------------------------------------------------------------

 Structure from the checkpoint file:  "config_10_13.chk"
 ------------------------------------------------
 NM 2D-scan of HBT TD-WB97XD pVDZ in CTC Relaxed.
 ------------------------------------------------
 Charge =  0 Multiplicity = 1

                          Input orientation:
 ---------------------------------------------------------------------
 Center     Atomic      Atomic             Coordinates (Angstroms)
 Number     Number       Type             X           Y           Z
 ---------------------------------------------------------------------
      1          6           0        1.600379   -3.274244   -0.000022
      2          6           0        1.000896   -2.019930   -0.000015
      3          6           0        1.762615   -0.853871   -0.000014
      4          6           0        3.156542   -0.906458   -0.000020
      5          6           0        3.756929   -2.163705   -0.000026
      6          6           0        2.990754   -3.334939   -0.000027
      7          1           0        0.997570   -4.182435   -0.000024
      8          1           0        3.751120    0.007398   -0.000020
      9          1           0        4.845448   -2.232250   -0.000029
     10          1           0        3.485962   -4.306412   -0.000033
     11          7           0        0.945713    0.264510   -0.000010
     12         16           0       -0.719985   -1.635521   -0.000006
     13          6           0       -1.344248    1.105607    0.000012
     14          6           0       -2.733389    0.804452    0.000014
     15          6           0       -0.862841    2.484289    0.000018
     16          6           0       -3.677559    1.796935    0.000024
     17          1           0       -3.053344   -0.241710    0.000006
     18          6           0       -1.918827    3.488496    0.000043
     19          6           0       -3.247170    3.153945    0.000039
     20          1           0       -4.740143    1.553904    0.000025
     21          1           0       -1.600702    4.532858    0.000064
     22          1           0       -3.999848    3.946664    0.000051
     23          6           0       -0.383249    0.072694    0.000001
     24          8           0        0.355410    2.765028    0.000054
     25          1           0        1.304170    1.210341   -0.000016
 ---------------------------------------------------------------------

 SCF Done:  E(RwB97XD) =  -1028.80960777     A.U. after    1 cycles

 Alpha  occ. eigenvalues --  -89.09875 -19.21410 -14.51997 -10.41379 -10.37187
 Alpha  occ. eigenvalues --  -10.36074 -10.35864 -10.33244 -10.33009 -10.32560
 Alpha  occ. eigenvalues --  -10.32280 -10.31152 -10.30711 -10.30421 -10.29129
 Alpha  occ. eigenvalues --  -10.28608  -8.11933  -6.06814  -6.06429  -6.05939
 Alpha  occ. eigenvalues --   -1.13053  -1.09927  -0.98599  -0.95402  -0.93256
 Alpha  occ. eigenvalues --   -0.89225  -0.86665  -0.83862  -0.81806  -0.75584
 Alpha  occ. eigenvalues --   -0.73446  -0.72014  -0.69184  -0.67931  -0.64741
 Alpha  occ. eigenvalues --   -0.60915  -0.59747  -0.56704  -0.55950  -0.55908
 Alpha  occ. eigenvalues --   -0.55022  -0.53779  -0.53005  -0.50242  -0.49558
 Alpha  occ. eigenvalues --   -0.49017  -0.48294  -0.46752  -0.45625  -0.44759
 Alpha  occ. eigenvalues --   -0.44517  -0.42961  -0.41869  -0.40424  -0.36851
 Alpha  occ. eigenvalues --   -0.33563  -0.31644  -0.31643  -0.26295
 Alpha virt. eigenvalues --   -0.01251   0.03798   0.05897   0.06910   0.09367
 Alpha virt. eigenvalues --    0.11239   0.13838   0.14715   0.16093   0.17243
 Alpha virt. eigenvalues --    0.18495   0.19927   0.21025   0.21582   0.23002

 Mulliken charges:
               1
     1  C    0.015915
     2  C   -0.238484
     3  C    0.243020
     4  C   -0.010601
     5  C    0.010283
     6  C    0.003685
     7  H    0.024306
     8  H    0.030573
     9  H    0.027165
    10  H    0.025913
    11  N   -0.119572
    12  S    0.181433
    13  C   -0.104072
    14  C   -0.014248
    15  C    0.104526
    16  C   -0.032135
    17  H    0.008523
    18  C   -0.030507
    19  C    0.027609
    20  H    0.002253
    21  H    0.001907
    22  H    0.013750
    23  C    0.083103
    24  O   -0.381449
    25  H    0.127103
 Sum of Mulliken charges =  -0.00000

 Dipole moment (field-independent basis, Debye):
    X=              1.8850    Y=             -5.2806    Z=             -0.0001  Tot=              5.6070
 Quadrupole moment (field-independent basis, Debye-Ang):
   XX=            -81.6780   YY=            -95.5707   ZZ=           -103.9942
   XY=             -6.6959   XZ=             -0.0002   YZ=             -0.0002

  Exact polarizability:     287.932     -88.279     286.013      -0.001       0.002      62.884
 Approx polarizability:     266.289     -33.374     255.155      -0.001       0.002      81.908

                      1                      2                      3
                      A                      A                      A
 Frequencies --     54.8091                62.1625               108.1562
 Red. masses --      4.5217                 6.5393                 5.7050
 Frc consts  --      0.0080                 0.0149                 0.0393
 IR Inten    --      0.1173                 2.4664                 1.3233

                      4                      5                      6
                      A                      A                      A
 Frequencies --    128.9875               195.3086               228.6650
 Red. masses --      5.4413                 6.1457                 5.8789
 Frc consts  --      0.0533                 0.1381                 0.1811
 IR Inten    --      1.2414                 0.0086                 0.8343

                      7                      8                      9
                      A                      A                      A
 Frequencies --    267.8459               303.8112               307.7302
 Red. masses --      7.7505                 6.7756                 5.2975
 Frc consts  --      0.3276                 0.3685                 0.2956
 IR Inten    --      6.0559                 2.9506                 1.2427

                     10                     11                     12
                      A                      A                      A
 Frequencies --    398.5728               427.4947               446.1130
 Red. masses --      8.8671                 3.2721                 3.5261
 Frc consts  --      0.8299                 0.3523                 0.4135
 IR Inten    --      4.2353                 0.2013                10.1770

                     13                     14                     15
                      A                      A                      A
 Frequencies --    507.1674               523.9592               535.5992
 Red. masses --      8.2740                 2.7103                 7.7676
 Frc consts  --      1.2539                 0.4384                 1.3129
 IR Inten    --     10.2068                 6.8991                 8.4815

                     16                     17                     18
                      A                      A                      A
 Frequencies --    550.0157               561.8511               582.3694
 Red. masses --      6.7677                 3.8209                 7.1953
 Frc consts  --      1.2063                 0.7107                 1.4378
 IR Inten    --      5.6539                 0.0342                37.1718

                     19                     20                     21
                      A                      A                      A
 Frequencies --    625.8592               655.7296               702.1700
 Red. masses --      3.4585                 5.9539                 1.2847
 Frc consts  --      0.7982                 1.5083                 0.3732
 IR Inten    --      6.4841                 4.8118                59.9209

                     22                     23                     24
                      A                      A                      A
 Frequencies --    713.9875               740.6579               751.9213
 Red. masses --      5.8584                 7.7505                 2.5819
 Frc consts  --      1.7596                 2.5050                 0.8601
 IR Inten    --     48.8344                59.0452                19.8792

                     25                     26                     27
                      A                      A                      A
 Frequencies --    760.4770               775.3170               782.2264
 Red. masses --      1.4135                 1.5705                 2.4195
 Frc consts  --      0.4816                 0.5562                 0.8723
 IR Inten    --     40.6851                45.2652                29.7423

                     28                     29                     30
                      A                      A                      A
 Frequencies --    835.0500               877.2332               879.8551
 Red. masses --      6.2396                 2.0146                 4.3099
 Frc consts  --      2.5635                 0.9134                 1.9658
 IR Inten    --     18.5729                16.8947                 2.1033

                     31                     32                     33
                      A                      A                      A
 Frequencies --    882.2159               963.1509               966.6182
 Red. masses --      1.3784                 4.3235                 1.3221
 Frc consts  --      0.6321                 2.3631                 0.7278
 IR Inten    --      0.9634                35.6915                 0.1425

                     34                     35                     36
                      A                      A                      A
 Frequencies --    970.1241              1013.8643              1017.7900
 Red. masses --      1.3605                 1.3037                 1.3071
 Frc consts  --      0.7544                 0.7896                 0.7978
 IR Inten    --      1.4945                 0.0144                 0.3579

                     37                     38                     39
                      A                      A                      A
 Frequencies --   1041.9385              1057.0787              1089.0557
 Red. masses --      2.1512                 2.0728                 3.4937
 Frc consts  --      1.3760                 1.3647                 2.4414
 IR Inten    --     13.5252                12.3374                23.9521

                     40                     41                     42
                      A                      A                      A
 Frequencies --   1126.3088              1159.0149              1162.2134
 Red. masses --      2.0344                 1.3712                 1.1973
 Frc consts  --      1.5205                 1.0853                 0.9528
 IR Inten    --     66.2474                 0.5465                75.0533

                     43                     44                     45
                      A                      A                      A
 Frequencies --   1181.6835              1198.0354              1249.4275
 Red. masses --      1.1477                 1.2517                 2.0167
 Frc consts  --      0.9442                 1.0585                 1.8549
 IR Inten    --     18.1909                15.8910                 8.3315

                     46                     47                     48
                      A                      A                      A
 Frequencies --   1289.2133              1301.6960              1359.7026
 Red. masses --      1.6670                 2.5529                 2.8083
 Frc consts  --      1.6324                 2.5486                 3.0590
 IR Inten    --     20.9296               166.8390                24.6101

                     49                     50                     51
                      A                      A                      A
 Frequencies --   1386.9627              1396.6465              1416.3364
 Red. masses --      5.6591                 5.9759                 2.2776
 Frc consts  --      6.4140                 6.8679                 2.6919
 IR Inten    --    128.8447                35.7004                 6.6818

                     52                     53                     54
                      A                      A                      A
 Frequencies --   1493.1415              1507.3049              1524.1216
 Red. masses --      2.7462                 2.8046                 3.2029
 Frc consts  --      3.6074                 3.7542                 4.3836
 IR Inten    --     31.8055               365.6444                68.4070

                     55                     56                     57
                      A                      A                      A
 Frequencies --   1554.7177              1600.8562              1644.9890
 Red. masses --      4.4852                 6.7004                 7.0726
 Frc consts  --      6.3875                10.1172                11.2760
 IR Inten    --   1799.4847               122.5503               152.6658

                     58                     59                     60
                      A                      A                      A
 Frequencies --   1679.9258              1682.5647              1718.8153
 Red. masses --      7.3418                 7.1955                 7.5163
 Frc consts  --     12.2077                12.0021                13.0831
 IR Inten    --      1.8532               115.9807               388.8541

                     61                     62                     63
                      A                      A                      A
 Frequencies --   3183.7460              3195.0528              3217.4278
 Red. masses --      1.0888                 1.0878                 1.0863
 Frc consts  --      6.5027                 6.5425                 6.6256
 IR Inten    --      3.5530                14.5734                 1.1944

                     64                     65                     66
                      A                      A                      A
 Frequencies --   3219.7621              3227.6045              3232.6877
 Red. masses --      1.0947                 1.0908                 1.0974
 Frc consts  --      6.6863                 6.6949                 6.7566
 IR Inten    --     29.4938                 2.6612                19.3391

                     67                     68                     69
                      A                      A                      A
 Frequencies --   3236.5519              3242.9737              3583.1666
 Red. masses --      1.0960                 1.0999                 1.0821
 Frc consts  --      6.7645                 6.8156                 8.1853
 IR Inten    --      5.2563                11.0202               170.7520

 - Thermochemistry -
 -------------------
 Temperature   298.150 Kelvin.  Pressure   1.00000 Atm.
 Atom     1 has atomic number  6 and mass  12.00000

 Molecular mass:   227.04049 amu.
 Principal axes and moments of inertia in atomic units:
                           1         2         3
     Eigenvalues --  1286.666946366.436497653.10343
           X           -0.70435   0.70985   0.00000
           Y            0.70985   0.70435  -0.00001
           Z            0.00001   0.00001   1.00000
 This molecule is an asymmetric top.
 Rotational symmetry number  1.
 Warning -- assumption of classical behavior for rotation
           may cause significant error
 Rotational temperatures (Kelvin)      0.06732     0.01360     0.01132
 Rotational constants (GHZ):           1.40265     0.28348     0.23582
 Zero-point vibrational energy     498038.8 (Joules/Mol)
                                  119.03414 (Kcal/Mol)
 Warning -- explicit consideration of  18 degrees of freedom as
           vibrations may cause significant error
 Vibrational temperatures:     78.86    89.44   155.61   185.58   281.01
          (Kelvin)            329.00   385.37   437.12   442.76   573.46
                              615.07   641.86   729.70   753.86   770.61
                              791.35   808.38   837.90   900.47   943.45
                             1010.27  1027.27  1065.64  1081.85  1094.16
                             1115.51  1125.45  1201.45  1262.14  1265.92
                             1269.31  1385.76  1390.75  1395.79  1458.72
                             1464.37  1499.12  1520.90  1566.91  1620.51
                             1667.56  1672.17  1700.18  1723.71  1797.65
                             1854.89  1872.85  1956.31  1995.53  2009.46
                             2037.79  2148.30  2168.68  2192.87  2236.89
                             2303.28  2366.77  2417.04  2420.84  2472.99
                             4580.70  4596.97  4629.16  4632.52  4643.80
                             4651.12  4656.68  4665.92  5155.38

 Zero-point correction=                           0.189693 (Hartree/Particle)
 Thermal correction to Energy=                    0.201629
 Thermal correction to Enthalpy=                  0.202574
 Thermal correction to Gibbs Free Energy=         0.150880
 Sum of electronic and zero-point Energies=          -1028.619915
 Sum of electronic and thermal Energies=             -1028.607978
 Sum of electronic and thermal Enthalpies=           -1028.607034
 Sum of electronic and thermal Free Energies=        -1028.658728

                     E (Thermal)             CV                S
                      KCal/Mol        Cal/Mol-Kelvin    Cal/Mol-Kelvin
 Total                  126.524             48.393            108.799
 Electronic               0.000              0.000              0.000
 Translational            0.889              2.981             42.162
 Rotational               0.889              2.981             32.505
 Vibrational            124.747             42.432             34.131
 Vibration     1          0.596              1.976              4.636
 Vibration     2          0.597              1.972              4.387
 Vibration     3          0.606              1.943              3.302
 Vibration     4          0.611              1.924              2.961
 Vibration     5          0.636              1.846              2.177
 Vibration     6          0.651              1.797              1.889
 Vibration     7          0.673              1.732              1.610
 Vibration     8          0.695              1.666              1.396
 Vibration     9          0.698              1.659              1.375
 Vibration    10          0.765              1.473              0.968
 Vibration    11          0.789              1.410              0.867
 Vibration    12          0.805              1.369              0.808
 Vibration    13          0.862              1.234              0.640
 Vibration    14          0.879              1.197              0.601
 Vibration    15          0.891              1.171              0.575
 Vibration    16          0.905              1.140              0.544
 Vibration    17          0.918              1.114              0.520
 Vibration    18          0.939              1.069              0.481

 Optimization completed.
    -- Stationary point found.
 Normal termination of Gaussian 16 at Tue Oct 27 23:43:28 2020.
