 Gaussian 16, Revision C.01,
 Gaussian 16:  ES64L-G16RevC.01  3-Jul-2019

 ----------------------------------------------------------------------
 #p opt=addgic freq wb97xd/cc-pvdz nosymm int=ultrafine scrf=(solvent=C
 arbonTetraChloride)
 ----------------------------------------------------------------------

 ------------------------------------------------
 NM 2D-scan of HBT TD-WB97XD pVDZ in CTC Relaxed.
 ------------------------------------------------
 Symbolic Z-matrix:
 Charge =  0 Multiplicity = 1

 SCF Done:  E(RwB97XD) =  -1028.69000527     A.U. after   15 cycles
 SCF Done:  E(RwB97XD) =  -1028.80504688     A.U. after   13 cycles
 SCF Done:  E(RwB97XD) =  -1028.81062330     A.U. after   15 cycles
 SCF Done:  E(RwB97XD) =  -1028.82872692     A.U. after   13 cycles
 SCF Done:  E(RwB97XD) =  -1028.82976983     A.U. after   11 cycles
 SCF Done:  E(RwB97XD) =  -1028.82989605     A.U. after   11 cycles
 SCF Done:  E(RwB97XD) =  -1028.82991171     A.U. after    9 cycles
 Optimization completed.
    -- Stationary point found.
 Normal termination of Gaussian 16 at Wed Oct 28 00:58:17 2020.

 --------------------------------------------------------------------
 #P Geom=AllCheck Guess=TCheck SCRF=Check GenChk RwB97XD/CC-pVDZ Freq
 --------------------------------------------------------------------

 Structure from the checkpoint file:  "config_1_17.chk"
 ------------------------------------------------
 NM 2D-scan of HBT TD-WB97XD pVDZ in CTC Relaxed.
 ------------------------------------------------
 Charge =  0 Multiplicity = 1

                          Input orientation:
 ---------------------------------------------------------------------
 Center     Atomic      Atomic             Coordinates (Angstroms)
 Number     Number       Type             X           Y           Z
 ---------------------------------------------------------------------
      1          6           0        1.548668   -3.305165   -0.000025
      2          6           0        0.977058   -2.031679   -0.000013
      3          6           0        1.758151   -0.859354   -0.000009
      4          6           0        3.155496   -0.969598   -0.000019
      5          6           0        3.728620   -2.234519   -0.000030
      6          6           0        2.934253   -3.393419   -0.000033
      7          1           0        0.926619   -4.200648   -0.000027
      8          1           0        3.768192   -0.067412   -0.000016
      9          1           0        4.815345   -2.330886   -0.000037
     10          1           0        3.410404   -4.375016   -0.000042
     11          7           0        1.032152    0.325195    0.000005
     12         16           0       -0.711285   -1.606469    0.000001
     13          6           0       -1.285564    1.132735    0.000023
     14          6           0       -2.646941    0.775496    0.000024
     15          6           0       -0.940015    2.504156    0.000030
     16          6           0       -3.648119    1.728724    0.000029
     17          1           0       -2.923110   -0.281040    0.000021
     18          6           0       -1.962249    3.466517    0.000033
     19          6           0       -3.293810    3.084062    0.000031
     20          1           0       -4.695156    1.426280    0.000029
     21          1           0       -1.672861    4.518016    0.000037
     22          1           0       -4.070583    3.850910    0.000033
     23          6           0       -0.251941    0.098613    0.000011
     24          8           0        0.326562    2.942329    0.000036
     25          1           0        0.919918    2.159593    0.000031
 ---------------------------------------------------------------------

 SCF Done:  E(RwB97XD) =  -1028.82991171     A.U. after    1 cycles

 Alpha  occ. eigenvalues --  -89.08310 -19.28854 -14.46991 -10.39269 -10.37609
 Alpha  occ. eigenvalues --  -10.34847 -10.34578 -10.32436 -10.32162 -10.31917
 Alpha  occ. eigenvalues --  -10.31553 -10.31532 -10.31490 -10.31348 -10.30391
 Alpha  occ. eigenvalues --  -10.30343  -8.10387  -6.05234  -6.04879  -6.04438
 Alpha  occ. eigenvalues --   -1.16857  -1.08646  -0.97299  -0.96271  -0.91572
 Alpha  occ. eigenvalues --   -0.88551  -0.85444  -0.84731  -0.82779  -0.75445
 Alpha  occ. eigenvalues --   -0.71588  -0.70687  -0.69383  -0.68140  -0.63239
 Alpha  occ. eigenvalues --   -0.60340  -0.58745  -0.58517  -0.56616  -0.54565
 Alpha  occ. eigenvalues --   -0.53855  -0.53124  -0.52958  -0.50705  -0.50534
 Alpha  occ. eigenvalues --   -0.49093  -0.47790  -0.45861  -0.45441  -0.45027
 Alpha  occ. eigenvalues --   -0.44026  -0.43114  -0.42318  -0.39638  -0.37522
 Alpha  occ. eigenvalues --   -0.36197  -0.31987  -0.31754  -0.29290
 Alpha virt. eigenvalues --   -0.00422   0.04948   0.06723   0.07056   0.08061
 Alpha virt. eigenvalues --    0.11551   0.14326   0.15254   0.16884   0.18085
 Alpha virt. eigenvalues --    0.18803   0.20526   0.21535   0.22505   0.22610

 Mulliken charges:
               1
     1  C    0.011647
     2  C   -0.203510
     3  C    0.201950
     4  C   -0.017378
     5  C    0.004066
     6  C    0.000771
     7  H    0.017711
     8  H    0.016635
     9  H    0.018942
    10  H    0.020778
    11  N   -0.340775
    12  S    0.137253
    13  C   -0.034962
    14  C   -0.031683
    15  C    0.053741
    16  C   -0.002477
    17  H    0.021858
    18  C    0.012274
    19  C    0.021045
    20  H    0.010409
    21  H    0.018313
    22  H    0.019351
    23  C    0.079144
    24  O   -0.193454
    25  H    0.158350
 Sum of Mulliken charges =  -0.00000

 Dipole moment (field-independent basis, Debye):
    X=             -0.2728    Y=             -2.2316    Z=             -0.0000  Tot=              2.2483
 Quadrupole moment (field-independent basis, Debye-Ang):
   XX=            -82.6986   YY=            -89.9266   ZZ=           -104.1143
   XY=             -7.0363   XZ=             -0.0001   YZ=              0.0001

  Exact polarizability:     272.912     -66.537     254.214      -0.001       0.001      62.922
 Approx polarizability:     261.413     -22.640     242.120      -0.001       0.001      82.139

                      1                      2                      3
                      A                      A                      A
 Frequencies --     40.8746                61.8274               118.0671
 Red. masses --      5.8725                 5.3000                 5.6678
 Frc consts  --      0.0058                 0.0119                 0.0466
 IR Inten    --      0.2416                 0.8569                 1.2159

                      4                      5                      6
                      A                      A                      A
 Frequencies --    150.6999               197.8421               246.8088
 Red. masses --      4.9980                 6.0134                 5.6030
 Frc consts  --      0.0669                 0.1387                 0.2011
 IR Inten    --      0.0012                 0.7707                 0.0066

                      7                      8                      9
                      A                      A                      A
 Frequencies --    265.3114               296.5038               329.2660
 Red. masses --      7.9967                 6.2612                 5.0562
 Frc consts  --      0.3316                 0.3243                 0.3230
 IR Inten    --      3.0788                 5.4818                 0.0890

                     10                     11                     12
                      A                      A                      A
 Frequencies --    411.9540               438.8268               469.5366
 Red. masses --      8.9603                 3.1226                 3.6950
 Frc consts  --      0.8959                 0.3543                 0.4800
 IR Inten    --      0.2580                 1.8483                 8.1274

                     13                     14                     15
                      A                      A                      A
 Frequencies --    509.1077               517.0540               536.7880
 Red. masses --      4.9740                 8.6548                 3.4236
 Frc consts  --      0.7596                 1.3633                 0.5812
 IR Inten    --      6.1079                 0.2108                 3.9642

                     16                     17                     18
                      A                      A                      A
 Frequencies --    549.3582               576.0153               591.5635
 Red. masses --      8.2892                 3.7576                 7.7156
 Frc consts  --      1.4739                 0.7346                 1.5908
 IR Inten    --      1.8910                 0.0171                 6.4152

                     19                     20                     21
                      A                      A                      A
 Frequencies --    643.8411               675.6935               722.8967
 Red. masses --      4.9895                 6.7231                 7.8885
 Frc consts  --      1.2186                 1.8085                 2.4288
 IR Inten    --      1.7959                 2.6661                37.3075

                     22                     23                     24
                      A                      A                      A
 Frequencies --    726.8694               734.1130               756.3992
 Red. masses --      1.2211                 8.0744                 1.8689
 Frc consts  --      0.3801                 2.5638                 0.6300
 IR Inten    --     81.1910                 2.6706                26.0702

                     25                     26                     27
                      A                      A                      A
 Frequencies --    770.3587               779.1005               788.4843
 Red. masses --      2.3042                 1.4846                 2.0139
 Frc consts  --      0.8057                 0.5309                 0.7377
 IR Inten    --     46.3884                16.4290                45.4374

                     28                     29                     30
                      A                      A                      A
 Frequencies --    845.8845               883.4245               886.2677
 Red. masses --      5.9574                 1.5474                 6.4711
 Frc consts  --      2.5115                 0.7115                 2.9947
 IR Inten    --     20.6586                 4.1668                 4.7023

                     31                     32                     33
                      A                      A                      A
 Frequencies --    887.9815               969.5098               976.0683
 Red. masses --      1.4251                 1.3631                 1.3675
 Frc consts  --      0.6621                 0.7549                 0.7676
 IR Inten    --      0.7647                 1.0516                 1.6076

                     34                     35                     36
                      A                      A                      A
 Frequencies --    990.9428              1011.8056              1015.0600
 Red. masses --      7.7021                 1.3044                 1.3056
 Frc consts  --      4.4561                 0.7868                 0.7926
 IR Inten    --     56.8950                 0.3965                 0.0192

                     37                     38                     39
                      A                      A                      A
 Frequencies --   1051.4135              1071.7883              1103.9160
 Red. masses --      1.9935                 1.9537                 3.7596
 Frc consts  --      1.2984                 1.3223                 2.6994
 IR Inten    --      8.4501                11.9398                 5.9485

                     40                     41                     42
                      A                      A                      A
 Frequencies --   1152.8481              1155.2224              1177.3970
 Red. masses --      1.4578                 1.3547                 1.1355
 Frc consts  --      1.1415                 1.0652                 0.9274
 IR Inten    --      3.3316                 3.6822                40.0305

                     43                     44                     45
                      A                      A                      A
 Frequencies --   1183.6537              1243.9786              1276.6264
 Red. masses --      1.2437                 1.9120                 2.3450
 Frc consts  --      1.0267                 1.7433                 2.2518
 IR Inten    --      0.1082               147.2545                84.9015

                     46                     47                     48
                      A                      A                      A
 Frequencies --   1283.2944              1324.0583              1334.4945
 Red. masses --      1.6234                 3.0959                 3.8437
 Frc consts  --      1.5752                 3.1978                 4.0330
 IR Inten    --     13.5096                34.3364                11.9274

                     49                     50                     51
                      A                      A                      A
 Frequencies --   1369.0736              1379.6357              1445.8055
 Red. masses --      7.6544                 3.9680                 1.6910
 Frc consts  --      8.4531                 4.4499                 2.0827
 IR Inten    --     15.8379                11.1349                60.2296

                     52                     53                     54
                      A                      A                      A
 Frequencies --   1486.0066              1503.9829              1526.6392
 Red. masses --      2.6177                 2.8718                 2.7998
 Frc consts  --      3.4057                 3.8272                 3.8446
 IR Inten    --     44.5735                11.3989                43.8317

                     55                     56                     57
                      A                      A                      A
 Frequencies --   1539.1706              1597.5941              1644.0250
 Red. masses --      2.7795                 8.2372                 6.7588
 Frc consts  --      3.8797                12.3868                10.7630
 IR Inten    --    157.8401               186.8123                 5.4547

                     58                     59                     60
                      A                      A                      A
 Frequencies --   1663.9379              1680.8662              1708.0959
 Red. masses --      5.2232                 6.9002                 6.0175
 Frc consts  --      8.5204                11.4862                10.3440
 IR Inten    --    120.8850                 5.8507               106.3750

                     61                     62                     63
                      A                      A                      A
 Frequencies --   3205.9816              3209.7438              3214.1052
 Red. masses --      1.0878                 1.0860                 1.0890
 Frc consts  --      6.5876                 6.5920                 6.6284
 IR Inten    --      2.0568                 1.2126                 7.0309

                     64                     65                     66
                      A                      A                      A
 Frequencies --   3220.6572              3230.9299              3231.1034
 Red. masses --      1.0904                 1.0960                 1.0944
 Frc consts  --      6.6638                 6.7406                 6.7315
 IR Inten    --      4.5746                10.6390                10.4648

                     67                     68                     69
                      A                      A                      A
 Frequencies --   3237.0057              3240.0584              3492.2768
 Red. masses --      1.0996                 1.0995                 1.0671
 Frc consts  --      6.7887                 6.8006                 7.6681
 IR Inten    --     17.2033                14.7746               572.7813

 - Thermochemistry -
 -------------------
 Temperature   298.150 Kelvin.  Pressure   1.00000 Atm.
 Atom     1 has atomic number  6 and mass  12.00000

 Molecular mass:   227.04049 amu.
 Principal axes and moments of inertia in atomic units:
                           1         2         3
     Eigenvalues --  1301.532176379.833677681.36584
           X           -0.69562   0.71841   0.00000
           Y            0.71841   0.69562  -0.00001
           Z            0.00001   0.00000   1.00000
 This molecule is an asymmetric top.
 Rotational symmetry number  1.
 Warning -- assumption of classical behavior for rotation
           may cause significant error
 Rotational temperatures (Kelvin)      0.06655     0.01358     0.01128
 Rotational constants (GHZ):           1.38663     0.28288     0.23495
 Zero-point vibrational energy     499784.8 (Joules/Mol)
                                  119.45143 (Kcal/Mol)
 Warning -- explicit consideration of  18 degrees of freedom as
           vibrations may cause significant error
 Vibrational temperatures:     58.81    88.96   169.87   216.82   284.65
          (Kelvin)            355.10   381.72   426.60   473.74   592.71
                              631.37   675.56   732.49   743.93   772.32
                              790.40   828.76   851.13   926.34   972.17
                             1040.09  1045.80  1056.22  1088.29  1108.37
                             1120.95  1134.45  1217.04  1271.05  1275.14
                             1277.61  1394.91  1404.34  1425.75  1455.76
                             1460.44  1512.75  1542.06  1588.29  1658.69
                             1662.11  1694.01  1703.01  1789.81  1836.78
                             1846.37  1905.02  1920.04  1969.79  1984.99
                             2080.19  2138.03  2163.90  2196.49  2214.52
                             2298.58  2365.39  2394.04  2418.39  2457.57
                             4612.69  4618.11  4624.38  4633.81  4648.59
                             4648.84  4657.33  4661.72  5024.61

 Zero-point correction=                           0.190358 (Hartree/Particle)
 Thermal correction to Energy=                    0.202113
 Thermal correction to Enthalpy=                  0.203057
 Thermal correction to Gibbs Free Energy=         0.151566
 Sum of electronic and zero-point Energies=          -1028.639554
 Sum of electronic and thermal Energies=             -1028.627799
 Sum of electronic and thermal Enthalpies=           -1028.626855
 Sum of electronic and thermal Free Energies=        -1028.678346

                     E (Thermal)             CV                S
                      KCal/Mol        Cal/Mol-Kelvin    Cal/Mol-Kelvin
 Total                  126.828             47.823            108.372
 Electronic               0.000              0.000              0.000
 Translational            0.889              2.981             42.162
 Rotational               0.889              2.981             32.522
 Vibrational            125.050             41.862             33.688
 Vibration     1          0.594              1.981              5.216
 Vibration     2          0.597              1.973              4.398
 Vibration     3          0.608              1.934              3.132
 Vibration     4          0.618              1.902              2.663
 Vibration     5          0.637              1.843              2.153
 Vibration     6          0.661              1.768              1.753
 Vibration     7          0.671              1.737              1.627
 Vibration     8          0.690              1.680              1.437
 Vibration     9          0.712              1.617              1.264
 Vibration    10          0.776              1.444              0.920
 Vibration    11          0.799              1.386              0.830
 Vibration    12          0.827              1.318              0.739
 Vibration    13          0.864              1.230              0.636
 Vibration    14          0.872              1.212              0.617
 Vibration    15          0.892              1.169              0.572
 Vibration    16          0.905              1.141              0.546
 Vibration    17          0.932              1.083              0.493
 Vibration    18          0.949              1.050              0.464

 Optimization completed.
    -- Stationary point found.
 Normal termination of Gaussian 16 at Wed Oct 28 01:04:13 2020.
