 Gaussian 16, Revision C.01,
 Gaussian 16:  ES64L-G16RevC.01  3-Jul-2019

 ----------------------------------------------------------------------
 #p opt=addgic freq wb97xd/cc-pvdz nosymm int=ultrafine scrf=(solvent=C
 arbonTetraChloride)
 ----------------------------------------------------------------------

 ------------------------------------------------
 NM 2D-scan of HBT TD-WB97XD pVDZ in CTC Relaxed.
 ------------------------------------------------
 Symbolic Z-matrix:
 Charge =  0 Multiplicity = 1

 SCF Done:  E(RwB97XD) =  -1028.81423547     A.U. after   15 cycles
 SCF Done:  E(RwB97XD) =  -1028.82089386     A.U. after   13 cycles
 SCF Done:  E(RwB97XD) =  -1028.82015376     A.U. after   13 cycles
 SCF Done:  E(RwB97XD) =  -1028.82257925     A.U. after   12 cycles
 SCF Done:  E(RwB97XD) =  -1028.82261008     A.U. after   10 cycles
 SCF Done:  E(RwB97XD) =  -1028.82261297     A.U. after    9 cycles
 SCF Done:  E(RwB97XD) =  -1028.82261381     A.U. after    9 cycles
 Optimization completed.
    -- Stationary point found.
 Normal termination of Gaussian 16 at Tue Oct 27 21:51:46 2020.

 --------------------------------------------------------------------
 #P Geom=AllCheck Guess=TCheck SCRF=Check GenChk RwB97XD/CC-pVDZ Freq
 --------------------------------------------------------------------

 Structure from the checkpoint file:  "config_6_5.chk"
 ------------------------------------------------
 NM 2D-scan of HBT TD-WB97XD pVDZ in CTC Relaxed.
 ------------------------------------------------
 Charge =  0 Multiplicity = 1

                          Input orientation:
 ---------------------------------------------------------------------
 Center     Atomic      Atomic             Coordinates (Angstroms)
 Number     Number       Type             X           Y           Z
 ---------------------------------------------------------------------
      1          6           0        1.703907   -3.266040   -0.000023
      2          6           0        1.002185   -2.059285    0.000072
      3          6           0        1.682742   -0.835957    0.000009
      4          6           0        3.080364   -0.787443   -0.000142
      5          6           0        3.776531   -1.987286   -0.000231
      6          6           0        3.094082   -3.213822   -0.000175
      7          1           0        1.181459   -4.222874    0.000016
      8          1           0        3.591926    0.175355   -0.000188
      9          1           0        4.867335   -1.978320   -0.000351
     10          1           0        3.661549   -4.145449   -0.000254
     11          7           0        0.839954    0.249520    0.000096
     12         16           0       -0.736996   -1.767757    0.000252
     13          6           0       -1.401394    1.057578    0.000201
     14          6           0       -2.792419    0.877324    0.000088
     15          6           0       -0.855442    2.380532    0.000179
     16          6           0       -3.658006    1.962250   -0.000120
     17          1           0       -3.197447   -0.138038    0.000108
     18          6           0       -1.757246    3.467411   -0.000077
     19          6           0       -3.126778    3.259672   -0.000221
     20          1           0       -4.736668    1.804703   -0.000231
     21          1           0       -1.335861    4.473484   -0.000100
     22          1           0       -3.799164    4.120096   -0.000390
     23          6           0       -0.436599   -0.038467    0.000248
     24          8           0        0.440250    2.600925    0.000472
     25          1           0        0.896147    1.642805    0.000850
 ---------------------------------------------------------------------

 SCF Done:  E(RwB97XD) =  -1028.82261381     A.U. after    1 cycles

 Alpha  occ. eigenvalues --  -89.09248 -19.25973 -14.47311 -10.39935 -10.36951
 Alpha  occ. eigenvalues --  -10.35305 -10.35166 -10.32655 -10.31981 -10.31980
 Alpha  occ. eigenvalues --  -10.31842 -10.31780 -10.31694 -10.31152 -10.29886
 Alpha  occ. eigenvalues --  -10.29645  -8.11245  -6.06108  -6.05741  -6.05288
 Alpha  occ. eigenvalues --   -1.15345  -1.09539  -0.97504  -0.95836  -0.91897
 Alpha  occ. eigenvalues --   -0.88718  -0.85520  -0.84184  -0.83048  -0.75640
 Alpha  occ. eigenvalues --   -0.71460  -0.70495  -0.69230  -0.68455  -0.63253
 Alpha  occ. eigenvalues --   -0.60781  -0.59086  -0.58032  -0.56132  -0.54578
 Alpha  occ. eigenvalues --   -0.54499  -0.53438  -0.52449  -0.51102  -0.49951
 Alpha  occ. eigenvalues --   -0.49736  -0.47371  -0.46169  -0.45287  -0.45101
 Alpha  occ. eigenvalues --   -0.43903  -0.42965  -0.42481  -0.40085  -0.36273
 Alpha  occ. eigenvalues --   -0.35812  -0.32549  -0.31549  -0.28531
 Alpha virt. eigenvalues --   -0.00614   0.04543   0.06865   0.07441   0.07618
 Alpha virt. eigenvalues --    0.11178   0.13717   0.15029   0.16176   0.17846
 Alpha virt. eigenvalues --    0.19084   0.20799   0.21764   0.22485   0.22665

 Mulliken charges:
               1
     1  C    0.009421
     2  C   -0.232141
     3  C    0.263997
     4  C   -0.011617
     5  C    0.007915
     6  C    0.001284
     7  H    0.021004
     8  H    0.023059
     9  H    0.022102
    10  H    0.023002
    11  N   -0.324793
    12  S    0.159040
    13  C   -0.090969
    14  C   -0.015754
    15  C    0.091541
    16  C   -0.015259
    17  H    0.007428
    18  C   -0.001767
    19  C    0.022053
    20  H    0.007964
    21  H    0.011958
    22  H    0.016839
    23  C    0.080961
    24  O   -0.257243
    25  H    0.179977
 Sum of Mulliken charges =   0.00000

 Dipole moment (field-independent basis, Debye):
    X=              0.4731    Y=             -3.1829    Z=              0.0000  Tot=              3.2179
 Quadrupole moment (field-independent basis, Debye-Ang):
   XX=            -82.7343   YY=            -90.7556   ZZ=           -104.0587
   XY=             -7.1676   XZ=              0.0002   YZ=             -0.0008

  Exact polarizability:     276.802     -69.195     259.085      -0.002      -0.002      62.967
 Approx polarizability:     263.824     -24.513     244.276      -0.002      -0.003      82.212

                      1                      2                      3
                      A                      A                      A
 Frequencies --     13.2429                63.5715               123.4407
 Red. masses --      5.4651                 6.0648                 5.5847
 Frc consts  --      0.0006                 0.0144                 0.0501
 IR Inten    --      0.0293                 1.4713                 2.6878

                      4                      5                      6
                      A                      A                      A
 Frequencies --    152.3997               197.6258               244.0111
 Red. masses --      5.0056                 5.8562                 5.7771
 Frc consts  --      0.0685                 0.1348                 0.2027
 IR Inten    --      0.1890                 0.4099                 0.1381

                      7                      8                      9
                      A                      A                      A
 Frequencies --    271.3560               325.9711               341.5649
 Red. masses --      7.2940                 5.1775                 5.8949
 Frc consts  --      0.3164                 0.3241                 0.4052
 IR Inten    --      0.7508                 0.3741                20.0116

                     10                     11                     12
                      A                      A                      A
 Frequencies --    411.1582               436.2932               461.6523
 Red. masses --     10.3028                 3.1317                 3.6442
 Frc consts  --      1.0262                 0.3512                 0.4576
 IR Inten    --      0.3506                 2.0348                 8.4128

                     13                     14                     15
                      A                      A                      A
 Frequencies --    514.5511               522.9661               539.5849
 Red. masses --      7.6475                 5.5024                 3.4430
 Frc consts  --      1.1930                 0.8866                 0.5906
 IR Inten    --      5.0808                36.2744                 3.6828

                     16                     17                     18
                      A                      A                      A
 Frequencies --    557.7134               573.7229               592.1943
 Red. masses --      7.1759                 3.6717                 7.6639
 Frc consts  --      1.3151                 0.7121                 1.5835
 IR Inten    --      9.7755                 0.1018                 2.7662

                     19                     20                     21
                      A                      A                      A
 Frequencies --    648.7837               687.7080               715.0242
 Red. masses --      6.4234                 6.3046                 6.6667
 Frc consts  --      1.5930                 1.7568                 2.0082
 IR Inten    --      0.0174                15.1768                23.0388

                     22                     23                     24
                      A                      A                      A
 Frequencies --    754.9680               761.3932               768.2293
 Red. masses --      2.1215                10.0284                 2.5745
 Frc consts  --      0.7124                 3.4253                 0.8952
 IR Inten    --     22.3619                14.2976                 6.8697

                     25                     26                     27
                      A                      A                      A
 Frequencies --    775.4810               784.6069               849.8243
 Red. masses --      1.5069                 1.8185                 5.9288
 Frc consts  --      0.5339                 0.6596                 2.5228
 IR Inten    --     59.1264                38.2696                16.3082

                     28                     29                     30
                      A                      A                      A
 Frequencies --    882.4452               886.2507               915.0211
 Red. masses --      1.5856                 1.4089                 6.7093
 Frc consts  --      0.7275                 0.6520                 3.3097
 IR Inten    --      5.5976                 0.2934                 1.5847

                     31                     32                     33
                      A                      A                      A
 Frequencies --    969.0600               975.7339              1000.9341
 Red. masses --      1.3549                 1.3608                 7.2693
 Frc consts  --      0.7497                 0.7633                 4.2910
 IR Inten    --      1.1892                 0.9578                63.6590

                     34                     35                     36
                      A                      A                      A
 Frequencies --   1010.5196              1016.3161              1053.7009
 Red. masses --      1.3002                 1.3047                 2.0303
 Frc consts  --      0.7822                 0.7940                 1.3282
 IR Inten    --      0.1705                 0.0143                 9.1394

                     37                     38                     39
                      A                      A                      A
 Frequencies --   1064.1357              1082.5122              1098.0235
 Red. masses --      1.9236                 1.0645                 4.1111
 Frc consts  --      1.2834                 0.7349                 2.9203
 IR Inten    --      9.1710                70.4190                 4.3328

                     40                     41                     42
                      A                      A                      A
 Frequencies --   1146.1502              1153.5715              1169.8203
 Red. masses --      1.4784                 1.3027                 1.1424
 Frc consts  --      1.1442                 1.0214                 0.9211
 IR Inten    --     21.7198                 2.8830                35.9994

                     43                     44                     45
                      A                      A                      A
 Frequencies --   1184.8292              1254.8390              1286.6391
 Red. masses --      1.1794                 1.7874                 1.6833
 Frc consts  --      0.9755                 1.6583                 1.6418
 IR Inten    --      0.0374               118.7646                11.6053

                     46                     47                     48
                      A                      A                      A
 Frequencies --   1299.2625              1315.2177              1353.1576
 Red. masses --      2.7107                 3.1665                 6.2530
 Frc consts  --      2.6961                 3.2272                 6.7458
 IR Inten    --     64.4486               236.7477                 1.0228

                     49                     50                     51
                      A                      A                      A
 Frequencies --   1379.5683              1384.4903              1449.3148
 Red. masses --      5.3840                 3.2072                 2.3479
 Frc consts  --      6.0373                 3.6221                 2.9057
 IR Inten    --      7.7157                18.7937                 7.9024

                     52                     53                     54
                      A                      A                      A
 Frequencies --   1493.5955              1499.5219              1525.4879
 Red. masses --      2.7839                 2.7865                 4.1768
 Frc consts  --      3.6591                 3.6916                 5.7268
 IR Inten    --      7.1112                35.2211                80.3253

                     55                     56                     57
                      A                      A                      A
 Frequencies --   1580.1106              1602.4809              1656.8244
 Red. masses --      6.7863                 3.3481                 6.5133
 Frc consts  --      9.9829                 5.0657                10.5343
 IR Inten    --    287.7250                48.8701                51.6792

                     58                     59                     60
                      A                      A                      A
 Frequencies --   1669.8584              1699.4547              1717.7346
 Red. masses --      5.3670                 7.1661                 1.9694
 Frc consts  --      8.8174                12.1942                 3.4236
 IR Inten    --    287.5778               205.0865               465.0151

                     61                     62                     63
                      A                      A                      A
 Frequencies --   2136.2077              3189.9685              3203.2983
 Red. masses --      1.1179                 1.0897                 1.0884
 Frc consts  --      3.0057                 6.5334                 6.5798
 IR Inten    --   1410.4856                 4.2251                 6.6244

                     64                     65                     66
                      A                      A                      A
 Frequencies --   3213.6188              3224.8316              3225.5538
 Red. masses --      1.0864                 1.0907                 1.0938
 Frc consts  --      6.6104                 6.6830                 6.7047
 IR Inten    --      2.0879                 3.5545                12.9243

                     67                     68                     69
                      A                      A                      A
 Frequencies --   3234.1820              3235.2929              3241.0071
 Red. masses --      1.0984                 1.0960                 1.0997
 Frc consts  --      6.7691                 6.7590                 6.8060
 IR Inten    --     18.8329                 8.5879                12.7987

 - Thermochemistry -
 -------------------
 Temperature   298.150 Kelvin.  Pressure   1.00000 Atm.
 Atom     1 has atomic number  6 and mass  12.00000

 Molecular mass:   227.04049 amu.
 Principal axes and moments of inertia in atomic units:
                           1         2         3
     Eigenvalues --  1308.106406271.120567579.22689
           X           -0.70452   0.70968   0.00002
           Y            0.70968   0.70452  -0.00000
           Z            0.00001  -0.00001   1.00000
 This molecule is an asymmetric top.
 Rotational symmetry number  1.
 Warning -- assumption of classical behavior for rotation
           may cause significant error
 Rotational temperatures (Kelvin)      0.06621     0.01381     0.01143
 Rotational constants (GHZ):           1.37966     0.28779     0.23812
 Zero-point vibrational energy     495072.0 (Joules/Mol)
                                  118.32506 (Kcal/Mol)
 Warning -- explicit consideration of  18 degrees of freedom as
           vibrations may cause significant error
 Vibrational temperatures:     19.05    91.47   177.60   219.27   284.34
          (Kelvin)            351.08   390.42   469.00   491.44   591.57
                              627.73   664.21   740.32   752.43   776.34
                              802.43   825.46   852.04   933.46   989.46
                             1028.76  1086.23  1095.47  1105.31  1115.74
                             1128.87  1222.71  1269.64  1275.12  1316.51
                             1394.26  1403.86  1440.12  1453.91  1462.25
                             1516.04  1531.05  1557.49  1579.81  1649.05
                             1659.73  1683.11  1704.70  1805.43  1851.19
                             1869.35  1892.30  1946.89  1984.89  1991.97
                             2085.24  2148.95  2157.48  2194.84  2273.43
                             2305.61  2383.80  2402.55  2445.14  2471.44
                             3073.53  4589.65  4608.83  4623.68  4639.81
                             4640.85  4653.27  4654.86  4663.09

 Zero-point correction=                           0.188563 (Hartree/Particle)
 Thermal correction to Energy=                    0.200208
 Thermal correction to Enthalpy=                  0.201152
 Thermal correction to Gibbs Free Energy=         0.148929
 Sum of electronic and zero-point Energies=          -1028.634051
 Sum of electronic and thermal Energies=             -1028.622406
 Sum of electronic and thermal Enthalpies=           -1028.621462
 Sum of electronic and thermal Free Energies=        -1028.673685

                     E (Thermal)             CV                S
                      KCal/Mol        Cal/Mol-Kelvin    Cal/Mol-Kelvin
 Total                  125.632             47.110            109.912
 Electronic               0.000              0.000              0.000
 Translational            0.889              2.981             42.162
 Rotational               0.889              2.981             32.497
 Vibrational            123.855             41.148             35.253
 Vibration     1          0.593              1.987              7.453
 Vibration     2          0.597              1.972              4.343
 Vibration     3          0.610              1.929              3.046
 Vibration     4          0.619              1.900              2.642
 Vibration     5          0.637              1.843              2.155
 Vibration     6          0.659              1.773              1.773
 Vibration     7          0.675              1.726              1.588
 Vibration     8          0.710              1.624              1.280
 Vibration     9          0.721              1.592              1.205
 Vibration    10          0.775              1.446              0.923
 Vibration    11          0.797              1.391              0.838
 Vibration    12          0.819              1.335              0.761
 Vibration    13          0.870              1.218              0.623
 Vibration    14          0.878              1.199              0.603
 Vibration    15          0.895              1.163              0.566
 Vibration    16          0.913              1.123              0.528
 Vibration    17          0.930              1.088              0.497
 Vibration    18          0.950              1.048              0.463

 Optimization completed.
    -- Stationary point found.
 Normal termination of Gaussian 16 at Tue Oct 27 21:58:31 2020.
