 Gaussian 16, Revision C.01,
 Gaussian 16:  ES64L-G16RevC.01  3-Jul-2019

 ----------------------------------------------------------------------
 #p opt=addgic freq wb97xd/cc-pvdz nosymm int=ultrafine scrf=(solvent=C
 arbonTetraChloride)
 ----------------------------------------------------------------------

 ------------------------------------------------
 NM 2D-scan of HBT TD-WB97XD pVDZ in CTC Relaxed.
 ------------------------------------------------
 Symbolic Z-matrix:
 Charge =  0 Multiplicity = 1

 SCF Done:  E(RwB97XD) =  -1028.80112072     A.U. after   16 cycles
 SCF Done:  E(RwB97XD) =  -1028.80753347     A.U. after   13 cycles
 SCF Done:  E(RwB97XD) =  -1028.80802480     A.U. after   12 cycles
 SCF Done:  E(RwB97XD) =  -1028.80805227     A.U. after   12 cycles
 SCF Done:  E(RwB97XD) =  -1028.80812117     A.U. after   11 cycles
 SCF Done:  E(RwB97XD) =  -1028.80812604     A.U. after   10 cycles
 SCF Done:  E(RwB97XD) =  -1028.80813438     A.U. after   10 cycles
 SCF Done:  E(RwB97XD) =  -1028.80813681     A.U. after    9 cycles
 Optimization completed.
    -- Stationary point found.
 Normal termination of Gaussian 16 at Wed Oct 28 01:29:57 2020.

 --------------------------------------------------------------------
 #P Geom=AllCheck Guess=TCheck SCRF=Check GenChk RwB97XD/CC-pVDZ Freq
 --------------------------------------------------------------------

 Structure from the checkpoint file:  "config_7_17.chk"
 ------------------------------------------------
 NM 2D-scan of HBT TD-WB97XD pVDZ in CTC Relaxed.
 ------------------------------------------------
 Charge =  0 Multiplicity = 1

                          Input orientation:
 ---------------------------------------------------------------------
 Center     Atomic      Atomic             Coordinates (Angstroms)
 Number     Number       Type             X           Y           Z
 ---------------------------------------------------------------------
      1          6           0        1.526798   -3.239465   -0.000095
      2          6           0        1.001453   -1.952747   -0.000059
      3          6           0        1.790984   -0.788831    0.000005
      4          6           0        3.184323   -0.939544    0.000034
      5          6           0        3.718205   -2.230228   -0.000002
      6          6           0        2.906655   -3.373314   -0.000066
      7          1           0        0.867301   -4.107782   -0.000141
      8          1           0        3.838106   -0.066933    0.000087
      9          1           0        4.802796   -2.348385    0.000022
     10          1           0        3.358764   -4.365709   -0.000090
     11          7           0        0.999821    0.373855    0.000051
     12         16           0       -0.694209   -1.567209   -0.000069
     13          6           0       -1.313432    1.106025    0.000045
     14          6           0       -2.674837    0.738801    0.000085
     15          6           0       -0.876595    2.466572   -0.000001
     16          6           0       -3.654526    1.699971    0.000077
     17          1           0       -2.951155   -0.318617    0.000131
     18          6           0       -1.928399    3.440999   -0.000022
     19          6           0       -3.256722    3.056819    0.000018
     20          1           0       -4.709724    1.427655    0.000113
     21          1           0       -1.653091    4.496943   -0.000076
     22          1           0       -4.027700    3.831213   -0.000002
     23          6           0       -0.301306    0.109945    0.000020
     24          8           0        0.384617    2.737981   -0.000064
     25          1           0        1.034203    1.558817    0.000106
 ---------------------------------------------------------------------

 SCF Done:  E(RwB97XD) =  -1028.80813681     A.U. after    1 cycles

 Alpha  occ. eigenvalues --  -89.09344 -19.23305 -14.50303 -10.40348 -10.36984
 Alpha  occ. eigenvalues --  -10.36405 -10.35462 -10.32835 -10.32745 -10.32234
 Alpha  occ. eigenvalues --  -10.32104 -10.31414 -10.31075 -10.30578 -10.29501
 Alpha  occ. eigenvalues --  -10.29289  -8.11520  -6.06369  -6.06003  -6.05553
 Alpha  occ. eigenvalues --   -1.12873  -1.09690  -0.98121  -0.95847  -0.93049
 Alpha  occ. eigenvalues --   -0.89008  -0.86423  -0.83764  -0.82571  -0.75648
 Alpha  occ. eigenvalues --   -0.71962  -0.71535  -0.68748  -0.67779  -0.63930
 Alpha  occ. eigenvalues --   -0.60945  -0.59592  -0.57281  -0.55749  -0.55309
 Alpha  occ. eigenvalues --   -0.54737  -0.53716  -0.52796  -0.50732  -0.49654
 Alpha  occ. eigenvalues --   -0.49400  -0.47480  -0.46597  -0.45366  -0.44991
 Alpha  occ. eigenvalues --   -0.44483  -0.43164  -0.41934  -0.40595  -0.36520
 Alpha  occ. eigenvalues --   -0.33927  -0.33072  -0.31543  -0.27482
 Alpha virt. eigenvalues --   -0.00972   0.04152   0.06062   0.07387   0.08407
 Alpha virt. eigenvalues --    0.11071   0.14741   0.14961   0.16952   0.17757
 Alpha virt. eigenvalues --    0.19036   0.20573   0.21305   0.21787   0.22933

 Mulliken charges:
               1
     1  C    0.021388
     2  C   -0.220667
     3  C    0.258897
     4  C   -0.015601
     5  C    0.004924
     6  C    0.006082
     7  H    0.022658
     8  H    0.028682
     9  H    0.025215
    10  H    0.024820
    11  N   -0.265557
    12  S    0.179195
    13  C   -0.087227
    14  C   -0.026207
    15  C    0.121279
    16  C   -0.021177
    17  H    0.017231
    18  C   -0.020303
    19  C    0.023786
    20  H    0.004173
    21  H    0.007094
    22  H    0.015576
    23  C    0.075224
    24  O   -0.396694
    25  H    0.217210
 Sum of Mulliken charges =  -0.00000

 Dipole moment (field-independent basis, Debye):
    X=              0.9152    Y=             -4.6740    Z=              0.0002  Tot=              4.7627
 Quadrupole moment (field-independent basis, Debye-Ang):
   XX=            -82.3421   YY=            -93.6762   ZZ=           -103.9453
   XY=             -7.0624   XZ=              0.0003   YZ=              0.0007

  Exact polarizability:     279.873     -77.825     269.471      -0.001       0.002      62.783
 Approx polarizability:     264.001     -27.736     250.592      -0.000       0.001      82.054

 ******    1 imaginary frequencies (negative Signs) ******

                      1                      2                      3
                      A                      A                      A
 Frequencies --  -1232.9155                57.2662                59.2919
 Red. masses --      1.1262                 4.5864                 6.4381
 Frc consts  --      1.0086                 0.0089                 0.0133
 IR Inten    --   1179.1935                 0.0622                 1.3386

                      4                      5                      6
                      A                      A                      A
 Frequencies --    149.6831               151.4532               202.3982
 Red. masses --      5.5507                 5.1195                 6.4016
 Frc consts  --      0.0733                 0.0692                 0.1545
 IR Inten    --      0.5474                 1.1451                 0.1137

                      7                      8                      9
                      A                      A                      A
 Frequencies --    243.8420               286.9529               320.9639
 Red. masses --      6.0980                 7.1144                 5.2922
 Frc consts  --      0.2136                 0.3452                 0.3212
 IR Inten    --      0.4753                 3.8884                 0.2330

                     10                     11                     12
                      A                      A                      A
 Frequencies --    379.9594               430.3547               432.6984
 Red. masses --      6.2034                11.5213                 3.1286
 Frc consts  --      0.5277                 1.2572                 0.3451
 IR Inten    --      0.3616                 1.0474                 0.5281

                     13                     14                     15
                      A                      A                      A
 Frequencies --    457.2058               517.3606               534.7826
 Red. masses --      3.5350                 8.7447                 3.0965
 Frc consts  --      0.4354                 1.3791                 0.5218
 IR Inten    --     10.2000                 6.5913                 3.9884

                     16                     17                     18
                      A                      A                      A
 Frequencies --    555.5694               569.1045               573.4954
 Red. masses --      8.8366                 3.7418                 7.1498
 Frc consts  --      1.6070                 0.7140                 1.3855
 IR Inten    --      6.5298                 0.1083                 8.2338

                     19                     20                     21
                      A                      A                      A
 Frequencies --    608.4118               647.6248               692.4718
 Red. masses --      7.2816                 6.4219                 6.2642
 Frc consts  --      1.5881                 1.5869                 1.7698
 IR Inten    --     16.0890                 0.0059                 2.2780

                     22                     23                     24
                      A                      A                      A
 Frequencies --    739.9287               753.0894               764.9901
 Red. masses --      6.5222                 2.4101                 1.4541
 Frc consts  --      2.1039                 0.8053                 0.5014
 IR Inten    --     12.2843                17.5963                48.7022

                     25                     26                     27
                      A                      A                      A
 Frequencies --    770.9639               776.1990               779.3393
 Red. masses --      7.8820                 2.5137                 1.7451
 Frc consts  --      2.7603                 0.8923                 0.6245
 IR Inten    --     51.5879                 2.9536                57.8068

                     28                     29                     30
                      A                      A                      A
 Frequencies --    858.3600               876.7013               885.4185
 Red. masses --      6.2989                 1.7328                 1.3793
 Frc consts  --      2.7344                 0.7847                 0.6371
 IR Inten    --     14.1795                 9.0281                 0.5020

                     31                     32                     33
                      A                      A                      A
 Frequencies --    924.6404               962.6867               972.8993
 Red. masses --      6.9477                 1.3448                 1.3632
 Frc consts  --      3.4997                 0.7343                 0.7602
 IR Inten    --      2.4905                 0.4922                 1.8101

                     34                     35                     36
                      A                      A                      A
 Frequencies --   1013.7767              1014.9422              1019.2944
 Red. masses --      1.3076                 1.3060                 7.5861
 Frc consts  --      0.7918                 0.7926                 4.6437
 IR Inten    --      0.3094                 0.0008                 8.1972

                     37                     38                     39
                      A                      A                      A
 Frequencies --   1052.3823              1054.5288              1111.9912
 Red. masses --      1.9972                 1.9701                 3.0245
 Frc consts  --      1.3032                 1.2908                 2.2035
 IR Inten    --      7.5682                 9.4854                 1.3265

                     40                     41                     42
                      A                      A                      A
 Frequencies --   1155.1084              1163.0890              1165.8434
 Red. masses --      1.0581                 1.3410                 1.4285
 Frc consts  --      0.8318                 1.0688                 1.1440
 IR Inten    --     74.6698                12.5742                 3.3444

                     43                     44                     45
                      A                      A                      A
 Frequencies --   1176.5640              1185.0079              1252.4943
 Red. masses --      1.1252                 1.2563                 2.0343
 Frc consts  --      0.9177                 1.0394                 1.8802
 IR Inten    --     71.1638                 3.8533                31.1697

                     46                     47                     48
                      A                      A                      A
 Frequencies --   1288.8262              1320.7020              1327.3439
 Red. masses --      1.6294                 3.4157                 2.8684
 Frc consts  --      1.5946                 3.5103                 2.9775
 IR Inten    --      8.8521               116.6014               272.2676

                     49                     50                     51
                      A                      A                      A
 Frequencies --   1368.8069              1398.1642              1410.8730
 Red. masses --      6.4239                 2.3435                 8.5762
 Frc consts  --      7.0914                 2.6992                10.0582
 IR Inten    --     32.4562                 6.1599                68.7760

                     52                     53                     54
                      A                      A                      A
 Frequencies --   1485.8782              1497.7133              1507.8634
 Red. masses --      2.7431                 2.8027                 2.9918
 Frc consts  --      3.5683                 3.7041                 4.0078
 IR Inten    --     23.0785                11.9736                30.9317

                     55                     56                     57
                      A                      A                      A
 Frequencies --   1568.2080              1582.6742              1617.1171
 Red. masses --      5.1445                 6.4688                 6.6137
 Frc consts  --      7.4542                 9.5467                10.1901
 IR Inten    --   1062.9960               725.4054                80.6694

                     58                     59                     60
                      A                      A                      A
 Frequencies --   1652.9456              1678.8830              1704.0970
 Red. masses --      6.8480                 6.7629                 6.7135
 Frc consts  --     11.0239                11.2311                11.4866
 IR Inten    --      1.6150                 3.8794               258.0171

                     61                     62                     63
                      A                      A                      A
 Frequencies --   2009.1225              3195.4350              3200.8906
 Red. masses --      1.1015                 1.0878                 1.0892
 Frc consts  --      2.6197                 6.5445                 6.5749
 IR Inten    --    299.9107                 1.7774                12.0501

                     64                     65                     66
                      A                      A                      A
 Frequencies --   3211.9955              3221.5621              3223.8723
 Red. masses --      1.0863                 1.0907                 1.0942
 Frc consts  --      6.6032                 6.6695                 6.7003
 IR Inten    --      1.5049                 2.4466                22.1392

                     67                     68                     69
                      A                      A                      A
 Frequencies --   3231.1689              3236.2373              3238.1311
 Red. masses --      1.0958                 1.0981                 1.1000
 Frc consts  --      6.7407                 6.7759                 6.7957
 IR Inten    --      5.6733                17.6649                11.9166

 - Thermochemistry -
 -------------------
 Temperature   298.150 Kelvin.  Pressure   1.00000 Atm.
 Atom     1 has atomic number  6 and mass  12.00000

 Molecular mass:   227.04049 amu.
 Principal axes and moments of inertia in atomic units:
                           1         2         3
     Eigenvalues --  1271.843396231.020947502.86432
           X           -0.70675   0.70746   0.00000
           Y            0.70746   0.70675  -0.00001
           Z            0.00001   0.00000   1.00000
 This molecule is an asymmetric top.
 Rotational symmetry number  1.
 Warning -- assumption of classical behavior for rotation
           may cause significant error
 Rotational temperatures (Kelvin)      0.06810     0.01390     0.01154
 Rotational constants (GHZ):           1.41900     0.28964     0.24054
    1 imaginary frequencies ignored.
 Zero-point vibrational energy     487356.5 (Joules/Mol)
                                  116.48099 (Kcal/Mol)
 Warning -- explicit consideration of  18 degrees of freedom as
           vibrations may cause significant error
 Vibrational temperatures:     82.39    85.31   215.36   217.91   291.21
          (Kelvin)            350.83   412.86   461.80   546.68   619.18
                              622.56   657.82   744.37   769.43   799.34
                              818.81   825.13   875.37   931.79   996.31
                             1064.59  1083.53  1100.65  1109.25  1116.78
                             1121.30  1234.99  1261.38  1273.92  1330.35
                             1385.09  1399.79  1458.60  1460.28  1466.54
                             1514.14  1517.23  1599.91  1661.94  1673.43
                             1677.39  1692.81  1704.96  1802.06  1854.33
                             1900.20  1909.75  1969.41  2011.65  2029.93
                             2137.85  2154.88  2169.48  2256.30  2277.12
                             2326.67  2378.22  2415.54  2451.82  2890.68
                             4597.52  4605.37  4621.35  4635.11  4638.43
                             4648.93  4656.22  4658.95

 Zero-point correction=                           0.185624 (Hartree/Particle)
 Thermal correction to Energy=                    0.196997
 Thermal correction to Enthalpy=                  0.197941
 Thermal correction to Gibbs Free Energy=         0.147470
 Sum of electronic and zero-point Energies=          -1028.622513
 Sum of electronic and thermal Energies=             -1028.611140
 Sum of electronic and thermal Enthalpies=           -1028.610196
 Sum of electronic and thermal Free Energies=        -1028.660667

                     E (Thermal)             CV                S
                      KCal/Mol        Cal/Mol-Kelvin    Cal/Mol-Kelvin
 Total                  123.617             46.557            106.225
 Electronic               0.000              0.000              0.000
 Translational            0.889              2.981             42.162
 Rotational               0.889              2.981             32.453
 Vibrational            121.840             40.596             31.610
 Vibration     1          0.596              1.975              4.549
 Vibration     2          0.597              1.974              4.481
 Vibration     3          0.618              1.903              2.676
 Vibration     4          0.619              1.901              2.654
 Vibration     5          0.639              1.836              2.111
 Vibration     6          0.659              1.773              1.775
 Vibration     7          0.684              1.698              1.492
 Vibration     8          0.706              1.633              1.305
 Vibration     9          0.750              1.513              1.039
 Vibration    10          0.792              1.404              0.857
 Vibration    11          0.794              1.399              0.850
 Vibration    12          0.815              1.345              0.774
 Vibration    13          0.872              1.212              0.616
 Vibration    14          0.890              1.173              0.577
 Vibration    15          0.911              1.128              0.533
 Vibration    16          0.925              1.098              0.506
 Vibration    17          0.930              1.089              0.498
 Vibration    18          0.967              1.014              0.435

 Optimization completed.
    -- Stationary point found.
 Normal termination of Gaussian 16 at Wed Oct 28 01:36:16 2020.
