 Gaussian 16, Revision C.01,
 Gaussian 16:  ES64L-G16RevC.01  3-Jul-2019

 ----------------------------------------------------------------------
 #p opt=addgic freq wb97xd/cc-pvdz nosymm int=ultrafine scrf=(solvent=C
 arbonTetraChloride)
 ----------------------------------------------------------------------

 ------------------------------------------------
 NM 2D-scan of HBT TD-WB97XD pVDZ in CTC Relaxed.
 ------------------------------------------------
 Symbolic Z-matrix:
 Charge =  0 Multiplicity = 1

 SCF Done:  E(RwB97XD) =  -1028.40399586     A.U. after   15 cycles
 SCF Done:  E(RwB97XD) =  -1028.71991620     A.U. after   13 cycles
 SCF Done:  E(RwB97XD) =  -1028.81407749     A.U. after   15 cycles
 SCF Done:  E(RwB97XD) =  -1028.82058762     A.U. after   13 cycles
 SCF Done:  E(RwB97XD) =  -1028.82172523     A.U. after   12 cycles
 SCF Done:  E(RwB97XD) =  -1028.82185673     A.U. after   11 cycles
 SCF Done:  E(RwB97XD) =  -1028.82186108     A.U. after    9 cycles
 Optimization completed.
    -- Stationary point found.
 Normal termination of Gaussian 16 at Tue Oct 27 21:56:09 2020.

 --------------------------------------------------------------------
 #P Geom=AllCheck Guess=TCheck SCRF=Check GenChk RwB97XD/CC-pVDZ Freq
 --------------------------------------------------------------------

 Structure from the checkpoint file:  "config_1_6.chk"
 ------------------------------------------------
 NM 2D-scan of HBT TD-WB97XD pVDZ in CTC Relaxed.
 ------------------------------------------------
 Charge =  0 Multiplicity = 1

                          Input orientation:
 ---------------------------------------------------------------------
 Center     Atomic      Atomic             Coordinates (Angstroms)
 Number     Number       Type             X           Y           Z
 ---------------------------------------------------------------------
      1          6           0        1.708526   -3.333202    0.000027
      2          6           0        0.966473   -2.141052   -0.000027
      3          6           0        1.649552   -0.909092   -0.000071
      4          6           0        3.045500   -0.834289   -0.000072
      5          6           0        3.772182   -2.007632   -0.000026
      6          6           0        3.101132   -3.244069    0.000026
      7          1           0        1.221202   -4.308839    0.000056
      8          1           0        3.518582    0.148152   -0.000108
      9          1           0        4.862619   -1.980565   -0.000027
     10          1           0        3.684841   -4.166253    0.000060
     11          7           0        0.876547    0.219174   -0.000091
     12         16           0       -0.768145   -1.813890   -0.000090
     13          6           0       -1.358811    1.084724   -0.000025
     14          6           0       -2.760738    0.890541   -0.000029
     15          6           0       -0.901614    2.440508    0.000032
     16          6           0       -3.653046    1.949437    0.000020
     17          1           0       -3.149019   -0.131115   -0.000075
     18          6           0       -1.816288    3.499323    0.000091
     19          6           0       -3.173038    3.267645    0.000084
     20          1           0       -4.725801    1.755696    0.000011
     21          1           0       -1.400450    4.507111    0.000144
     22          1           0       -3.867340    4.109649    0.000131
     23          6           0       -0.393908   -0.033736   -0.000065
     24          8           0        0.371842    2.886838    0.000067
     25          1           0        0.976438    2.136152    0.000064
 ---------------------------------------------------------------------

 SCF Done:  E(RwB97XD) =  -1028.82186108     A.U. after    1 cycles

 Alpha  occ. eigenvalues --  -89.08741 -19.28806 -14.46519 -10.39533 -10.37671
 Alpha  occ. eigenvalues --  -10.34993 -10.34411 -10.33089 -10.32444 -10.31931
 Alpha  occ. eigenvalues --  -10.31573 -10.31325 -10.31285 -10.31265 -10.30305
 Alpha  occ. eigenvalues --  -10.29966  -8.10613  -6.05486  -6.05133  -6.04649
 Alpha  occ. eigenvalues --   -1.16710  -1.08771  -0.97126  -0.96024  -0.90950
 Alpha  occ. eigenvalues --   -0.88441  -0.85248  -0.84477  -0.82822  -0.75432
 Alpha  occ. eigenvalues --   -0.71295  -0.70680  -0.69510  -0.67976  -0.62988
 Alpha  occ. eigenvalues --   -0.60031  -0.58551  -0.58310  -0.56389  -0.54458
 Alpha  occ. eigenvalues --   -0.53613  -0.53043  -0.52437  -0.50831  -0.50375
 Alpha  occ. eigenvalues --   -0.49109  -0.47816  -0.45707  -0.45217  -0.44883
 Alpha  occ. eigenvalues --   -0.43736  -0.42957  -0.42453  -0.39567  -0.37351
 Alpha  occ. eigenvalues --   -0.36091  -0.31998  -0.31711  -0.29115
 Alpha virt. eigenvalues --   -0.00379   0.04901   0.06729   0.07172   0.07340
 Alpha virt. eigenvalues --    0.11663   0.12855   0.15125   0.15817   0.17485
 Alpha virt. eigenvalues --    0.18943   0.20122   0.21694   0.22413   0.22877

 Mulliken charges:
               1
     1  C   -0.002716
     2  C   -0.206624
     3  C    0.220442
     4  C   -0.012361
     5  C    0.007913
     6  C   -0.002889
     7  H    0.020780
     8  H    0.014443
     9  H    0.018441
    10  H    0.021105
    11  N   -0.309814
    12  S    0.129033
    13  C   -0.061060
    14  C   -0.016167
    15  C    0.060360
    16  C   -0.005984
    17  H    0.011209
    18  C    0.022040
    19  C    0.018463
    20  H    0.010686
    21  H    0.017460
    22  H    0.018197
    23  C    0.063754
    24  O   -0.186055
    25  H    0.149343
 Sum of Mulliken charges =  -0.00000

 Dipole moment (field-independent basis, Debye):
    X=              0.1615    Y=             -1.8671    Z=              0.0001  Tot=              1.8740
 Quadrupole moment (field-independent basis, Debye-Ang):
   XX=            -82.6080   YY=            -89.6704   ZZ=           -104.3129
   XY=             -6.6543   XZ=              0.0001   YZ=              0.0002

  Exact polarizability:     275.283     -64.859     256.825      -0.000       0.002      63.191
 Approx polarizability:     263.661     -21.951     243.975       0.000       0.001      82.315

                      1                      2                      3
                      A                      A                      A
 Frequencies --     46.5952                51.5089               108.6870
 Red. masses --      6.4423                 5.0749                 5.6533
 Frc consts  --      0.0082                 0.0079                 0.0393
 IR Inten    --      1.0901                 0.0020                 0.8764

                      4                      5                      6
                      A                      A                      A
 Frequencies --    148.4629               199.5634               243.8479
 Red. masses --      4.8354                 5.6495                 5.8561
 Frc consts  --      0.0628                 0.1326                 0.2052
 IR Inten    --      0.0097                 0.2063                 0.2392

                      7                      8                      9
                      A                      A                      A
 Frequencies --    251.1332               283.9813               324.2201
 Red. masses --      8.3463                 6.1848                 4.9289
 Frc consts  --      0.3101                 0.2939                 0.3053
 IR Inten    --      4.6709                 3.8015                 0.8539

                     10                     11                     12
                      A                      A                      A
 Frequencies --    395.5244               440.5002               471.1759
 Red. masses --      8.3344                 3.1729                 3.7034
 Frc consts  --      0.7682                 0.3627                 0.4844
 IR Inten    --      0.2616                 1.6380                11.6266

                     13                     14                     15
                      A                      A                      A
 Frequencies --    486.1722               512.0576               538.8768
 Red. masses --      4.5898                 8.9181                 3.4858
 Frc consts  --      0.6392                 1.3777                 0.5964
 IR Inten    --      2.8623                 0.6099                 2.3854

                     16                     17                     18
                      A                      A                      A
 Frequencies --    545.2281               549.0023               573.3275
 Red. masses --      8.6761                 1.1251                 3.5847
 Frc consts  --      1.5196                 0.1998                 0.6942
 IR Inten    --      3.0681                85.8172                 1.5820

                     19                     20                     21
                      A                      A                      A
 Frequencies --    595.7621               650.6778               673.6778
 Red. masses --      7.7095                 5.1817                 7.4092
 Frc consts  --      1.6122                 1.2926                 1.9812
 IR Inten    --      6.7803                 8.4791                49.3742

                     22                     23                     24
                      A                      A                      A
 Frequencies --    675.4036               716.1645               754.6212
 Red. masses --      7.8128                 7.0615                 1.9554
 Frc consts  --      2.0998                 2.1339                 0.6561
 IR Inten    --      9.5312                 2.1747                22.7331

                     25                     26                     27
                      A                      A                      A
 Frequencies --    764.9611               778.6247               788.2129
 Red. masses --      3.7790                 1.3112                 1.9071
 Frc consts  --      1.3029                 0.4684                 0.6981
 IR Inten    --      7.6365                57.1238                35.4292

                     28                     29                     30
                      A                      A                      A
 Frequencies --    834.4440               885.9796               887.2864
 Red. masses --      6.2069                 1.5194                 1.4485
 Frc consts  --      2.5463                 0.7027                 0.6719
 IR Inten    --     30.5099                 4.3722                 0.2714

                     31                     32                     33
                      A                      A                      A
 Frequencies --    891.8194               966.3527               973.8422
 Red. masses --      6.3593                 7.6291                 1.3550
 Frc consts  --      2.9800                 4.1976                 0.7571
 IR Inten    --      1.7067                75.8264                 1.3295

                     34                     35                     36
                      A                      A                      A
 Frequencies --    975.8825              1011.8166              1014.7304
 Red. masses --      1.3646                 1.3011                 1.3054
 Frc consts  --      0.7657                 0.7848                 0.7919
 IR Inten    --      1.2431                 0.3024                 0.0072

                     37                     38                     39
                      A                      A                      A
 Frequencies --   1049.4373              1070.9858              1090.1787
 Red. masses --      2.0348                 2.0900                 4.7991
 Frc consts  --      1.3203                 1.4124                 3.3605
 IR Inten    --      7.8332                18.5731                 5.9823

                     40                     41                     42
                      A                      A                      A
 Frequencies --   1140.5917              1148.8257              1176.8343
 Red. masses --      1.6315                 1.2667                 1.1150
 Frc consts  --      1.2506                 0.9850                 0.9098
 IR Inten    --     14.1648                 7.1464                53.8661

                     43                     44                     45
                      A                      A                      A
 Frequencies --   1183.0829              1214.4944              1269.4303
 Red. masses --      1.1894                 1.4448                 2.1030
 Frc consts  --      0.9809                 1.2556                 1.9966
 IR Inten    --      0.2413               188.4520                53.7278

                     46                     47                     48
                      A                      A                      A
 Frequencies --   1278.8144              1286.4775              1348.9754
 Red. masses --      1.7435                 4.1671                 2.5003
 Frc consts  --      1.6799                 4.0634                 2.6807
 IR Inten    --      7.0927                30.1671                 9.3073

                     49                     50                     51
                      A                      A                      A
 Frequencies --   1362.3417              1372.9212              1388.3166
 Red. masses --      3.7268                 2.7611                 3.1970
 Frc consts  --      4.0753                 3.0664                 3.6305
 IR Inten    --     13.2023                 1.4656                91.0370

                     52                     53                     54
                      A                      A                      A
 Frequencies --   1488.5486              1495.5814              1514.9060
 Red. masses --      2.6404                 3.0174                 3.3281
 Frc consts  --      3.4470                 3.9765                 4.5000
 IR Inten    --     25.1786                15.4629               111.0468

                     55                     56                     57
                      A                      A                      A
 Frequencies --   1528.1608              1609.3287              1639.2344
 Red. masses --      2.9145                 8.9516                 6.2920
 Frc consts  --      4.0100                13.6597                 9.9614
 IR Inten    --     29.6065               185.9120                27.7080

                     58                     59                     60
                      A                      A                      A
 Frequencies --   1645.5137              1686.0969              1709.8949
 Red. masses --      6.5691                 6.9583                 6.6256
 Frc consts  --     10.4800                11.6551                11.4134
 IR Inten    --     78.8456                 1.1802                73.6025

                     61                     62                     63
                      A                      A                      A
 Frequencies --   3193.8893              3210.4143              3210.6935
 Red. masses --      1.0894                 1.0860                 1.0882
 Frc consts  --      6.5473                 6.5948                 6.6093
 IR Inten    --      4.4008                 0.7314                 5.3079

                     64                     65                     66
                      A                      A                      A
 Frequencies --   3221.0782              3230.2921              3230.4637
 Red. masses --      1.0901                 1.0940                 1.0958
 Frc consts  --      6.6638                 6.7261                 6.7380
 IR Inten    --      3.8961                 9.4448                14.0195

                     67                     68                     69
                      A                      A                      A
 Frequencies --   3237.6974              3237.9165              3794.0390
 Red. masses --      1.0997                 1.1000                 1.0656
 Frc consts  --      6.7917                 6.7947                 9.0375
 IR Inten    --     28.1522                 3.4184               391.2280

 - Thermochemistry -
 -------------------
 Temperature   298.150 Kelvin.  Pressure   1.00000 Atm.
 Atom     1 has atomic number  6 and mass  12.00000

 Molecular mass:   227.04049 amu.
 Principal axes and moments of inertia in atomic units:
                           1         2         3
     Eigenvalues --  1362.045386414.101427776.14680
           X           -0.69050   0.72334  -0.00001
           Y            0.72334   0.69050  -0.00002
           Z            0.00001   0.00002   1.00000
 This molecule is an asymmetric top.
 Rotational symmetry number  1.
 Warning -- assumption of classical behavior for rotation
           may cause significant error
 Rotational temperatures (Kelvin)      0.06359     0.01350     0.01114
 Rotational constants (GHZ):           1.32502     0.28137     0.23209
 Zero-point vibrational energy     498098.6 (Joules/Mol)
                                  119.04842 (Kcal/Mol)
 Warning -- explicit consideration of  19 degrees of freedom as
           vibrations may cause significant error
 Vibrational temperatures:     67.04    74.11   156.38   213.60   287.13
          (Kelvin)            350.84   361.32   408.59   466.48   569.07
                              633.78   677.92   699.49   736.74   775.32
                              784.46   789.89   824.89   857.17   936.18
                              969.27   971.76  1030.40  1085.73  1100.61
                             1120.27  1134.06  1200.58  1274.73  1276.61
                             1283.13  1390.37  1401.14  1404.08  1455.78
                             1459.97  1509.91  1540.91  1568.52  1641.06
                             1652.90  1693.20  1702.19  1747.39  1826.43
                             1839.93  1850.95  1940.87  1960.11  1975.33
                             1997.48  2141.69  2151.81  2179.61  2198.68
                             2315.46  2358.49  2367.53  2425.92  2460.16
                             4595.29  4619.07  4619.47  4634.41  4647.67
                             4647.92  4658.32  4658.64  5458.78

 Zero-point correction=                           0.189716 (Hartree/Particle)
 Thermal correction to Energy=                    0.201706
 Thermal correction to Enthalpy=                  0.202650
 Thermal correction to Gibbs Free Energy=         0.150657
 Sum of electronic and zero-point Energies=          -1028.632145
 Sum of electronic and thermal Energies=             -1028.620155
 Sum of electronic and thermal Enthalpies=           -1028.619211
 Sum of electronic and thermal Free Energies=        -1028.671204

                     E (Thermal)             CV                S
                      KCal/Mol        Cal/Mol-Kelvin    Cal/Mol-Kelvin
 Total                  126.572             48.607            109.428
 Electronic               0.000              0.000              0.000
 Translational            0.889              2.981             42.162
 Rotational               0.889              2.981             32.585
 Vibrational            124.795             42.646             34.681
 Vibration     1          0.595              1.979              4.957
 Vibration     2          0.596              1.977              4.759
 Vibration     3          0.606              1.942              3.292
 Vibration     4          0.618              1.904              2.692
 Vibration     5          0.638              1.840              2.137
 Vibration     6          0.659              1.773              1.775
 Vibration     7          0.663              1.761              1.723
 Vibration     8          0.682              1.703              1.510
 Vibration     9          0.709              1.627              1.289
 Vibration    10          0.762              1.480              0.979
 Vibration    11          0.800              1.382              0.825
 Vibration    12          0.828              1.314              0.734
 Vibration    13          0.842              1.281              0.694
 Vibration    14          0.867              1.223              0.629
 Vibration    15          0.894              1.164              0.568
 Vibration    16          0.900              1.150              0.554
 Vibration    17          0.904              1.142              0.546
 Vibration    18          0.930              1.089              0.498
 Vibration    19          0.954              1.041              0.457

 Optimization completed.
    -- Stationary point found.
 Normal termination of Gaussian 16 at Tue Oct 27 22:02:05 2020.
