 Gaussian 16, Revision C.01,
 Gaussian 16:  ES64L-G16RevC.01  3-Jul-2019

 ----------------------------------------------------------------------
 #p opt=addgic freq wb97xd/cc-pvdz nosymm int=ultrafine scrf=(solvent=C
 arbonTetraChloride)
 ----------------------------------------------------------------------

 ------------------------------------------------
 NM 2D-scan of HBT TD-WB97XD pVDZ in CTC Relaxed.
 ------------------------------------------------
 Symbolic Z-matrix:
 Charge =  0 Multiplicity = 1

 SCF Done:  E(RwB97XD) =  -1028.63952804     A.U. after   15 cycles
 SCF Done:  E(RwB97XD) =  -1028.79274924     A.U. after   13 cycles
 SCF Done:  E(RwB97XD) =  -1028.81406589     A.U. after   15 cycles
 SCF Done:  E(RwB97XD) =  -1028.82881406     A.U. after   13 cycles
 SCF Done:  E(RwB97XD) =  -1028.82993581     A.U. after   12 cycles
 SCF Done:  E(RwB97XD) =  -1028.83005150     A.U. after   11 cycles
 SCF Done:  E(RwB97XD) =  -1028.83006125     A.U. after    9 cycles
 SCF Done:  E(RwB97XD) =  -1028.83006223     A.U. after    8 cycles
 Optimization completed.
    -- Stationary point found.
 Normal termination of Gaussian 16 at Wed Oct 28 00:08:56 2020.

 --------------------------------------------------------------------
 #P Geom=AllCheck Guess=TCheck SCRF=Check GenChk RwB97XD/CC-pVDZ Freq
 --------------------------------------------------------------------

 Structure from the checkpoint file:  "config_1_14.chk"
 ------------------------------------------------
 NM 2D-scan of HBT TD-WB97XD pVDZ in CTC Relaxed.
 ------------------------------------------------
 Charge =  0 Multiplicity = 1

                          Input orientation:
 ---------------------------------------------------------------------
 Center     Atomic      Atomic             Coordinates (Angstroms)
 Number     Number       Type             X           Y           Z
 ---------------------------------------------------------------------
      1          6           0        1.591580   -3.315102   -0.000020
      2          6           0        0.971881   -2.061956   -0.000011
      3          6           0        1.727332   -0.872739   -0.000010
      4          6           0        3.126320   -0.931239   -0.000018
      5          6           0        3.742733   -2.172753   -0.000028
      6          6           0        2.981488   -3.354103   -0.000029
      7          1           0        1.006009   -4.234932   -0.000021
      8          1           0        3.701281   -0.004630   -0.000018
      9          1           0        4.831884   -2.235442   -0.000035
     10          1           0        3.488078   -4.320481   -0.000036
     11          7           0        0.989859    0.297003   -0.000001
     12         16           0       -0.729668   -1.661360    0.000001
     13          6           0       -1.304991    1.119404    0.000013
     14          6           0       -2.678903    0.805389    0.000009
     15          6           0       -0.928602    2.487630    0.000030
     16          6           0       -3.651123    1.789005    0.000024
     17          1           0       -2.984993   -0.243359   -0.000006
     18          6           0       -1.921551    3.477308    0.000047
     19          6           0       -3.261698    3.135229    0.000044
     20          1           0       -4.706545    1.516867    0.000021
     21          1           0       -1.596787    4.518310    0.000061
     22          1           0       -4.016950    3.923229    0.000057
     23          6           0       -0.290628    0.062403    0.000003
     24          8           0        0.339546    2.927116    0.000030
     25          1           0        0.934463    2.152209    0.000013
 ---------------------------------------------------------------------

 SCF Done:  E(RwB97XD) =  -1028.83006223     A.U. after    1 cycles

 Alpha  occ. eigenvalues --  -89.08447 -19.28831 -14.46852 -10.39323 -10.37614
 Alpha  occ. eigenvalues --  -10.34729 -10.34682 -10.32584 -10.32237 -10.31928
 Alpha  occ. eigenvalues --  -10.31504 -10.31467 -10.31461 -10.31325 -10.30365
 Alpha  occ. eigenvalues --  -10.30230  -8.10465  -6.05319  -6.04966  -6.04513
 Alpha  occ. eigenvalues --   -1.16829  -1.08683  -0.97246  -0.96198  -0.91407
 Alpha  occ. eigenvalues --   -0.88522  -0.85384  -0.84668  -0.82796  -0.75438
 Alpha  occ. eigenvalues --   -0.71489  -0.70666  -0.69415  -0.68141  -0.63165
 Alpha  occ. eigenvalues --   -0.60256  -0.58686  -0.58465  -0.56552  -0.54533
 Alpha  occ. eigenvalues --   -0.53790  -0.53095  -0.52823  -0.50728  -0.50494
 Alpha  occ. eigenvalues --   -0.49111  -0.47844  -0.45818  -0.45373  -0.44987
 Alpha  occ. eigenvalues --   -0.43950  -0.43071  -0.42376  -0.39625  -0.37502
 Alpha  occ. eigenvalues --   -0.36169  -0.31966  -0.31768  -0.29233
 Alpha virt. eigenvalues --   -0.00405   0.04944   0.06732   0.07100   0.07851
 Alpha virt. eigenvalues --    0.11587   0.14080   0.15213   0.16530   0.17963
 Alpha virt. eigenvalues --    0.18828   0.20432   0.21590   0.22495   0.22702

 Mulliken charges:
               1
     1  C    0.007677
     2  C   -0.204931
     3  C    0.207137
     4  C   -0.015411
     5  C    0.005336
     6  C   -0.000409
     7  H    0.018429
     8  H    0.015869
     9  H    0.018756
    10  H    0.020846
    11  N   -0.332978
    12  S    0.135687
    13  C   -0.041452
    14  C   -0.027508
    15  C    0.054279
    16  C   -0.003340
    17  H    0.018394
    18  C    0.015441
    19  C    0.020288
    20  H    0.010430
    21  H    0.017976
    22  H    0.019048
    23  C    0.075706
    24  O   -0.190836
    25  H    0.155564
 Sum of Mulliken charges =  -0.00000

 Dipole moment (field-independent basis, Debye):
    X=             -0.1566    Y=             -2.1342    Z=             -0.0000  Tot=              2.1400
 Quadrupole moment (field-independent basis, Debye-Ang):
   XX=            -82.6946   YY=            -89.8303   ZZ=           -104.1635
   XY=             -6.9272   XZ=             -0.0001   YZ=              0.0001

  Exact polarizability:     273.639     -66.213     254.979      -0.001       0.002      62.986
 Approx polarizability:     262.009     -22.513     242.542      -0.001       0.001      82.173

                      1                      2                      3
                      A                      A                      A
 Frequencies --     48.9533                60.7607               113.2712
 Red. masses --      6.2656                 5.0284                 5.6514
 Frc consts  --      0.0088                 0.0109                 0.0427
 IR Inten    --      0.5475                 0.5319                 1.1692

                      4                      5                      6
                      A                      A                      A
 Frequencies --    150.6770               198.7139               246.3696
 Red. masses --      4.9797                 5.9451                 5.6853
 Frc consts  --      0.0666                 0.1383                 0.2033
 IR Inten    --      0.0002                 0.6437                 0.0198

                      7                      8                      9
                      A                      A                      A
 Frequencies --    258.9565               290.5019               328.2993
 Red. masses --      8.0256                 6.2450                 5.0585
 Frc consts  --      0.3171                 0.3105                 0.3212
 IR Inten    --      4.0084                 5.0394                 0.1824

                     10                     11                     12
                      A                      A                      A
 Frequencies --    407.4619               439.2908               470.3147
 Red. masses --      8.6819                 3.1422                 3.7305
 Frc consts  --      0.8493                 0.3573                 0.4862
 IR Inten    --      0.2418                 1.9298                 8.2282

                     13                     14                     15
                      A                      A                      A
 Frequencies --    501.6482               515.8234               537.7132
 Red. masses --      4.8204                 8.6928                 3.4335
 Frc consts  --      0.7147                 1.3627                 0.5849
 IR Inten    --      5.6600                 0.1316                 3.9204

                     16                     17                     18
                      A                      A                      A
 Frequencies --    547.1380               575.2425               592.6975
 Red. masses --      8.4959                 3.7478                 7.7234
 Frc consts  --      1.4985                 0.7307                 1.5985
 IR Inten    --      2.2540                 0.0098                 6.5236

                     19                     20                     21
                      A                      A                      A
 Frequencies --    639.9557               675.7777               692.7490
 Red. masses --      3.5096                 6.6833                 1.2549
 Frc consts  --      0.8468                 1.7982                 0.3548
 IR Inten    --      9.1993                 2.9501                83.1171

                     22                     23                     24
                      A                      A                      A
 Frequencies --    711.7884               728.4849               756.3395
 Red. masses --      8.6237                 7.4969                 1.9058
 Frc consts  --      2.5742                 2.3441                 0.6423
 IR Inten    --     41.8090                 1.1472                25.0267

                     25                     26                     27
                      A                      A                      A
 Frequencies --    768.6635               778.4174               788.6979
 Red. masses --      3.2677                 1.3493                 1.9763
 Frc consts  --      1.1375                 0.4817                 0.7243
 IR Inten    --     19.8183                39.8081                41.3605

                     28                     29                     30
                      A                      A                      A
 Frequencies --    843.7307               884.6642               888.3281
 Red. masses --      6.0096                 1.5410                 1.4268
 Frc consts  --      2.5206                 0.7106                 0.6634
 IR Inten    --     22.8054                 3.9608                 0.7648

                     31                     32                     33
                      A                      A                      A
 Frequencies --    888.5106               971.2186               976.4590
 Red. masses --      6.4550                 1.3597                 1.3661
 Frc consts  --      3.0024                 0.7556                 0.7675
 IR Inten    --      4.2077                 1.1053                 1.5602

                     34                     35                     36
                      A                      A                      A
 Frequencies --    984.6514              1011.9637              1015.3722
 Red. masses --      7.7012                 1.3034                 1.3048
 Frc consts  --      4.3992                 0.7864                 0.7926
 IR Inten    --     62.2281                 0.3585                 0.0180

                     37                     38                     39
                      A                      A                      A
 Frequencies --   1051.6653              1071.9254              1100.9135
 Red. masses --      2.0001                 1.9867                 4.1256
 Frc consts  --      1.3033                 1.3449                 2.9461
 IR Inten    --      8.3917                13.3930                 6.1354

                     40                     41                     42
                      A                      A                      A
 Frequencies --   1150.2630              1153.3870              1177.6438
 Red. masses --      1.5066                 1.3241                 1.1298
 Frc consts  --      1.1744                 1.0378                 0.9231
 IR Inten    --      3.5239                 4.2693                43.4614

                     43                     44                     45
                      A                      A                      A
 Frequencies --   1184.7255              1237.4676              1277.6729
 Red. masses --      1.2189                 1.7615                 2.1866
 Frc consts  --      1.0080                 1.5892                 2.1031
 IR Inten    --      0.0653               165.7985                80.3336

                     46                     47                     48
                      A                      A                      A
 Frequencies --   1283.4662              1322.0976              1338.2659
 Red. masses --      1.6014                 5.0253                 2.9497
 Frc consts  --      1.5543                 5.1754                 3.1125
 IR Inten    --      7.8118                38.5772                 3.1586

                     49                     50                     51
                      A                      A                      A
 Frequencies --   1368.1507              1376.9722              1426.0413
 Red. masses --      7.6557                 3.2092                 1.7152
 Frc consts  --      8.4431                 3.5851                 2.0551
 IR Inten    --     16.3850                 8.6829                75.3727

                     52                     53                     54
                      A                      A                      A
 Frequencies --   1487.3721              1502.9013              1520.5150
 Red. masses --      2.6362                 2.8635                 3.2632
 Frc consts  --      3.4361                 3.8107                 4.4450
 IR Inten    --     38.7841                 4.5929                52.9868

                     55                     56                     57
                      A                      A                      A
 Frequencies --   1535.1166              1599.8407              1643.5378
 Red. masses --      2.7964                 8.6225                 6.7045
 Frc consts  --      3.8827                13.0028                10.6703
 IR Inten    --    138.4232               194.0851                 7.0724

                     58                     59                     60
                      A                      A                      A
 Frequencies --   1657.0698              1681.9058              1709.0960
 Red. masses --      5.5231                 6.9239                 6.3197
 Frc consts  --      8.9353                11.5400                10.8763
 IR Inten    --    110.2872                 3.5066               100.5472

                     61                     62                     63
                      A                      A                      A
 Frequencies --   3202.4944              3211.3130              3214.1261
 Red. masses --      1.0883                 1.0861                 1.0887
 Frc consts  --      6.5762                 6.5989                 6.6262
 IR Inten    --      3.5955                 1.2909                 6.4391

                     64                     65                     66
                      A                      A                      A
 Frequencies --   3222.8127              3231.6470              3233.5967
 Red. masses --      1.0905                 1.0942                 1.0959
 Frc consts  --      6.6737                 6.7326                 6.7514
 IR Inten    --      5.5517                10.4516                11.7370

                     67                     68                     69
                      A                      A                      A
 Frequencies --   3239.2707              3239.4412              3572.5788
 Red. masses --      1.0995                 1.0995                 1.0668
 Frc consts  --      6.7975                 6.7982                 8.0221
 IR Inten    --     29.9667                 0.0808               525.8942

 - Thermochemistry -
 -------------------
 Temperature   298.150 Kelvin.  Pressure   1.00000 Atm.
 Atom     1 has atomic number  6 and mass  12.00000

 Molecular mass:   227.04049 amu.
 Principal axes and moments of inertia in atomic units:
                           1         2         3
     Eigenvalues --  1316.648416389.403277706.05168
           X           -0.69439   0.71959   0.00000
           Y            0.71959   0.69439  -0.00001
           Z            0.00001   0.00000   1.00000
 This molecule is an asymmetric top.
 Rotational symmetry number  1.
 Warning -- assumption of classical behavior for rotation
           may cause significant error
 Rotational temperatures (Kelvin)      0.06578     0.01356     0.01124
 Rotational constants (GHZ):           1.37071     0.28246     0.23420
 Zero-point vibrational energy     499530.0 (Joules/Mol)
                                  119.39054 (Kcal/Mol)
 Warning -- explicit consideration of  18 degrees of freedom as
           vibrations may cause significant error
 Vibrational temperatures:     70.43    87.42   162.97   216.79   285.90
          (Kelvin)            354.47   372.58   417.97   472.35   586.25
                              632.04   676.68   721.76   742.15   773.65
                              787.21   827.65   852.76   920.75   972.29
                              996.71  1024.10  1048.13  1088.20  1105.94
                             1119.97  1134.76  1213.94  1272.83  1278.11
                             1278.37  1397.37  1404.91  1416.69  1455.99
                             1460.89  1513.11  1542.26  1583.97  1654.97
                             1659.47  1694.37  1704.56  1780.44  1838.29
                             1846.62  1902.20  1925.47  1968.46  1981.16
                             2051.76  2140.00  2162.34  2187.68  2208.69
                             2301.81  2364.68  2384.15  2419.89  2459.01
                             4607.68  4620.36  4624.41  4636.91  4649.62
                             4652.42  4660.59  4660.83  5140.14

 Zero-point correction=                           0.190261 (Hartree/Particle)
 Thermal correction to Energy=                    0.202060
 Thermal correction to Enthalpy=                  0.203005
 Thermal correction to Gibbs Free Energy=         0.151534
 Sum of electronic and zero-point Energies=          -1028.639801
 Sum of electronic and thermal Energies=             -1028.628002
 Sum of electronic and thermal Enthalpies=           -1028.627058
 Sum of electronic and thermal Free Energies=        -1028.678528

                     E (Thermal)             CV                S
                      KCal/Mol        Cal/Mol-Kelvin    Cal/Mol-Kelvin
 Total                  126.795             48.004            108.328
 Electronic               0.000              0.000              0.000
 Translational            0.889              2.981             42.162
 Rotational               0.889              2.981             32.539
 Vibrational            125.017             42.042             33.627
 Vibration     1          0.595              1.978              4.859
 Vibration     2          0.597              1.973              4.432
 Vibration     3          0.607              1.938              3.212
 Vibration     4          0.618              1.902              2.664
 Vibration     5          0.637              1.842              2.145
 Vibration     6          0.661              1.769              1.756
 Vibration     7          0.668              1.748              1.669
 Vibration     8          0.686              1.691              1.471
 Vibration     9          0.712              1.619              1.268
 Vibration    10          0.772              1.454              0.936
 Vibration    11          0.799              1.385              0.829
 Vibration    12          0.827              1.316              0.737
 Vibration    13          0.857              1.246              0.654
 Vibration    14          0.871              1.215              0.620
 Vibration    15          0.893              1.167              0.570
 Vibration    16          0.902              1.146              0.550
 Vibration    17          0.932              1.085              0.494
 Vibration    18          0.950              1.047              0.462

 Optimization completed.
    -- Stationary point found.
 Normal termination of Gaussian 16 at Wed Oct 28 00:14:52 2020.
