 Gaussian 16, Revision C.01,
 Gaussian 16:  ES64L-G16RevC.01  3-Jul-2019

 ----------------------------------------------------------------------
 #p opt=addgic freq wb97xd/cc-pvdz nosymm int=ultrafine scrf=(solvent=C
 arbonTetraChloride)
 ----------------------------------------------------------------------

 ------------------------------------------------
 NM 2D-scan of HBT TD-WB97XD pVDZ in CTC Relaxed.
 ------------------------------------------------
 Symbolic Z-matrix:
 Charge =  0 Multiplicity = 1

 SCF Done:  E(RwB97XD) =  -1028.47082452     A.U. after   16 cycles
 SCF Done:  E(RwB97XD) =  -1028.69852620     A.U. after   14 cycles
 SCF Done:  E(RwB97XD) =  -1028.77645328     A.U. after   15 cycles
 SCF Done:  E(RwB97XD) =  -1028.79037457     A.U. after   13 cycles
 SCF Done:  E(RwB97XD) =  -1028.79220962     A.U. after   12 cycles
 SCF Done:  E(RwB97XD) =  -1028.79254068     A.U. after   12 cycles
 SCF Done:  E(RwB97XD) =  -1028.79257237     A.U. after   10 cycles
 SCF Done:  E(RwB97XD) =  -1028.79257462     A.U. after    9 cycles
 Optimization completed.
    -- Stationary point found.
 Normal termination of Gaussian 16 at Wed Oct 28 00:20:42 2020.

 --------------------------------------------------------------------
 #P Geom=AllCheck Guess=TCheck SCRF=Check GenChk RwB97XD/CC-pVDZ Freq
 --------------------------------------------------------------------

 Structure from the checkpoint file:  "config_12_13.chk"
 ------------------------------------------------
 NM 2D-scan of HBT TD-WB97XD pVDZ in CTC Relaxed.
 ------------------------------------------------
 Charge =  0 Multiplicity = 1

                          Input orientation:
 ---------------------------------------------------------------------
 Center     Atomic      Atomic             Coordinates (Angstroms)
 Number     Number       Type             X           Y           Z
 ---------------------------------------------------------------------
      1          6           0        1.610211   -3.283830    0.000029
      2          6           0        1.007305   -2.033080    0.000018
      3          6           0        1.769484   -0.884220   -0.000025
      4          6           0        3.163190   -0.918978   -0.000047
      5          6           0        3.768203   -2.174960   -0.000030
      6          6           0        3.001526   -3.343524    0.000004
      7          1           0        1.010854   -4.193779    0.000053
      8          1           0        3.754776   -0.002110   -0.000076
      9          1           0        4.856879   -2.240541   -0.000047
     10          1           0        3.496737   -4.314783    0.000010
     11          7           0        0.946773    0.231859   -0.000056
     12         16           0       -0.714309   -1.618685    0.000040
     13          6           0       -1.365418    1.117924   -0.000019
     14          6           0       -2.750189    0.818879   -0.000046
     15          6           0       -0.871661    2.494026    0.000046
     16          6           0       -3.700739    1.813358   -0.000005
     17          1           0       -3.071344   -0.227188   -0.000105
     18          6           0       -1.944694    3.502392    0.000104
     19          6           0       -3.275894    3.169524    0.000077
     20          1           0       -4.762017    1.563248   -0.000030
     21          1           0       -1.634007    4.549299    0.000168
     22          1           0       -4.031656    3.959645    0.000119
     23          6           0       -0.396203    0.087136   -0.000025
     24          8           0        0.340829    2.728250    0.000062
     25          1           0        1.521076    1.032253   -0.000133
 ---------------------------------------------------------------------

 SCF Done:  E(RwB97XD) =  -1028.79257462     A.U. after    1 cycles

 Alpha  occ. eigenvalues --  -89.09839 -19.20987 -14.52205 -10.41806 -10.36897
 Alpha  occ. eigenvalues --  -10.35902 -10.35724 -10.33300 -10.33195 -10.32705
 Alpha  occ. eigenvalues --  -10.32321 -10.31056 -10.30633 -10.30296 -10.29046
 Alpha  occ. eigenvalues --  -10.28570  -8.11904  -6.06794  -6.06393  -6.05906
 Alpha  occ. eigenvalues --   -1.13148  -1.10214  -0.98665  -0.95529  -0.93306
 Alpha  occ. eigenvalues --   -0.89172  -0.86641  -0.83968  -0.81532  -0.75585
 Alpha  occ. eigenvalues --   -0.74420  -0.71763  -0.69529  -0.67770  -0.64286
 Alpha  occ. eigenvalues --   -0.60903  -0.59781  -0.56618  -0.56013  -0.55998
 Alpha  occ. eigenvalues --   -0.55017  -0.53624  -0.52928  -0.50158  -0.49301
 Alpha  occ. eigenvalues --   -0.49004  -0.48246  -0.46707  -0.45661  -0.44704
 Alpha  occ. eigenvalues --   -0.44513  -0.42857  -0.41796  -0.40358  -0.36945
 Alpha  occ. eigenvalues --   -0.33621  -0.31692  -0.31062  -0.26004
 Alpha virt. eigenvalues --   -0.01339   0.03720   0.05929   0.06989   0.09685
 Alpha virt. eigenvalues --    0.11329   0.13538   0.14573   0.15889   0.16618
 Alpha virt. eigenvalues --    0.18034   0.19743   0.21030   0.21621   0.22902

 Mulliken charges:
               1
     1  C    0.012877
     2  C   -0.238731
     3  C    0.203682
     4  C   -0.014630
     5  C    0.010824
     6  C    0.004401
     7  H    0.023868
     8  H    0.031484
     9  H    0.027873
    10  H    0.026103
    11  N   -0.092404
    12  S    0.177375
    13  C   -0.097774
    14  C   -0.014552
    15  C    0.099917
    16  C   -0.035444
    17  H    0.007485
    18  C   -0.048239
    19  C    0.029123
    20  H    0.001942
    21  H    0.000953
    22  H    0.013786
    23  C    0.107643
    24  O   -0.353986
    25  H    0.116424
 Sum of Mulliken charges =  -0.00000

 Dipole moment (field-independent basis, Debye):
    X=              2.3197    Y=             -5.3616    Z=             -0.0002  Tot=              5.8419
 Quadrupole moment (field-independent basis, Debye-Ang):
   XX=            -81.0013   YY=            -95.7973   ZZ=           -103.9869
   XY=             -6.4566   XZ=             -0.0005   YZ=             -0.0003

  Exact polarizability:     291.937     -92.705     289.713      -0.002       0.002      62.915
 Approx polarizability:     268.573     -36.220     254.814      -0.001       0.001      81.908

 ******    1 imaginary frequencies (negative Signs) ******

                      1                      2                      3
                      A                      A                      A
 Frequencies --    -88.6398                53.2076                69.5689
 Red. masses --      2.6070                 5.5865                 6.1475
 Frc consts  --      0.0121                 0.0093                 0.0175
 IR Inten    --     15.6780                 0.0002                 2.1072

                      4                      5                      6
                      A                      A                      A
 Frequencies --    108.5598               185.9408               206.9431
 Red. masses --      5.7003                 4.5994                 4.2676
 Frc consts  --      0.0396                 0.0937                 0.1077
 IR Inten    --      0.9241                 3.8616                17.4034

                      7                      8                      9
                      A                      A                      A
 Frequencies --    266.4479               268.8527               298.0744
 Red. masses --      7.7747                 2.2136                 7.5093
 Frc consts  --      0.3252                 0.0943                 0.3931
 IR Inten    --      3.7969                28.5307                 3.7727

                     10                     11                     12
                      A                      A                      A
 Frequencies --    335.4010               387.8282               431.5942
 Red. masses --      2.8943                 7.6850                 2.9162
 Frc consts  --      0.1918                 0.6810                 0.3201
 IR Inten    --     19.2996                 3.9073                 4.1034

                     13                     14                     15
                      A                      A                      A
 Frequencies --    441.1586               503.0635               520.3535
 Red. masses --      3.4775                 7.9727                 2.6548
 Frc consts  --      0.3988                 1.1888                 0.4235
 IR Inten    --      7.3736                 9.5831                 3.1307

                     16                     17                     18
                      A                      A                      A
 Frequencies --    532.7392               545.1010               563.1674
 Red. masses --      7.1239                 7.4198                 3.7957
 Frc consts  --      1.1912                 1.2990                 0.7093
 IR Inten    --      4.7785                11.6971                 0.0045

                     19                     20                     21
                      A                      A                      A
 Frequencies --    579.8348               628.3002               659.3087
 Red. masses --      7.4542                 6.8886                 6.4296
 Frc consts  --      1.4766                 1.6022                 1.6467
 IR Inten    --     40.3470                 0.8127                 0.3419

                     22                     23                     24
                      A                      A                      A
 Frequencies --    703.4866               740.1392               749.9549
 Red. masses --      5.5155                 7.2083                 2.5781
 Frc consts  --      1.6082                 2.3265                 0.8543
 IR Inten    --     54.6996                38.1471                12.3328

                     25                     26                     27
                      A                      A                      A
 Frequencies --    758.0741               774.4294               779.0472
 Red. masses --      1.4270                 1.5840                 2.4007
 Frc consts  --      0.4832                 0.5597                 0.8585
 IR Inten    --     47.5941                52.6186                18.6075

                     28                     29                     30
                      A                      A                      A
 Frequencies --    827.5186               874.7557               878.9303
 Red. masses --      6.2222                 2.0819                 1.3792
 Frc consts  --      2.5104                 0.9386                 0.6278
 IR Inten    --     26.5546                15.0834                 0.9596

                     31                     32                     33
                      A                      A                      A
 Frequencies --    898.3719               965.8784               969.0633
 Red. masses --      5.9894                 1.3234                 1.3601
 Frc consts  --      2.8481                 0.7274                 0.7525
 IR Inten    --      2.3712                 0.1105                 1.5048

                     34                     35                     36
                      A                      A                      A
 Frequencies --    977.4635              1013.1856              1016.7795
 Red. masses --      4.5351                 1.3027                 1.3068
 Frc consts  --      2.5529                 0.7879                 0.7960
 IR Inten    --     21.5182                 0.0032                 0.3165

                     37                     38                     39
                      A                      A                      A
 Frequencies --   1044.3425              1059.6648              1097.3526
 Red. masses --      2.0903                 2.1119                 3.8165
 Frc consts  --      1.3432                 1.3972                 2.7078
 IR Inten    --      8.6060                12.8149                 1.7127

                     40                     41                     42
                      A                      A                      A
 Frequencies --   1112.4761              1157.3904              1159.9429
 Red. masses --      1.7677                 1.3454                 1.2311
 Frc consts  --      1.2890                 1.0619                 0.9759
 IR Inten    --     48.8561                 4.4564                56.7600

                     43                     44                     45
                      A                      A                      A
 Frequencies --   1181.1374              1190.2984              1222.8395
 Red. masses --      1.1594                 1.1736                 2.4123
 Frc consts  --      0.9530                 0.9797                 2.1253
 IR Inten    --     41.0738                10.5321                60.9014

                     46                     47                     48
                      A                      A                      A
 Frequencies --   1276.0676              1306.2975              1354.8978
 Red. masses --      2.1873                 1.7115                 2.5942
 Frc consts  --      2.0985                 1.7207                 2.8059
 IR Inten    --     90.8016               127.1520                37.2811

                     49                     50                     51
                      A                      A                      A
 Frequencies --   1384.2839              1397.1998              1411.2676
 Red. masses --      4.8856                 6.1833                 2.1948
 Frc consts  --      5.5159                 7.1120                 2.5756
 IR Inten    --    124.2545                75.4325                10.1010

                     52                     53                     54
                      A                      A                      A
 Frequencies --   1488.4777              1503.6957              1529.5212
 Red. masses --      3.2080                 3.1378                 3.9593
 Frc consts  --      4.1877                 4.1802                 5.4574
 IR Inten    --    403.4897               936.0423              1292.5612

                     55                     56                     57
                      A                      A                      A
 Frequencies --   1538.3554              1589.5989              1654.2290
 Red. masses --      3.1088                 6.7743                 5.8740
 Frc consts  --      4.3347                10.0854                 9.4705
 IR Inten    --     16.2550                34.5594                68.9173

                     58                     59                     60
                      A                      A                      A
 Frequencies --   1678.7616              1710.4503              1749.1634
 Red. masses --      7.0900                 7.9015                10.0005
 Frc consts  --     11.7726                13.6202                18.0273
 IR Inten    --     28.3139                17.7176               463.0927

                     61                     62                     63
                      A                      A                      A
 Frequencies --   3180.0456              3192.5779              3216.3605
 Red. masses --      1.0890                 1.0876                 1.0872
 Frc consts  --      6.4888                 6.5315                 6.6266
 IR Inten    --      3.9779                14.0866                 1.6505

                     64                     65                     66
                      A                      A                      A
 Frequencies --   3217.0552              3225.6105              3229.5723
 Red. masses --      1.0941                 1.0913                 1.0973
 Frc consts  --      6.6713                 6.6899                 6.7429
 IR Inten    --     32.7998                 1.2531                20.8011

                     67                     68                     69
                      A                      A                      A
 Frequencies --   3235.0178              3244.7160              3979.9436
 Red. masses --      1.0956                 1.0991                 1.0779
 Frc consts  --      6.7553                 6.8178                10.0601
 IR Inten    --      4.7878                12.3833               128.0581

 - Thermochemistry -
 -------------------
 Temperature   298.150 Kelvin.  Pressure   1.00000 Atm.
 Atom     1 has atomic number  6 and mass  12.00000

 Molecular mass:   227.04049 amu.
 Principal axes and moments of inertia in atomic units:
                           1         2         3
     Eigenvalues --  1268.892596436.260967705.15355
           X           -0.70663   0.70758   0.00000
           Y            0.70758   0.70663  -0.00001
           Z            0.00001   0.00000   1.00000
 This molecule is an asymmetric top.
 Rotational symmetry number  1.
 Warning -- assumption of classical behavior for rotation
           may cause significant error
 Rotational temperatures (Kelvin)      0.06826     0.01346     0.01124
 Rotational constants (GHZ):           1.42230     0.28040     0.23423
    1 imaginary frequencies ignored.
 Zero-point vibrational energy     496636.5 (Joules/Mol)
                                  118.69897 (Kcal/Mol)
 Warning -- explicit consideration of  18 degrees of freedom as
           vibrations may cause significant error
 Vibrational temperatures:     76.55   100.09   156.19   267.53   297.74
          (Kelvin)            383.36   386.82   428.86   482.57   558.00
                              620.97   634.73   723.80   748.67   766.49
                              784.28   810.27   834.25   903.98   948.60
                             1012.16  1064.90  1079.02  1090.70  1114.23
                             1120.88  1190.61  1258.58  1264.58  1292.56
                             1389.68  1394.27  1406.35  1457.75  1462.92
                             1502.58  1524.62  1578.85  1600.61  1665.23
                             1668.90  1699.39  1712.57  1759.39  1835.98
                             1879.47  1949.40  1991.68  2010.26  2030.50
                             2141.59  2163.48  2200.64  2213.35  2287.08
                             2380.07  2415.36  2460.96  2516.66  4575.38
                             4593.41  4627.63  4628.62  4640.93  4646.63
                             4654.47  4668.42  5726.25

 Zero-point correction=                           0.189159 (Hartree/Particle)
 Thermal correction to Energy=                    0.200802
 Thermal correction to Enthalpy=                  0.201746
 Thermal correction to Gibbs Free Energy=         0.150795
 Sum of electronic and zero-point Energies=          -1028.603416
 Sum of electronic and thermal Energies=             -1028.591773
 Sum of electronic and thermal Enthalpies=           -1028.590828
 Sum of electronic and thermal Free Energies=        -1028.641779

                     E (Thermal)             CV                S
                      KCal/Mol        Cal/Mol-Kelvin    Cal/Mol-Kelvin
 Total                  126.005             47.472            107.236
 Electronic               0.000              0.000              0.000
 Translational            0.889              2.981             42.162
 Rotational               0.889              2.981             32.509
 Vibrational            124.228             41.510             32.564
 Vibration     1          0.596              1.976              4.694
 Vibration     2          0.598              1.969              4.166
 Vibration     3          0.606              1.942              3.295
 Vibration     4          0.632              1.859              2.268
 Vibration     5          0.641              1.830              2.070
 Vibration     6          0.672              1.735              1.619
 Vibration     7          0.673              1.730              1.604
 Vibration     8          0.691              1.677              1.428
 Vibration     9          0.717              1.605              1.234
 Vibration    10          0.756              1.496              1.008
 Vibration    11          0.793              1.401              0.853
 Vibration    12          0.801              1.380              0.823
 Vibration    13          0.858              1.243              0.651
 Vibration    14          0.875              1.205              0.609
 Vibration    15          0.888              1.178              0.581
 Vibration    16          0.900              1.150              0.554
 Vibration    17          0.919              1.111              0.518
 Vibration    18          0.936              1.075              0.486

 Optimization completed.
    -- Stationary point found.
 Normal termination of Gaussian 16 at Wed Oct 28 00:27:00 2020.
