 Gaussian 16, Revision C.01,
 Gaussian 16:  ES64L-G16RevC.01  3-Jul-2019

 ----------------------------------------------------------------------
 #p opt=addgic freq wb97xd/cc-pvdz nosymm int=ultrafine scrf=(solvent=C
 arbonTetraChloride)
 ----------------------------------------------------------------------

 ------------------------------------------------
 NM 2D-scan of HBT TD-WB97XD pVDZ in CTC Relaxed.
 ------------------------------------------------
 Symbolic Z-matrix:
 Charge =  0 Multiplicity = 1

 SCF Done:  E(RwB97XD) =  -1028.80198364     A.U. after   15 cycles
 SCF Done:  E(RwB97XD) =  -1028.81170307     A.U. after   13 cycles
 SCF Done:  E(RwB97XD) =  -1028.81212439     A.U. after   13 cycles
 SCF Done:  E(RwB97XD) =  -1028.81303265     A.U. after   12 cycles
 SCF Done:  E(RwB97XD) =  -1028.81307299     A.U. after   11 cycles
 SCF Done:  E(RwB97XD) =  -1028.81307442     A.U. after    9 cycles
 Optimization completed.
    -- Stationary point found.
 Normal termination of Gaussian 16 at Tue Oct 27 22:09:01 2020.

 --------------------------------------------------------------------
 #P Geom=AllCheck Guess=TCheck SCRF=Check GenChk RwB97XD/CC-pVDZ Freq
 --------------------------------------------------------------------

 Structure from the checkpoint file:  "config_9_7.chk"
 ------------------------------------------------
 NM 2D-scan of HBT TD-WB97XD pVDZ in CTC Relaxed.
 ------------------------------------------------
 Charge =  0 Multiplicity = 1

                          Input orientation:
 ---------------------------------------------------------------------
 Center     Atomic      Atomic             Coordinates (Angstroms)
 Number     Number       Type             X           Y           Z
 ---------------------------------------------------------------------
      1          6           0        1.676222   -3.265291   -0.000030
      2          6           0        1.000300   -2.046409   -0.000018
      3          6           0        1.707042   -0.839509   -0.000010
      4          6           0        3.101700   -0.813538   -0.000012
      5          6           0        3.772829   -2.030070   -0.000024
      6          6           0        3.068888   -3.241986   -0.000033
      7          1           0        1.132966   -4.210440   -0.000037
      8          1           0        3.635771    0.136770   -0.000006
      9          1           0        4.863441   -2.040192   -0.000026
     10          1           0        3.617649   -4.184450   -0.000043
     11          7           0        0.861612    0.248354   -0.000002
     12         16           0       -0.740171   -1.733131   -0.000012
     13          6           0       -1.381737    1.065057    0.000011
     14          6           0       -2.785036    0.854362    0.000008
     15          6           0       -0.831264    2.415749    0.000029
     16          6           0       -3.662651    1.910030    0.000024
     17          1           0       -3.168562   -0.170157   -0.000009
     18          6           0       -1.800813    3.481259    0.000048
     19          6           0       -3.149048    3.234216    0.000046
     20          1           0       -4.738787    1.737003    0.000021
     21          1           0       -1.407335    4.499086    0.000064
     22          1           0       -3.847092    4.075093    0.000061
     23          6           0       -0.445579   -0.004978   -0.000000
     24          8           0        0.413853    2.657946    0.000028
     25          1           0        1.069672    1.293795    0.000006
 ---------------------------------------------------------------------

 SCF Done:  E(RwB97XD) =  -1028.81307442     A.U. after    1 cycles

 Alpha  occ. eigenvalues --  -89.10069 -19.22067 -14.50892 -10.41181 -10.36907
 Alpha  occ. eigenvalues --  -10.36282 -10.35969 -10.33256 -10.32731 -10.32417
 Alpha  occ. eigenvalues --  -10.32247 -10.31305 -10.30856 -10.30762 -10.29225
 Alpha  occ. eigenvalues --  -10.28693  -8.12064  -6.06944  -6.06567  -6.06078
 Alpha  occ. eigenvalues --   -1.13179  -1.09950  -0.98406  -0.95202  -0.93057
 Alpha  occ. eigenvalues --   -0.89246  -0.86388  -0.83942  -0.82053  -0.75767
 Alpha  occ. eigenvalues --   -0.72524  -0.71718  -0.69000  -0.68062  -0.64531
 Alpha  occ. eigenvalues --   -0.60868  -0.59693  -0.56854  -0.55764  -0.55705
 Alpha  occ. eigenvalues --   -0.54920  -0.53632  -0.52898  -0.50589  -0.49867
 Alpha  occ. eigenvalues --   -0.49138  -0.48107  -0.46669  -0.45511  -0.44851
 Alpha  occ. eigenvalues --   -0.44454  -0.43084  -0.41795  -0.40547  -0.36717
 Alpha  occ. eigenvalues --   -0.33424  -0.32548  -0.31609  -0.26721
 Alpha virt. eigenvalues --   -0.01192   0.03882   0.06145   0.06723   0.08951
 Alpha virt. eigenvalues --    0.11030   0.13367   0.14723   0.16092   0.17470
 Alpha virt. eigenvalues --    0.19061   0.20283   0.21272   0.21674   0.23061

 Mulliken charges:
               1
     1  C    0.012843
     2  C   -0.241430
     3  C    0.268780
     4  C   -0.009556
     5  C    0.011196
     6  C    0.002052
     7  H    0.024959
     8  H    0.030971
     9  H    0.026407
    10  H    0.025683
    11  N   -0.156135
    12  S    0.183031
    13  C   -0.126093
    14  C   -0.007755
    15  C    0.115613
    16  C   -0.029656
    17  H    0.004652
    18  C   -0.014924
    19  C    0.025983
    20  H    0.003245
    21  H    0.003215
    22  H    0.013816
    23  C    0.072538
    24  O   -0.400105
    25  H    0.160671
 Sum of Mulliken charges =  -0.00000

 Dipole moment (field-independent basis, Debye):
    X=              1.4641    Y=             -4.9155    Z=             -0.0001  Tot=              5.1289
 Quadrupole moment (field-independent basis, Debye-Ang):
   XX=            -82.4039   YY=            -94.0822   ZZ=           -104.0348
   XY=             -7.0378   XZ=             -0.0001   YZ=              0.0001

  Exact polarizability:     285.347     -83.491     281.318      -0.001       0.002      62.948
 Approx polarizability:     266.254     -31.316     255.324      -0.001       0.002      82.049

                      1                      2                      3
                      A                      A                      A
 Frequencies --     55.8450                75.2594               111.5107
 Red. masses --      5.4818                 5.2104                 5.6260
 Frc consts  --      0.0101                 0.0174                 0.0412
 IR Inten    --      0.7067                 1.5340                 4.0172

                      4                      5                      6
                      A                      A                      A
 Frequencies --    143.0273               199.9336               236.8358
 Red. masses --      5.2660                 6.1284                 6.2066
 Frc consts  --      0.0635                 0.1443                 0.2051
 IR Inten    --      1.1898                 0.0181                 0.7300

                      7                      8                      9
                      A                      A                      A
 Frequencies --    266.3171               310.7604               310.9723
 Red. masses --      7.4184                 5.3674                 5.8867
 Frc consts  --      0.3100                 0.3054                 0.3354
 IR Inten    --     12.3533                 0.9050                10.8019

                     10                     11                     12
                      A                      A                      A
 Frequencies --    409.8116               431.0514               451.3638
 Red. masses --     10.8974                 3.2206                 3.6162
 Frc consts  --      1.0783                 0.3526                 0.4341
 IR Inten    --      3.0625                 0.5665                10.1952

                     13                     14                     15
                      A                      A                      A
 Frequencies --    511.7759               533.4360               540.4520
 Red. masses --      8.7837                 2.9112                 6.8700
 Frc consts  --      1.3555                 0.4881                 1.1823
 IR Inten    --      7.9931                 5.1670                 5.7401

                     16                     17                     18
                      A                      A                      A
 Frequencies --    554.7696               563.3661               584.3771
 Red. masses --      6.4411                 3.7359                 6.6187
 Frc consts  --      1.1680                 0.6986                 1.3317
 IR Inten    --      8.4950                 0.0296                38.2253

                     19                     20                     21
                      A                      A                      A
 Frequencies --    640.6939               641.4935               715.3477
 Red. masses --      5.3202                 6.1846                 6.4916
 Frc consts  --      1.2867                 1.4995                 1.9572
 IR Inten    --      2.8772                 0.0484                27.4950

                     22                     23                     24
                      A                      A                      A
 Frequencies --    728.3614               751.7587               763.1397
 Red. masses --      7.4640                 2.6348                 1.4862
 Frc consts  --      2.3330                 0.8773                 0.5100
 IR Inten    --     59.4201                 9.7311                49.9950

                     25                     26                     27
                      A                      A                      A
 Frequencies --    778.1899               778.5422               826.7635
 Red. masses --      2.1261                 1.7003                 4.0668
 Frc consts  --      0.7586                 0.6072                 1.6378
 IR Inten    --      0.5358                62.0750                20.7961

                     28                     29                     30
                      A                      A                      A
 Frequencies --    857.1825               878.4744               884.1252
 Red. masses --      4.4621                 1.8196                 1.3832
 Frc consts  --      1.9317                 0.8273                 0.6370
 IR Inten    --     12.5818                 8.0083                 0.2159

                     31                     32                     33
                      A                      A                      A
 Frequencies --    954.9349               969.6573               972.8685
 Red. masses --      5.1115                 1.3241                 1.3578
 Frc consts  --      2.7463                 0.7335                 0.7572
 IR Inten    --     36.0782                 0.5444                 0.7829

                     34                     35                     36
                      A                      A                      A
 Frequencies --    986.3437              1015.7947              1016.1339
 Red. masses --      1.0922                 1.3030                 1.3046
 Frc consts  --      0.6260                 0.7922                 0.7936
 IR Inten    --     77.3290                 0.1834                 1.0076

                     37                     38                     39
                      A                      A                      A
 Frequencies --   1043.3314              1056.9880              1071.4236
 Red. masses --      2.2900                 2.1104                 3.3177
 Frc consts  --      1.4687                 1.3892                 2.2439
 IR Inten    --     14.9907                10.4422                29.7775

                     40                     41                     42
                      A                      A                      A
 Frequencies --   1117.8149              1158.8212              1160.4614
 Red. masses --      2.5914                 1.3805                 1.2305
 Frc consts  --      1.9078                 1.0923                 0.9764
 IR Inten    --     62.0564                13.6838                29.8951

                     43                     44                     45
                      A                      A                      A
 Frequencies --   1182.8864              1193.3992              1259.8539
 Red. masses --      1.1428                 1.2327                 1.8644
 Frc consts  --      0.9421                 1.0344                 1.7435
 IR Inten    --     18.5395                 5.5678                 8.6461

                     46                     47                     48
                      A                      A                      A
 Frequencies --   1291.1194              1325.0247              1368.2681
 Red. masses --      1.5265                 2.8215                 3.7223
 Frc consts  --      1.4993                 2.9186                 4.1058
 IR Inten    --     16.3486               141.9924                15.4589

                     49                     50                     51
                      A                      A                      A
 Frequencies --   1383.6394              1393.8748              1418.7977
 Red. masses --      4.0502                 6.9368                 2.6252
 Frc consts  --      4.5685                 7.9407                 3.1135
 IR Inten    --     80.3305                12.1659                12.7462

                     52                     53                     54
                      A                      A                      A
 Frequencies --   1494.6524              1506.7509              1523.0082
 Red. masses --      2.6738                 2.7254                 3.3634
 Frc consts  --      3.5193                 3.6455                 4.5966
 IR Inten    --     16.1412               129.0145               107.4487

                     55                     56                     57
                      A                      A                      A
 Frequencies --   1576.5546              1606.2967              1614.4154
 Red. masses --      4.4576                 4.3499                 7.7540
 Frc consts  --      6.5279                 6.6127                11.9071
 IR Inten    --   1311.0958               190.2185               627.8799

                     58                     59                     60
                      A                      A                      A
 Frequencies --   1668.4052              1683.0215              1712.2389
 Red. masses --      7.0488                 6.9945                 6.2803
 Frc consts  --     11.5603                11.6731                10.8482
 IR Inten    --     52.7374                94.2476               184.6159

                     61                     62                     63
                      A                      A                      A
 Frequencies --   2747.7601              3182.7539              3194.1068
 Red. masses --      1.1064                 1.0893                 1.0882
 Frc consts  --      4.9217                 6.5011                 6.5414
 IR Inten    --    546.7884                 4.1635                14.2869

                     64                     65                     66
                      A                      A                      A
 Frequencies --   3216.6334              3222.0060              3227.3242
 Red. masses --      1.0866                 1.0945                 1.0909
 Frc consts  --      6.6239                 6.6945                 6.6948
 IR Inten    --      1.7679                21.8464                 3.0459

                     67                     68                     69
                      A                      A                      A
 Frequencies --   3233.8957              3237.2564              3243.1127
 Red. masses --      1.0971                 1.0961                 1.0999
 Frc consts  --      6.7598                 6.7680                 6.8159
 IR Inten    --     18.8957                 5.9659                 9.9318

 - Thermochemistry -
 -------------------
 Temperature   298.150 Kelvin.  Pressure   1.00000 Atm.
 Atom     1 has atomic number  6 and mass  12.00000

 Molecular mass:   227.04049 amu.
 Principal axes and moments of inertia in atomic units:
                           1         2         3
     Eigenvalues --  1308.846486288.446967597.29344
           X           -0.70452   0.70969   0.00000
           Y            0.70969   0.70452  -0.00001
           Z            0.00001   0.00001   1.00000
 This molecule is an asymmetric top.
 Rotational symmetry number  1.
 Warning -- assumption of classical behavior for rotation
           may cause significant error
 Rotational temperatures (Kelvin)      0.06618     0.01377     0.01140
 Rotational constants (GHZ):           1.37888     0.28699     0.23755
 Zero-point vibrational energy     495054.0 (Joules/Mol)
                                  118.32075 (Kcal/Mol)
 Warning -- explicit consideration of  18 degrees of freedom as
           vibrations may cause significant error
 Vibrational temperatures:     80.35   108.28   160.44   205.78   287.66
          (Kelvin)            340.75   383.17   447.11   447.42   589.63
                              620.19   649.41   736.33   767.50   777.59
                              798.19   810.56   840.79   921.82   922.97
                             1029.23  1047.95  1081.61  1097.99  1119.64
                             1120.15  1189.53  1233.29  1263.93  1272.06
                             1373.94  1395.12  1399.74  1419.13  1461.50
                             1461.99  1501.12  1520.77  1541.54  1608.29
                             1667.29  1669.65  1701.91  1717.04  1812.65
                             1857.63  1906.42  1968.63  1990.75  2005.47
                             2041.33  2150.47  2167.88  2191.27  2268.31
                             2311.10  2322.78  2400.46  2421.49  2463.53
                             3953.41  4579.27  4595.61  4628.02  4635.75
                             4643.40  4652.85  4657.69  4666.12

 Zero-point correction=                           0.188556 (Hartree/Particle)
 Thermal correction to Energy=                    0.200304
 Thermal correction to Enthalpy=                  0.201248
 Thermal correction to Gibbs Free Energy=         0.150090
 Sum of electronic and zero-point Energies=          -1028.624518
 Sum of electronic and thermal Energies=             -1028.612770
 Sum of electronic and thermal Enthalpies=           -1028.611826
 Sum of electronic and thermal Free Energies=        -1028.662984

                     E (Thermal)             CV                S
                      KCal/Mol        Cal/Mol-Kelvin    Cal/Mol-Kelvin
 Total                  125.693             47.864            107.672
 Electronic               0.000              0.000              0.000
 Translational            0.889              2.981             42.162
 Rotational               0.889              2.981             32.503
 Vibrational            123.915             41.903             33.007
 Vibration     1          0.596              1.975              4.599
 Vibration     2          0.599              1.966              4.011
 Vibration     3          0.607              1.940              3.242
 Vibration     4          0.616              1.910              2.763
 Vibration     5          0.638              1.840              2.134
 Vibration     6          0.656              1.784              1.827
 Vibration     7          0.672              1.735              1.620
 Vibration     8          0.700              1.653              1.358
 Vibration     9          0.700              1.653              1.357
 Vibration    10          0.774              1.449              0.927
 Vibration    11          0.792              1.403              0.855
 Vibration    12          0.810              1.358              0.792
 Vibration    13          0.867              1.224              0.629
 Vibration    14          0.888              1.176              0.580
 Vibration    15          0.896              1.161              0.564
 Vibration    16          0.910              1.129              0.534
 Vibration    17          0.919              1.111              0.517
 Vibration    18          0.941              1.065              0.477

 Optimization completed.
    -- Stationary point found.
 Normal termination of Gaussian 16 at Tue Oct 27 22:15:09 2020.
