 Gaussian 16, Revision C.01,
 Gaussian 16:  ES64L-G16RevC.01  3-Jul-2019

 ----------------------------------------------------------------------
 #p opt=addgic freq wb97xd/cc-pvdz nosymm int=ultrafine scrf=(solvent=C
 arbonTetraChloride)
 ----------------------------------------------------------------------

 ------------------------------------------------
 NM 2D-scan of HBT TD-WB97XD pVDZ in CTC Relaxed.
 ------------------------------------------------
 Symbolic Z-matrix:
 Charge =  0 Multiplicity = 1

 SCF Done:  E(RwB97XD) =  -1028.80154762     A.U. after   15 cycles
 SCF Done:  E(RwB97XD) =  -1028.80878337     A.U. after   13 cycles
 SCF Done:  E(RwB97XD) =  -1028.81008885     A.U. after   12 cycles
 SCF Done:  E(RwB97XD) =  -1028.81059276     A.U. after   12 cycles
 SCF Done:  E(RwB97XD) =  -1028.81077040     A.U. after   12 cycles
 SCF Done:  E(RwB97XD) =  -1028.81083409     A.U. after   11 cycles
 SCF Done:  E(RwB97XD) =  -1028.81084030     A.U. after   10 cycles
 Optimization completed.
    -- Stationary point found.
 Normal termination of Gaussian 16 at Wed Oct 28 01:42:24 2020.

 --------------------------------------------------------------------
 #P Geom=AllCheck Guess=TCheck SCRF=Check GenChk RwB97XD/CC-pVDZ Freq
 --------------------------------------------------------------------

 Structure from the checkpoint file:  "config_6_18.chk"
 ------------------------------------------------
 NM 2D-scan of HBT TD-WB97XD pVDZ in CTC Relaxed.
 ------------------------------------------------
 Charge =  0 Multiplicity = 1

                          Input orientation:
 ---------------------------------------------------------------------
 Center     Atomic      Atomic             Coordinates (Angstroms)
 Number     Number       Type             X           Y           Z
 ---------------------------------------------------------------------
      1          6           0        1.515561   -3.229245   -0.000076
      2          6           0        1.015447   -1.934098   -0.000058
      3          6           0        1.810225   -0.778565   -0.000009
      4          6           0        3.204127   -0.954748    0.000012
      5          6           0        3.716839   -2.256367   -0.000003
      6          6           0        2.890318   -3.388763   -0.000045
      7          1           0        0.837388   -4.083031   -0.000107
      8          1           0        3.876909   -0.096401    0.000047
      9          1           0        4.799699   -2.390578    0.000019
     10          1           0        3.326675   -4.388201   -0.000052
     11          7           0        1.013281    0.381537    0.000017
     12         16           0       -0.675298   -1.544599   -0.000076
     13          6           0       -1.316005    1.112359    0.000046
     14          6           0       -2.661511    0.732665    0.000087
     15          6           0       -0.890325    2.461990    0.000019
     16          6           0       -3.658727    1.689940    0.000073
     17          1           0       -2.928522   -0.326588    0.000128
     18          6           0       -1.937975    3.430944   -0.000012
     19          6           0       -3.275777    3.039499    0.000011
     20          1           0       -4.710033    1.402353    0.000104
     21          1           0       -1.676126    4.490314   -0.000052
     22          1           0       -4.048833    3.811462   -0.000014
     23          6           0       -0.279427    0.116357    0.000008
     24          8           0        0.392696    2.704277    0.000015
     25          1           0        0.949565    1.697558    0.000026
 ---------------------------------------------------------------------

 SCF Done:  E(RwB97XD) =  -1028.81084030     A.U. after    1 cycles

 Alpha  occ. eigenvalues --  -89.08856 -19.25210 -14.48582 -10.39708 -10.36818
 Alpha  occ. eigenvalues --  -10.36251 -10.34921 -10.32522 -10.32484 -10.32000
 Alpha  occ. eigenvalues --  -10.31877 -10.31576 -10.31286 -10.31023 -10.29892
 Alpha  occ. eigenvalues --  -10.29838  -8.11092  -6.05928  -6.05562  -6.05140
 Alpha  occ. eigenvalues --   -1.14304  -1.09485  -0.97743  -0.96155  -0.92690
 Alpha  occ. eigenvalues --   -0.88806  -0.86082  -0.83995  -0.82959  -0.75625
 Alpha  occ. eigenvalues --   -0.71737  -0.71085  -0.69119  -0.67804  -0.63562
 Alpha  occ. eigenvalues --   -0.60946  -0.59384  -0.57920  -0.56143  -0.54890
 Alpha  occ. eigenvalues --   -0.54604  -0.53646  -0.52793  -0.50946  -0.49843
 Alpha  occ. eigenvalues --   -0.49405  -0.46762  -0.46422  -0.45259  -0.45234
 Alpha  occ. eigenvalues --   -0.44380  -0.42993  -0.42386  -0.40305  -0.36360
 Alpha  occ. eigenvalues --   -0.35450  -0.32604  -0.31578  -0.28387
 Alpha virt. eigenvalues --   -0.00700   0.04468   0.06415   0.07778   0.07874
 Alpha virt. eigenvalues --    0.11132   0.14920   0.15078   0.17397   0.17922
 Alpha virt. eigenvalues --    0.19111   0.20858   0.21642   0.22184   0.22760

 Mulliken charges:
               1
     1  C    0.022350
     2  C   -0.218023
     3  C    0.247860
     4  C   -0.019956
     5  C    0.002466
     6  C    0.006521
     7  H    0.020516
     8  H    0.026295
     9  H    0.023612
    10  H    0.023377
    11  N   -0.327324
    12  S    0.168446
    13  C   -0.064420
    14  C   -0.032890
    15  C    0.110364
    16  C   -0.014438
    17  H    0.020143
    18  C   -0.020891
    19  C    0.022202
    20  H    0.006526
    21  H    0.011513
    22  H    0.017399
    23  C    0.081714
    24  O   -0.319899
    25  H    0.206537
 Sum of Mulliken charges =  -0.00000

 Dipole moment (field-independent basis, Debye):
    X=              0.3807    Y=             -3.9167    Z=             -0.0000  Tot=              3.9352
 Quadrupole moment (field-independent basis, Debye-Ang):
   XX=            -82.5233   YY=            -92.0244   ZZ=           -103.9008
   XY=             -7.2189   XZ=              0.0000   YZ=              0.0000

  Exact polarizability:     276.036     -72.133     258.872      -0.000       0.001      62.778
 Approx polarizability:     262.623     -25.189     244.476       0.000       0.001      82.127

 ******    2 imaginary frequencies (negative Signs) ******

                      1                      2                      3
                      A                      A                      A
 Frequencies --   -706.8974               -32.4806                64.9529
 Red. masses --      1.2259                 5.1757                 6.2170
 Frc consts  --      0.3609                 0.0032                 0.0155
 IR Inten    --   1670.8909                 0.0771                 1.1447

                      4                      5                      6
                      A                      A                      A
 Frequencies --    151.2338               161.7950               199.4145
 Red. masses --      5.0512                 5.5597                 6.3861
 Frc consts  --      0.0681                 0.0857                 0.1496
 IR Inten    --      0.6890                 7.2835                 0.3251

                      7                      8                      9
                      A                      A                      A
 Frequencies --    242.4398               291.9999               327.9782
 Red. masses --      5.6049                 7.1408                 5.1756
 Frc consts  --      0.1941                 0.3587                 0.3280
 IR Inten    --      0.1620                11.3840                 0.0879

                     10                     11                     12
                      A                      A                      A
 Frequencies --    400.1250               434.1256               436.9444
 Red. masses --      5.7473                 3.0870                11.6888
 Frc consts  --      0.5421                 0.3428                 1.3148
 IR Inten    --     28.6238                 1.1042                 5.5592

                     13                     14                     15
                      A                      A                      A
 Frequencies --    459.2332               520.1120               536.6891
 Red. masses --      3.5103                 8.6266                 3.3547
 Frc consts  --      0.4362                 1.3749                 0.5693
 IR Inten    --      9.0514                 5.4649                 3.4602

                     16                     17                     18
                      A                      A                      A
 Frequencies --    566.8685               575.1694               579.2299
 Red. masses --      7.8186                 3.7192                 7.9228
 Frc consts  --      1.4803                 0.7249                 1.5661
 IR Inten    --     12.2605                 0.1014                 1.2882

                     19                     20                     21
                      A                      A                      A
 Frequencies --    648.4237               671.1702               698.5422
 Red. masses --      6.4407                 6.2375                 6.6722
 Frc consts  --      1.5955                 1.6555                 1.9183
 IR Inten    --      0.0018               155.3998                59.8625

                     22                     23                     24
                      A                      A                      A
 Frequencies --    752.4862               755.4780               768.2963
 Red. masses --      6.3508                 2.1832                 1.7062
 Frc consts  --      2.1187                 0.7341                 0.5934
 IR Inten    --     21.1102                24.0271                30.3035

                     25                     26                     27
                      A                      A                      A
 Frequencies --    773.0676               782.2481               784.9136
 Red. masses --      2.1826                 1.8088                 8.2404
 Frc consts  --      0.7685                 0.6521                 2.9912
 IR Inten    --     25.5898                49.6398                10.8884

                     28                     29                     30
                      A                      A                      A
 Frequencies --    861.8290               877.5940               886.1036
 Red. masses --      6.4204                 1.6140                 1.3883
 Frc consts  --      2.8097                 0.7324                 0.6422
 IR Inten    --     17.2133                 6.7964                 0.4223

                     31                     32                     33
                      A                      A                      A
 Frequencies --    927.7192               961.5957               974.4342
 Red. masses --      7.1361                 1.3630                 1.3646
 Frc consts  --      3.6186                 0.7426                 0.7634
 IR Inten    --     24.1562                 0.9228                 1.5816

                     34                     35                     36
                      A                      A                      A
 Frequencies --   1010.6531              1015.6227              1025.6993
 Red. masses --      1.3054                 1.3060                 7.7291
 Frc consts  --      0.7856                 0.7937                 4.7909
 IR Inten    --      0.3052                 0.0031                 7.2876

                     37                     38                     39
                      A                      A                      A
 Frequencies --   1053.1454              1068.5090              1112.7037
 Red. masses --      2.0154                 1.8698                 3.0032
 Frc consts  --      1.3170                 1.2578                 2.1908
 IR Inten    --      6.8716                 6.1528                 3.3546

                     40                     41                     42
                      A                      A                      A
 Frequencies --   1161.7898              1163.6088              1165.2959
 Red. masses --      1.0543                 1.3913                 1.4098
 Frc consts  --      0.8385                 1.1099                 1.1279
 IR Inten    --     71.4492                12.5872                 0.7253

                     43                     44                     45
                      A                      A                      A
 Frequencies --   1180.3344              1187.0766              1265.2449
 Red. masses --      1.1916                 1.3167                 2.2605
 Frc consts  --      0.9781                 1.0932                 2.1321
 IR Inten    --     76.0968                 4.3453                54.5372

                     46                     47                     48
                      A                      A                      A
 Frequencies --   1293.8474              1306.9271              1339.1444
 Red. masses --      1.7665                 3.2069                 2.0922
 Frc consts  --      1.7423                 3.2273                 2.2106
 IR Inten    --     24.9615               142.3337               158.2473

                     49                     50                     51
                      A                      A                      A
 Frequencies --   1376.6674              1381.2237              1411.0403
 Red. masses --      6.7809                 2.7602                 5.7453
 Frc consts  --      7.5717                 3.1025                 6.7397
 IR Inten    --     30.8307                25.0740                64.6587

                     52                     53                     54
                      A                      A                      A
 Frequencies --   1485.0201              1496.7789              1506.7740
 Red. masses --      2.6234                 2.7456                 2.9507
 Frc consts  --      3.4086                 3.6242                 3.9470
 IR Inten    --     57.7575                 4.1557                36.3670

                     55                     56                     57
                      A                      A                      A
 Frequencies --   1576.1408              1583.7784              1631.9680
 Red. masses --      5.4799                 4.6806                 6.0250
 Frc consts  --      8.0207                 6.9173                 9.4543
 IR Inten    --    305.8616               767.5400               240.4450

                     58                     59                     60
                      A                      A                      A
 Frequencies --   1656.8429              1681.5114              1705.8420
 Red. masses --      6.9192                 6.7348                 6.5263
 Frc consts  --     11.1909                11.2195                11.1892
 IR Inten    --     13.3921                 8.7607               176.3152

                     61                     62                     63
                      A                      A                      A
 Frequencies --   1879.2559              3200.6332              3205.1241
 Red. masses --      1.0968                 1.0866                 1.0902
 Frc consts  --      2.2822                 6.5582                 6.5985
 IR Inten    --    127.6799                 1.1457                12.1391

                     64                     65                     66
                      A                      A                      A
 Frequencies --   3210.5190              3219.9110              3223.7895
 Red. masses --      1.0863                 1.0907                 1.0938
 Frc consts  --      6.5969                 6.6625                 6.6977
 IR Inten    --      1.5868                 2.0305                19.3113

                     67                     68                     69
                      A                      A                      A
 Frequencies --   3229.2737              3236.5817              3237.0546
 Red. masses --      1.0957                 1.0986                 1.1001
 Frc consts  --      6.7322                 6.7804                 6.7920
 IR Inten    --      7.2570                18.0480                11.4491

 - Thermochemistry -
 -------------------
 Temperature   298.150 Kelvin.  Pressure   1.00000 Atm.
 Atom     1 has atomic number  6 and mass  12.00000

 Molecular mass:   227.04049 amu.
 Principal axes and moments of inertia in atomic units:
                           1         2         3
     Eigenvalues --  1256.065976232.590097488.65606
           X            0.70892   0.70529  -0.00000
           Y           -0.70529   0.70892  -0.00001
           Z           -0.00001   0.00001   1.00000
 This molecule is an asymmetric top.
 Rotational symmetry number  1.
 Warning -- assumption of classical behavior for rotation
           may cause significant error
 Rotational temperatures (Kelvin)      0.06896     0.01390     0.01157
 Rotational constants (GHZ):           1.43682     0.28957     0.24100
    2 imaginary frequencies ignored.
 Zero-point vibrational energy     487822.5 (Joules/Mol)
                                  116.59237 (Kcal/Mol)
 Warning -- explicit consideration of  16 degrees of freedom as
           vibrations may cause significant error
 Vibrational temperatures:     93.45   217.59   232.79   286.91   348.82
          (Kelvin)            420.12   471.89   575.69   624.61   628.67
                              660.73   748.33   772.18   815.60   827.54
                              833.38   932.94   965.66  1005.05  1082.66
                             1086.96  1105.41  1112.27  1125.48  1129.32
                             1239.98  1262.66  1274.91  1334.78  1383.52
                             1401.99  1454.10  1461.25  1475.75  1515.24
                             1537.35  1600.93  1671.56  1674.17  1676.60
                             1698.24  1707.94  1820.41  1861.56  1880.38
                             1926.73  1980.72  1987.27  2030.17  2136.61
                             2153.53  2167.91  2267.72  2278.70  2348.04
                             2383.83  2419.32  2454.33  2703.83  4605.00
                             4611.46  4619.22  4632.73  4638.31  4646.20
                             4656.72  4657.40

 Zero-point correction=                           0.185802 (Hartree/Particle)
 Thermal correction to Energy=                    0.196219
 Thermal correction to Enthalpy=                  0.197163
 Thermal correction to Gibbs Free Energy=         0.149175
 Sum of electronic and zero-point Energies=          -1028.625039
 Sum of electronic and thermal Energies=             -1028.614621
 Sum of electronic and thermal Enthalpies=           -1028.613677
 Sum of electronic and thermal Free Energies=        -1028.661665

                     E (Thermal)             CV                S
                      KCal/Mol        Cal/Mol-Kelvin    Cal/Mol-Kelvin
 Total                  123.129             44.185            101.000
 Electronic               0.000              0.000              0.000
 Translational            0.889              2.981             42.162
 Rotational               0.889              2.981             32.439
 Vibrational            121.352             38.223             26.399
 Vibration     1          0.597              1.971              4.301
 Vibration     2          0.619              1.901              2.657
 Vibration     3          0.622              1.889              2.529
 Vibration     4          0.638              1.841              2.138
 Vibration     5          0.659              1.775              1.785
 Vibration     6          0.687              1.689              1.462
 Vibration     7          0.711              1.620              1.270
 Vibration     8          0.766              1.470              0.962
 Vibration     9          0.795              1.396              0.845
 Vibration    10          0.797              1.390              0.836
 Vibration    11          0.817              1.340              0.768
 Vibration    12          0.875              1.205              0.610
 Vibration    13          0.892              1.169              0.572
 Vibration    14          0.923              1.103              0.510
 Vibration    15          0.932              1.085              0.494
 Vibration    16          0.936              1.076              0.487

                           ! Non-Optimized Parameters !
 Normal termination of Gaussian 16 at Wed Oct 28 01:48:40 2020.
