 Gaussian 16, Revision C.01,
 Gaussian 16:  ES64L-G16RevC.01  3-Jul-2019

 ----------------------------------------------------------------------
 #p opt=addgic freq wb97xd/cc-pvdz nosymm int=ultrafine scrf=(solvent=C
 arbonTetraChloride)
 ----------------------------------------------------------------------

 ------------------------------------------------
 NM 2D-scan of HBT TD-WB97XD pVDZ in CTC Relaxed.
 ------------------------------------------------
 Symbolic Z-matrix:
 Charge =  0 Multiplicity = 1

 SCF Done:  E(RwB97XD) =  -1028.80933051     A.U. after   15 cycles
 SCF Done:  E(RwB97XD) =  -1028.81593424     A.U. after   13 cycles
 SCF Done:  E(RwB97XD) =  -1028.81747077     A.U. after   13 cycles
 SCF Done:  E(RwB97XD) =  -1028.81784604     A.U. after   12 cycles
 SCF Done:  E(RwB97XD) =  -1028.81795306     A.U. after   11 cycles
 SCF Done:  E(RwB97XD) =  -1028.81797357     A.U. after   10 cycles
 Optimization completed.
    -- Stationary point found.
 Normal termination of Gaussian 16 at Wed Oct 28 00:29:21 2020.

 --------------------------------------------------------------------
 #P Geom=AllCheck Guess=TCheck SCRF=Check GenChk RwB97XD/CC-pVDZ Freq
 --------------------------------------------------------------------

 Structure from the checkpoint file:  "config_6_14.chk"
 ------------------------------------------------
 NM 2D-scan of HBT TD-WB97XD pVDZ in CTC Relaxed.
 ------------------------------------------------
 Charge =  0 Multiplicity = 1

                          Input orientation:
 ---------------------------------------------------------------------
 Center     Atomic      Atomic             Coordinates (Angstroms)
 Number     Number       Type             X           Y           Z
 ---------------------------------------------------------------------
      1          6           0        1.572875   -3.243454   -0.000040
      2          6           0        1.009430   -1.972566   -0.000029
      3          6           0        1.770595   -0.795701   -0.000012
      4          6           0        3.168782   -0.901643   -0.000009
      5          6           0        3.739306   -2.174762   -0.000018
      6          6           0        2.955788   -3.337594   -0.000033
      7          1           0        0.941295   -4.132133   -0.000052
      8          1           0        3.793350   -0.007812    0.000003
      9          1           0        4.826538   -2.265534   -0.000014
     10          1           0        3.433695   -4.317947   -0.000039
     11          7           0        0.960102    0.340930    0.000001
     12         16           0       -0.696957   -1.611037   -0.000032
     13          6           0       -1.342013    1.095769    0.000025
     14          6           0       -2.703709    0.775774    0.000037
     15          6           0       -0.878274    2.437405    0.000031
     16          6           0       -3.662079    1.774609    0.000043
     17          1           0       -3.011622   -0.272832    0.000040
     18          6           0       -1.881698    3.445071    0.000026
     19          6           0       -3.231892    3.109612    0.000031
     20          1           0       -4.723756    1.528061    0.000052
     21          1           0       -1.569683    4.490591    0.000019
     22          1           0       -3.975114    3.910148    0.000028
     23          6           0       -0.327788    0.068952    0.000002
     24          8           0        0.408679    2.670100    0.000029
     25          1           0        0.927934    1.680169    0.000017
 ---------------------------------------------------------------------

 SCF Done:  E(RwB97XD) =  -1028.81797357     A.U. after    1 cycles

 Alpha  occ. eigenvalues --  -89.08986 -19.25472 -14.48121 -10.39745 -10.36860
 Alpha  occ. eigenvalues --  -10.35916 -10.34989 -10.32520 -10.32321 -10.31924
 Alpha  occ. eigenvalues --  -10.31839 -10.31626 -10.31281 -10.31252 -10.29861
 Alpha  occ. eigenvalues --  -10.29820  -8.11147  -6.05990  -6.05625  -6.05195
 Alpha  occ. eigenvalues --   -1.14678  -1.09503  -0.97659  -0.96043  -0.92458
 Alpha  occ. eigenvalues --   -0.88779  -0.85903  -0.84065  -0.83009  -0.75635
 Alpha  occ. eigenvalues --   -0.71611  -0.70892  -0.69190  -0.68047  -0.63500
 Alpha  occ. eigenvalues --   -0.60889  -0.59296  -0.57961  -0.56153  -0.54795
 Alpha  occ. eigenvalues --   -0.54575  -0.53550  -0.52726  -0.50984  -0.49892
 Alpha  occ. eigenvalues --   -0.49558  -0.46948  -0.46338  -0.45286  -0.45195
 Alpha  occ. eigenvalues --   -0.44237  -0.43005  -0.42428  -0.40238  -0.36336
 Alpha  occ. eigenvalues --   -0.35590  -0.32561  -0.31587  -0.28452
 Alpha virt. eigenvalues --   -0.00659   0.04507   0.06593   0.07709   0.07719
 Alpha virt. eigenvalues --    0.11156   0.14761   0.15056   0.17022   0.17900
 Alpha virt. eigenvalues --    0.19063   0.20881   0.21713   0.22312   0.22746

 Mulliken charges:
               1
     1  C    0.019189
     2  C   -0.223690
     3  C    0.252347
     4  C   -0.016206
     5  C    0.004396
     6  C    0.004773
     7  H    0.020128
     8  H    0.024812
     9  H    0.023066
    10  H    0.023175
    11  N   -0.326355
    12  S    0.166340
    13  C   -0.070046
    14  C   -0.027180
    15  C    0.101888
    16  C   -0.014446
    17  H    0.015299
    18  C   -0.014458
    19  C    0.022050
    20  H    0.006961
    21  H    0.011655
    22  H    0.017297
    23  C    0.080185
    24  O   -0.297691
    25  H    0.196513
 Sum of Mulliken charges =  -0.00000

 Dipole moment (field-independent basis, Debye):
    X=              0.3908    Y=             -3.6721    Z=             -0.0000  Tot=              3.6928
 Quadrupole moment (field-independent basis, Debye-Ang):
   XX=            -82.6115   YY=            -91.5505   ZZ=           -103.9361
   XY=             -7.2270   XZ=             -0.0001   YZ=              0.0000

  Exact polarizability:     276.161     -71.196     258.670      -0.001       0.002      62.818
 Approx polarizability:     262.861     -25.035     244.125      -0.000       0.001      82.128

 ******    2 imaginary frequencies (negative Signs) ******

                      1                      2                      3
                      A                      A                      A
 Frequencies --    -89.2098                -6.9463                66.1915
 Red. masses --      3.3376                 5.2161                 6.1567
 Frc consts  --      0.0157                 0.0001                 0.0159
 IR Inten    --    256.4446                 0.0549                 1.2814

                      4                      5                      6
                      A                      A                      A
 Frequencies --    152.0903               198.3516               213.5232
 Red. masses --      5.0959                 6.2199                 4.0888
 Frc consts  --      0.0695                 0.1442                 0.1098
 IR Inten    --      0.5019                 0.3829               158.8519

                      7                      8                      9
                      A                      A                      A
 Frequencies --    242.9477               288.6400               327.9008
 Red. masses --      5.6579                 6.2269                 5.1830
 Frc consts  --      0.1968                 0.3057                 0.3283
 IR Inten    --      0.1576                37.8749                 0.1653

                     10                     11                     12
                      A                      A                      A
 Frequencies --    422.2732               434.7015               453.3092
 Red. masses --      8.0074                 3.1005                 5.0091
 Frc consts  --      0.8413                 0.3452                 0.6065
 IR Inten    --     17.4274                 1.4858               117.4334

                     13                     14                     15
                      A                      A                      A
 Frequencies --    460.0950               519.6036               537.7894
 Red. masses --      3.5580                 8.4804                 3.3862
 Frc consts  --      0.4438                 1.3490                 0.5770
 IR Inten    --      8.7047                 7.4783                 3.5161

                     16                     17                     18
                      A                      A                      A
 Frequencies --    565.7018               574.9222               585.3524
 Red. masses --      7.3538                 3.7015                 7.8615
 Frc consts  --      1.3866                 0.7209                 1.5871
 IR Inten    --     13.5785                 0.0859                 1.3338

                     19                     20                     21
                      A                      A                      A
 Frequencies --    648.6507               687.9609               728.4107
 Red. masses --      6.4410                 6.2627                 6.4035
 Frc consts  --      1.5967                 1.7464                 2.0018
 IR Inten    --      0.0057                21.6795                56.2438

                     22                     23                     24
                      A                      A                      A
 Frequencies --    755.3795               768.7230               774.5014
 Red. masses --      2.1115                 1.9968                 1.8355
 Frc consts  --      0.7099                 0.6952                 0.6487
 IR Inten    --     24.3471                19.7281                39.4409

                     25                     26                     27
                      A                      A                      A
 Frequencies --    778.2650               782.7817               853.7018
 Red. masses --      9.1648                 1.8474                 5.0954
 Frc consts  --      3.2706                 0.6669                 2.1880
 IR Inten    --     34.4555                45.4098                68.1539

                     28                     29                     30
                      A                      A                      A
 Frequencies --    874.1176               879.6243               885.9761
 Red. masses --      4.3652                 1.6025                 1.3961
 Frc consts  --      1.9651                 0.7305                 0.6457
 IR Inten    --    288.0608                 6.1459                 0.4366

                     31                     32                     33
                      A                      A                      A
 Frequencies --    964.7084               970.5874               974.5670
 Red. masses --      1.3591                 4.0225                 1.3641
 Frc consts  --      0.7453                 2.2326                 0.7634
 IR Inten    --      1.0110               399.9209                 1.4514

                     34                     35                     36
                      A                      A                      A
 Frequencies --   1010.5796              1015.6224              1028.0807
 Red. masses --      1.3039                 1.3058                 6.0918
 Frc consts  --      0.7846                 0.7936                 3.7936
 IR Inten    --      0.2751                 0.0012                29.1679

                     37                     38                     39
                      A                      A                      A
 Frequencies --   1053.1467              1065.7155              1108.1573
 Red. masses --      1.9782                 1.9050                 3.1630
 Frc consts  --      1.2927                 1.2747                 2.2885
 IR Inten    --      2.2027                18.2916                 7.5057

                     40                     41                     42
                      A                      A                      A
 Frequencies --   1147.9302              1156.8238              1160.6808
 Red. masses --      1.0558                 1.4560                 1.3942
 Frc consts  --      0.8198                 1.1480                 1.1066
 IR Inten    --     70.4838                 6.3560                 1.4875

                     43                     44                     45
                      A                      A                      A
 Frequencies --   1177.8012              1184.1156              1260.9525
 Red. masses --      1.0888                 1.2301                 2.0025
 Frc consts  --      0.8899                 1.0162                 1.8760
 IR Inten    --    113.1172                 7.0927                53.7525

                     46                     47                     48
                      A                      A                      A
 Frequencies --   1289.6122              1314.7790              1343.4699
 Red. masses --      1.5470                 4.0948                 2.5895
 Frc consts  --      1.5158                 4.1705                 2.7538
 IR Inten    --      0.5016               268.3807                39.0871

                     49                     50                     51
                      A                      A                      A
 Frequencies --   1381.7044              1383.1029              1409.9178
 Red. masses --      4.7191                 3.8637                 3.9647
 Frc consts  --      5.3081                 4.3547                 4.6436
 IR Inten    --     20.8048                21.4588                64.3180

                     52                     53                     54
                      A                      A                      A
 Frequencies --   1486.1493              1497.2062              1511.1292
 Red. masses --      2.7614                 2.7818                 3.1938
 Frc consts  --      3.5934                 3.6740                 4.2969
 IR Inten    --     39.1374                15.9984                42.7413

                     55                     56                     57
                      A                      A                      A
 Frequencies --   1576.1033              1598.9204              1632.0039
 Red. masses --      5.8549                 4.0517                 5.7355
 Frc consts  --      8.5691                 6.1029                 9.0005
 IR Inten    --    287.3896               745.6320               519.5653

                     58                     59                     60
                      A                      A                      A
 Frequencies --   1659.7130              1684.8107              1710.6121
 Red. masses --      6.9373                 6.5611                 5.9103
 Frc consts  --     11.2591                10.9730                10.1897
 IR Inten    --     31.5353                75.0675               207.4464

                     61                     62                     63
                      A                      A                      A
 Frequencies --   1867.0840              3198.0163              3205.2085
 Red. masses --      1.0988                 1.0883                 1.0891
 Frc consts  --      2.2568                 6.5580                 6.5920
 IR Inten    --     85.1661                 3.1561                 8.7531

                     64                     65                     66
                      A                      A                      A
 Frequencies --   3212.0043              3221.8673              3226.3294
 Red. masses --      1.0862                 1.0907                 1.0937
 Frc consts  --      6.6024                 6.6706                 6.7073
 IR Inten    --      1.5546                 2.6188                16.5141

                     67                     68                     69
                      A                      A                      A
 Frequencies --   3231.6280              3236.2722              3238.3138
 Red. masses --      1.0959                 1.0985                 1.0999
 Frc consts  --      6.7432                 6.7787                 6.7959
 IR Inten    --      7.3679                18.0149                13.0421

 - Thermochemistry -
 -------------------
 Temperature   298.150 Kelvin.  Pressure   1.00000 Atm.
 Atom     1 has atomic number  6 and mass  12.00000

 Molecular mass:   227.04049 amu.
 Principal axes and moments of inertia in atomic units:
                           1         2         3
     Eigenvalues --  1269.047376247.435847516.48321
           X            0.70794   0.70627   0.00000
           Y           -0.70627   0.70794  -0.00001
           Z           -0.00001   0.00001   1.00000
 This molecule is an asymmetric top.
 Rotational symmetry number  1.
 Warning -- assumption of classical behavior for rotation
           may cause significant error
 Rotational temperatures (Kelvin)      0.06825     0.01386     0.01152
 Rotational constants (GHZ):           1.42212     0.28888     0.24010
    2 imaginary frequencies ignored.
 Zero-point vibrational energy     489613.1 (Joules/Mol)
                                  117.02033 (Kcal/Mol)
 Warning -- explicit consideration of  16 degrees of freedom as
           vibrations may cause significant error
 Vibrational temperatures:     95.23   218.82   285.38   307.21   349.55
          (Kelvin)            415.29   471.78   607.56   625.44   652.21
                              661.97   747.59   773.76   813.92   827.18
                              842.19   933.26   989.82  1048.02  1086.82
                             1106.02  1114.33  1119.75  1126.25  1228.29
                             1257.66  1265.58  1274.72  1388.00  1396.46
                             1402.18  1454.00  1461.25  1479.18  1515.24
                             1533.33  1594.39  1651.62  1664.41  1669.96
                             1694.59  1703.68  1814.23  1855.46  1891.67
                             1932.95  1987.96  1989.98  2028.56  2138.24
                             2154.15  2174.18  2267.66  2300.49  2348.09
                             2387.96  2424.07  2461.19  2686.32  4601.23
                             4611.58  4621.36  4635.55  4641.97  4649.59
                             4656.27  4659.21

 Zero-point correction=                           0.186484 (Hartree/Particle)
 Thermal correction to Energy=                    0.196724
 Thermal correction to Enthalpy=                  0.197668
 Thermal correction to Gibbs Free Energy=         0.150071
 Sum of electronic and zero-point Energies=          -1028.631490
 Sum of electronic and thermal Energies=             -1028.621249
 Sum of electronic and thermal Enthalpies=           -1028.620305
 Sum of electronic and thermal Free Energies=        -1028.667903

                     E (Thermal)             CV                S
                      KCal/Mol        Cal/Mol-Kelvin    Cal/Mol-Kelvin
 Total                  123.446             43.715            100.178
 Electronic               0.000              0.000              0.000
 Translational            0.889              2.981             42.162
 Rotational               0.889              2.981             32.455
 Vibrational            121.669             37.753             25.561
 Vibration     1          0.598              1.970              4.264
 Vibration     2          0.619              1.900              2.646
 Vibration     3          0.637              1.842              2.148
 Vibration     4          0.644              1.820              2.013
 Vibration     5          0.659              1.774              1.781
 Vibration     6          0.685              1.695              1.482
 Vibration     7          0.711              1.620              1.270
 Vibration     8          0.785              1.422              0.884
 Vibration     9          0.795              1.395              0.843
 Vibration    10          0.812              1.354              0.786
 Vibration    11          0.818              1.339              0.766
 Vibration    12          0.875              1.207              0.611
 Vibration    13          0.893              1.166              0.570
 Vibration    14          0.922              1.105              0.513
 Vibration    15          0.931              1.085              0.495
 Vibration    16          0.942              1.063              0.476

                           ! Non-Optimized Parameters !
 Normal termination of Gaussian 16 at Wed Oct 28 00:35:46 2020.
