 Gaussian 16, Revision C.01,
 Gaussian 16:  ES64L-G16RevC.01  3-Jul-2019

 ----------------------------------------------------------------------
 #p opt=addgic freq wb97xd/cc-pvdz nosymm int=ultrafine scrf=(solvent=C
 arbonTetraChloride)
 ----------------------------------------------------------------------

 ------------------------------------------------
 NM 2D-scan of HBT TD-WB97XD pVDZ in CTC Relaxed.
 ------------------------------------------------
 Symbolic Z-matrix:
 Charge =  0 Multiplicity = 1

 SCF Done:  E(RwB97XD) =  -1028.80833519     A.U. after   15 cycles
 SCF Done:  E(RwB97XD) =  -1028.81500567     A.U. after   13 cycles
 SCF Done:  E(RwB97XD) =  -1028.81662723     A.U. after   13 cycles
 SCF Done:  E(RwB97XD) =  -1028.81701584     A.U. after   12 cycles
 SCF Done:  E(RwB97XD) =  -1028.81713598     A.U. after   11 cycles
 SCF Done:  E(RwB97XD) =  -1028.81715687     A.U. after   10 cycles
 Optimization completed.
    -- Stationary point found.
 Normal termination of Gaussian 16 at Tue Oct 27 20:46:51 2020.

 --------------------------------------------------------------------
 #P Geom=AllCheck Guess=TCheck SCRF=Check GenChk RwB97XD/CC-pVDZ Freq
 --------------------------------------------------------------------

 Structure from the checkpoint file:  "config_7_2.chk"
 ------------------------------------------------
 NM 2D-scan of HBT TD-WB97XD pVDZ in CTC Relaxed.
 ------------------------------------------------
 Charge =  0 Multiplicity = 1

                          Input orientation:
 ---------------------------------------------------------------------
 Center     Atomic      Atomic             Coordinates (Angstroms)
 Number     Number       Type             X           Y           Z
 ---------------------------------------------------------------------
      1          6           0        1.745457   -3.260289   -0.000048
      2          6           0        1.007231   -2.074429   -0.000007
      3          6           0        1.661788   -0.839411    0.000014
      4          6           0        3.056055   -0.745540    0.000004
      5          6           0        3.785818   -1.924298   -0.000033
      6          6           0        3.134688   -3.167675   -0.000061
      7          1           0        1.253314   -4.233015   -0.000062
      8          1           0        3.536473    0.233090    0.000020
      9          1           0        4.875905   -1.886201   -0.000043
     10          1           0        3.726736   -4.083917   -0.000088
     11          7           0        0.794045    0.221000    0.000027
     12         16           0       -0.743474   -1.813601    0.000041
     13          6           0       -1.425359    1.042916    0.000016
     14          6           0       -2.823377    0.909466    0.000005
     15          6           0       -0.836603    2.355626    0.000026
     16          6           0       -3.654935    2.020799    0.000008
     17          1           0       -3.260768   -0.092481   -0.000008
     18          6           0       -1.711771    3.468619    0.000041
     19          6           0       -3.084755    3.303473    0.000032
     20          1           0       -4.737956    1.896503   -0.000002
     21          1           0       -1.257980    4.460597    0.000060
     22          1           0       -3.731545    4.183531    0.000041
     23          6           0       -0.482289   -0.073604    0.000021
     24          8           0        0.456651    2.543486    0.000041
     25          1           0        0.890029    1.530089    0.000037
 ---------------------------------------------------------------------

 SCF Done:  E(RwB97XD) =  -1028.81715687     A.U. after    1 cycles

 Alpha  occ. eigenvalues --  -89.09521 -19.25109 -14.47643 -10.40265 -10.36793
 Alpha  occ. eigenvalues --  -10.35490 -10.35375 -10.32832 -10.32114 -10.31966
 Alpha  occ. eigenvalues --  -10.31942 -10.31914 -10.31609 -10.31018 -10.29711
 Alpha  occ. eigenvalues --  -10.29391  -8.11485  -6.06356  -6.05984  -6.05522
 Alpha  occ. eigenvalues --   -1.14839  -1.09779  -0.97653  -0.95596  -0.92007
 Alpha  occ. eigenvalues --   -0.88798  -0.85586  -0.84101  -0.82902  -0.75704
 Alpha  occ. eigenvalues --   -0.71590  -0.70460  -0.69025  -0.68635  -0.63339
 Alpha  occ. eigenvalues --   -0.60797  -0.59201  -0.57801  -0.56020  -0.54800
 Alpha  occ. eigenvalues --   -0.54503  -0.53512  -0.52286  -0.51153  -0.49882
 Alpha  occ. eigenvalues --   -0.49753  -0.47393  -0.46259  -0.45212  -0.45165
 Alpha  occ. eigenvalues --   -0.43932  -0.43014  -0.42232  -0.40219  -0.36313
 Alpha  occ. eigenvalues --   -0.35107  -0.32748  -0.31516  -0.28192
 Alpha virt. eigenvalues --   -0.00715   0.04390   0.06836   0.07273   0.07861
 Alpha virt. eigenvalues --    0.11060   0.13214   0.14961   0.16044   0.17789
 Alpha virt. eigenvalues --    0.19144   0.20715   0.21721   0.22336   0.22692

 Mulliken charges:
               1
     1  C    0.008046
     2  C   -0.237997
     3  C    0.275785
     4  C   -0.010600
     5  C    0.009338
     6  C    0.001051
     7  H    0.022267
     8  H    0.025488
     9  H    0.023131
    10  H    0.023789
    11  N   -0.298875
    12  S    0.163083
    13  C   -0.107702
    14  C   -0.011304
    15  C    0.099956
    16  C   -0.019153
    17  H    0.004876
    18  C   -0.004192
    19  C    0.022868
    20  H    0.007098
    21  H    0.009950
    22  H    0.015918
    23  C    0.078153
    24  O   -0.286124
    25  H    0.185149
 Sum of Mulliken charges =  -0.00000

 Dipole moment (field-independent basis, Debye):
    X=              0.7246    Y=             -3.4763    Z=             -0.0000  Tot=              3.5510
 Quadrupole moment (field-independent basis, Debye-Ang):
   XX=            -82.7435   YY=            -91.1381   ZZ=           -104.0743
   XY=             -7.1182   XZ=             -0.0002   YZ=              0.0002

  Exact polarizability:     278.306     -70.708     262.357      -0.001       0.002      63.007
 Approx polarizability:     264.756     -25.407     246.205      -0.001       0.002      82.242

 ******    1 imaginary frequencies (negative Signs) ******

                      1                      2                      3
                      A                      A                      A
 Frequencies --    -16.6606                62.8673               117.1975
 Red. masses --      5.4579                 6.0852                 5.3281
 Frc consts  --      0.0009                 0.0142                 0.0431
 IR Inten    --      0.0579                 1.5908                13.0022

                      4                      5                      6
                      A                      A                      A
 Frequencies --    151.0888               196.9703               243.4287
 Red. masses --      4.9970                 5.7921                 5.8376
 Frc consts  --      0.0672                 0.1324                 0.2038
 IR Inten    --      0.2903                 0.2840                 0.2144

                      7                      8                      9
                      A                      A                      A
 Frequencies --    267.6458               318.0178               323.2122
 Red. masses --      6.8942                 4.3016                 5.1989
 Frc consts  --      0.2910                 0.2563                 0.3200
 IR Inten    --     13.6233               117.5567                 0.5135

                     10                     11                     12
                      A                      A                      A
 Frequencies --    406.3513               435.2250               459.4287
 Red. masses --      9.1819                 3.1266                 3.6449
 Frc consts  --      0.8933                 0.3489                 0.4533
 IR Inten    --      4.8637                 2.0547                 8.7635

                     13                     14                     15
                      A                      A                      A
 Frequencies --    479.0616               516.2961               539.7586
 Red. masses --      3.9415                 8.6399                 3.4066
 Frc consts  --      0.5330                 1.3569                 0.5848
 IR Inten    --    138.1314                 5.4621                 3.8420

                     16                     17                     18
                      A                      A                      A
 Frequencies --    558.3415               572.2006               589.5960
 Red. masses --      7.4228                 3.6402                 7.8168
 Frc consts  --      1.3634                 0.7022                 1.6010
 IR Inten    --     14.5067                 0.1323                 2.3150

                     19                     20                     21
                      A                      A                      A
 Frequencies --    648.6444               686.6469               709.9921
 Red. masses --      6.4870                 6.2494                 6.6658
 Frc consts  --      1.6081                 1.7360                 1.9798
 IR Inten    --      0.0201                33.4701                26.3328

                     22                     23                     24
                      A                      A                      A
 Frequencies --    753.5675               767.9963               768.5289
 Red. masses --      2.1636                 2.1856                 9.4167
 Frc consts  --      0.7239                 0.7595                 3.2769
 IR Inten    --     20.7423                13.7992                11.0825

                     25                     26                     27
                      A                      A                      A
 Frequencies --    774.6351               782.6120               847.7204
 Red. masses --      1.6722                 1.7883                 5.9432
 Frc consts  --      0.5912                 0.6453                 2.5164
 IR Inten    --     54.3740                36.4739                16.2106

                     28                     29                     30
                      A                      A                      A
 Frequencies --    881.5557               884.1574               909.9257
 Red. masses --      1.6035                 1.4131                 5.1953
 Frc consts  --      0.7342                 0.6509                 2.5344
 IR Inten    --      6.5210                 0.1428                72.4298

                     31                     32                     33
                      A                      A                      A
 Frequencies --    968.4768               974.4663               983.7167
 Red. masses --      1.3517                 1.3608                 4.2773
 Frc consts  --      0.7470                 0.7613                 2.4387
 IR Inten    --      1.0044                 0.9420               355.0814

                     34                     35                     36
                      A                      A                      A
 Frequencies --   1010.6812              1015.8822              1037.9994
 Red. masses --      1.2998                 1.3056                 3.3979
 Frc consts  --      0.7823                 0.7939                 2.1570
 IR Inten    --      0.2246                 0.0055               197.0504

                     37                     38                     39
                      A                      A                      A
 Frequencies --   1053.3035              1065.7210              1094.9870
 Red. masses --      2.0092                 1.9992                 3.9829
 Frc consts  --      1.3133                 1.3378                 2.8136
 IR Inten    --      2.1036                37.1669                11.1764

                     40                     41                     42
                      A                      A                      A
 Frequencies --   1136.9673              1148.4992              1154.4533
 Red. masses --      1.0626                 1.4807                 1.3107
 Frc consts  --      0.8093                 1.1507                 1.0292
 IR Inten    --     67.4716                 7.9393                 0.8193

                     43                     44                     45
                      A                      A                      A
 Frequencies --   1178.5765              1184.7062              1257.9605
 Red. masses --      1.0838                 1.1630                 2.0400
 Frc consts  --      0.8870                 0.9617                 1.9020
 IR Inten    --    138.4502                12.8759               103.3617

                     46                     47                     48
                      A                      A                      A
 Frequencies --   1288.2962              1312.2528              1347.4389
 Red. masses --      1.5213                 2.6423                 7.2136
 Frc consts  --      1.4876                 2.6808                 7.7165
 IR Inten    --      3.1674               319.9028                 0.6697

                     49                     50                     51
                      A                      A                      A
 Frequencies --   1380.2803              1387.6824              1408.5929
 Red. masses --      6.4367                 2.7387                 2.3996
 Frc consts  --      7.2251                 3.1073                 2.8052
 IR Inten    --      7.5832                19.3964                29.8970

                     52                     53                     54
                      A                      A                      A
 Frequencies --   1495.4996              1501.8478              1531.6297
 Red. masses --      2.7108                 2.8815                 4.2867
 Frc consts  --      3.5721                 3.8293                 5.9248
 IR Inten    --     14.7005                32.1115                28.7499

                     55                     56                     57
                      A                      A                      A
 Frequencies --   1580.1124              1593.9805              1624.0695
 Red. masses --      7.2231                 3.4008                 5.1494
 Frc consts  --     10.6256                 5.0910                 8.0023
 IR Inten    --    447.8463               428.5042               765.9885

                     58                     59                     60
                      A                      A                      A
 Frequencies --   1660.6119              1689.5108              1712.1914
 Red. masses --      7.0803                 6.6049                 4.7834
 Frc consts  --     11.5038                11.1080                 8.2622
 IR Inten    --      9.0234                81.5201               251.0668

                     61                     62                     63
                      A                      A                      A
 Frequencies --   1918.9886              3188.4856              3201.5778
 Red. masses --      1.1137                 1.0895                 1.0883
 Frc consts  --      2.4163                 6.5259                 6.5727
 IR Inten    --    275.8092                 4.5209                 7.4823

                     64                     65                     66
                      A                      A                      A
 Frequencies --   3214.4832              3224.4003              3224.7518
 Red. masses --      1.0862                 1.0936                 1.0906
 Frc consts  --      6.6126                 6.6991                 6.6821
 IR Inten    --      1.3305                13.6245                 3.0155

                     67                     68                     69
                      A                      A                      A
 Frequencies --   3232.3542              3234.3530              3240.8248
 Red. masses --      1.0985                 1.0961                 1.1000
 Frc consts  --      6.7619                 6.7556                 6.8067
 IR Inten    --     20.0437                 8.6046                12.6538

 - Thermochemistry -
 -------------------
 Temperature   298.150 Kelvin.  Pressure   1.00000 Atm.
 Atom     1 has atomic number  6 and mass  12.00000

 Molecular mass:   227.04049 amu.
 Principal axes and moments of inertia in atomic units:
                           1         2         3
     Eigenvalues --  1316.808386257.848597574.65697
           X           -0.70502   0.70919   0.00000
           Y            0.70919   0.70502  -0.00001
           Z            0.00001   0.00000   1.00000
 This molecule is an asymmetric top.
 Rotational symmetry number  1.
 Warning -- assumption of classical behavior for rotation
           may cause significant error
 Rotational temperatures (Kelvin)      0.06578     0.01384     0.01143
 Rotational constants (GHZ):           1.37054     0.28840     0.23826
    1 imaginary frequencies ignored.
 Zero-point vibrational energy     491146.5 (Joules/Mol)
                                  117.38683 (Kcal/Mol)
 Warning -- explicit consideration of  17 degrees of freedom as
           vibrations may cause significant error
 Vibrational temperatures:     90.45   168.62   217.38   283.40   350.24
          (Kelvin)            385.08   457.56   465.03   584.65   626.19
                              661.02   689.26   742.83   776.59   803.33
                              823.27   848.30   933.25   987.93  1021.52
                             1084.22  1104.98  1105.74  1114.53  1126.00
                             1219.68  1268.36  1272.11  1309.18  1393.42
                             1402.04  1415.35  1454.14  1461.63  1493.45
                             1515.47  1533.33  1575.44  1635.84  1652.43
                             1661.00  1695.71  1704.53  1809.92  1853.57
                             1888.04  1938.66  1985.92  1996.57  2026.65
                             2151.69  2160.82  2203.67  2273.43  2293.38
                             2336.67  2389.25  2430.83  2463.46  2761.00
                             4587.52  4606.36  4624.92  4639.19  4639.70
                             4650.64  4653.51  4662.82

 Zero-point correction=                           0.187068 (Hartree/Particle)
 Thermal correction to Energy=                    0.197915
 Thermal correction to Enthalpy=                  0.198859
 Thermal correction to Gibbs Free Energy=         0.149937
 Sum of electronic and zero-point Energies=          -1028.630089
 Sum of electronic and thermal Energies=             -1028.619242
 Sum of electronic and thermal Enthalpies=           -1028.618298
 Sum of electronic and thermal Free Energies=        -1028.667220

                     E (Thermal)             CV                S
                      KCal/Mol        Cal/Mol-Kelvin    Cal/Mol-Kelvin
 Total                  124.193             45.519            102.964
 Electronic               0.000              0.000              0.000
 Translational            0.889              2.981             42.162
 Rotational               0.889              2.981             32.501
 Vibrational            122.416             39.558             28.301
 Vibration     1          0.597              1.972              4.365
 Vibration     2          0.608              1.935              3.146
 Vibration     3          0.619              1.901              2.658
 Vibration     4          0.636              1.844              2.161
 Vibration     5          0.659              1.774              1.778
 Vibration     6          0.673              1.733              1.611
 Vibration     7          0.704              1.639              1.320
 Vibration     8          0.708              1.629              1.294
 Vibration     9          0.771              1.456              0.940
 Vibration    10          0.796              1.393              0.842
 Vibration    11          0.817              1.340              0.768
 Vibration    12          0.835              1.296              0.713
 Vibration    13          0.871              1.214              0.619
 Vibration    14          0.895              1.162              0.566
 Vibration    15          0.914              1.121              0.527
 Vibration    16          0.928              1.091              0.500
 Vibration    17          0.947              1.054              0.468

                           ! Non-Optimized Parameters !
 Normal termination of Gaussian 16 at Tue Oct 27 20:52:59 2020.
