 Gaussian 16, Revision C.01,
 Gaussian 16:  ES64L-G16RevC.01  3-Jul-2019

 ----------------------------------------------------------------------
 #p opt=addgic freq wb97xd/cc-pvdz nosymm int=ultrafine scrf=(solvent=C
 arbonTetraChloride)
 ----------------------------------------------------------------------

 ------------------------------------------------
 NM 2D-scan of HBT TD-WB97XD pVDZ in CTC Relaxed.
 ------------------------------------------------
 Symbolic Z-matrix:
 Charge =  0 Multiplicity = 1

 SCF Done:  E(RwB97XD) =  -1028.73709637     A.U. after   15 cycles
 SCF Done:  E(RwB97XD) =  -1028.81109408     A.U. after   13 cycles
 SCF Done:  E(RwB97XD) =  -1028.81628139     A.U. after   13 cycles
 SCF Done:  E(RwB97XD) =  -1028.82104995     A.U. after   13 cycles
 SCF Done:  E(RwB97XD) =  -1028.82119016     A.U. after   11 cycles
 SCF Done:  E(RwB97XD) =  -1028.82121894     A.U. after   10 cycles
 SCF Done:  E(RwB97XD) =  -1028.82122169     A.U. after    9 cycles
 SCF Done:  E(RwB97XD) =  -1028.82122178     A.U. after    7 cycles
 SCF Done:  E(RwB97XD) =  -1028.82122183     A.U. after    7 cycles
 Optimization completed.
    -- Stationary point found.
 Normal termination of Gaussian 16 at Tue Oct 27 20:57:07 2020.

 --------------------------------------------------------------------
 #P Geom=AllCheck Guess=TCheck SCRF=Check GenChk RwB97XD/CC-pVDZ Freq
 --------------------------------------------------------------------

 Structure from the checkpoint file:  "config_3_2.chk"
 ------------------------------------------------
 NM 2D-scan of HBT TD-WB97XD pVDZ in CTC Relaxed.
 ------------------------------------------------
 Charge =  0 Multiplicity = 1

                          Input orientation:
 ---------------------------------------------------------------------
 Center     Atomic      Atomic             Coordinates (Angstroms)
 Number     Number       Type             X           Y           Z
 ---------------------------------------------------------------------
      1          6           0        1.759342   -3.311185   -0.000058
      2          6           0        0.979297   -2.143396   -0.000040
      3          6           0        1.627814   -0.896189    0.000012
      4          6           0        3.020074   -0.772801    0.000054
      5          6           0        3.782915   -1.922862    0.000038
      6          6           0        3.149082   -3.178474   -0.000020
      7          1           0        1.304306   -4.302214   -0.000096
      8          1           0        3.461124    0.224424    0.000094
      9          1           0        4.872008   -1.862577    0.000067
     10          1           0        3.760315   -4.082606   -0.000032
     11          7           0        0.815609    0.199829    0.000013
     12         16           0       -0.769173   -1.861962   -0.000056
     13          6           0       -1.401016    1.057000   -0.000024
     14          6           0       -2.807992    0.925022   -0.000013
     15          6           0       -0.877996    2.392054   -0.000004
     16          6           0       -3.649401    2.027897    0.000060
     17          1           0       -3.243454   -0.077415   -0.000043
     18          6           0       -1.742859    3.493634    0.000081
     19          6           0       -3.109576    3.322854    0.000120
     20          1           0       -4.730244    1.884986    0.000077
     21          1           0       -1.281474    4.481504    0.000096
     22          1           0       -3.766130    4.194778    0.000181
     23          6           0       -0.451761   -0.077185   -0.000044
     24          8           0        0.415956    2.744644   -0.000129
     25          1           0        0.941593    1.922031   -0.000241
 ---------------------------------------------------------------------

 SCF Done:  E(RwB97XD) =  -1028.82122183     A.U. after    1 cycles

 Alpha  occ. eigenvalues --  -89.09009 -19.28065 -14.46562 -10.39747 -10.37429
 Alpha  occ. eigenvalues --  -10.35139 -10.34537 -10.32977 -10.32585 -10.31888
 Alpha  occ. eigenvalues --  -10.31679 -10.31464 -10.31406 -10.31216 -10.30188
 Alpha  occ. eigenvalues --  -10.29826  -8.10865  -6.05743  -6.05385  -6.04899
 Alpha  occ. eigenvalues --   -1.16469  -1.09030  -0.97159  -0.95948  -0.91058
 Alpha  occ. eigenvalues --   -0.88492  -0.85169  -0.84385  -0.82952  -0.75474
 Alpha  occ. eigenvalues --   -0.71226  -0.70608  -0.69465  -0.68041  -0.62894
 Alpha  occ. eigenvalues --   -0.60299  -0.58590  -0.58296  -0.56262  -0.54423
 Alpha  occ. eigenvalues --   -0.53843  -0.53140  -0.52335  -0.51008  -0.50243
 Alpha  occ. eigenvalues --   -0.49316  -0.47806  -0.45788  -0.45243  -0.44888
 Alpha  occ. eigenvalues --   -0.43662  -0.42828  -0.42651  -0.39690  -0.37079
 Alpha  occ. eigenvalues --   -0.36111  -0.32187  -0.31632  -0.28971
 Alpha virt. eigenvalues --   -0.00445   0.04774   0.06874   0.07216   0.07267
 Alpha virt. eigenvalues --    0.11485   0.12518   0.15089   0.15774   0.17649
 Alpha virt. eigenvalues --    0.18999   0.20440   0.21716   0.22439   0.22759

 Mulliken charges:
               1
     1  C   -0.002948
     2  C   -0.217162
     3  C    0.242164
     4  C   -0.012618
     5  C    0.008749
     6  C   -0.002655
     7  H    0.021692
     8  H    0.017565
     9  H    0.019469
    10  H    0.021813
    11  N   -0.326096
    12  S    0.137178
    13  C   -0.082132
    14  C   -0.013816
    15  C    0.073082
    16  C   -0.009651
    17  H    0.008384
    18  C    0.017586
    19  C    0.019287
    20  H    0.010282
    21  H    0.016093
    22  H    0.017656
    23  C    0.074791
    24  O   -0.194068
    25  H    0.155356
 Sum of Mulliken charges =  -0.00000

 Dipole moment (field-independent basis, Debye):
    X=              0.2774    Y=             -2.1640    Z=             -0.0001  Tot=              2.1817
 Quadrupole moment (field-independent basis, Debye-Ang):
   XX=            -82.6665   YY=            -89.8220   ZZ=           -104.2922
   XY=             -6.9372   XZ=             -0.0003   YZ=              0.0005

  Exact polarizability:     275.866     -65.209     257.388      -0.001       0.004      63.184
 Approx polarizability:     264.058     -22.312     244.160      -0.000       0.004      82.352

                      1                      2                      3
                      A                      A                      A
 Frequencies --     42.3272                50.7579               115.9724
 Red. masses --      5.6604                 5.8462                 5.6921
 Frc consts  --      0.0060                 0.0089                 0.0451
 IR Inten    --      0.0690                 1.1632                 0.8966

                      4                      5                      6
                      A                      A                      A
 Frequencies --    150.6607               199.5776               244.4807
 Red. masses --      4.8157                 5.6492                 5.8341
 Frc consts  --      0.0644                 0.1326                 0.2055
 IR Inten    --      0.0001                 0.3345                 0.0958

                      7                      8                      9
                      A                      A                      A
 Frequencies --    264.0314               302.1073               323.8305
 Red. masses --      8.0593                 6.4352                 5.0451
 Frc consts  --      0.3310                 0.3460                 0.3117
 IR Inten    --      1.3673                 5.7436                 0.6243

                     10                     11                     12
                      A                      A                      A
 Frequencies --    395.3318               439.9204               468.5747
 Red. masses --      8.8412                 3.1651                 3.7523
 Frc consts  --      0.8141                 0.3609                 0.4854
 IR Inten    --      0.3381                 2.0607                 8.9520

                     13                     14                     15
                      A                      A                      A
 Frequencies --    503.2410               512.6266               539.4223
 Red. masses --      4.6487                 8.8614                 3.4728
 Frc consts  --      0.6936                 1.3720                 0.5954
 IR Inten    --      4.0564                 0.1747                 4.1145

                     16                     17                     18
                      A                      A                      A
 Frequencies --    546.0824               572.8233               595.2679
 Red. masses --      8.6945                 3.6907                 7.6958
 Frc consts  --      1.5276                 0.7135                 1.6067
 IR Inten    --      2.9627                 0.0103                 6.2137

                     19                     20                     21
                      A                      A                      A
 Frequencies --    639.7188               675.8053               685.4815
 Red. masses --      4.3092                 6.8112                 8.0074
 Frc consts  --      1.0390                 1.8328                 2.2168
 IR Inten    --      4.0648                35.7427                23.3645

                     22                     23                     24
                      A                      A                      A
 Frequencies --    711.9663               717.6404               754.0364
 Red. masses --      1.2549                 7.6885                 1.9355
 Frc consts  --      0.3748                 2.3330                 0.6484
 IR Inten    --     68.8681                 1.8910                19.8372

                     25                     26                     27
                      A                      A                      A
 Frequencies --    772.0063               778.5525               788.5351
 Red. masses --      2.7137                 1.3926                 1.8896
 Frc consts  --      0.9529                 0.4973                 0.6922
 IR Inten    --     28.9533                45.0970                41.5365

                     28                     29                     30
                      A                      A                      A
 Frequencies --    837.1701               885.3445               886.2028
 Red. masses --      6.1340                 1.4820                 1.4834
 Frc consts  --      2.5329                 0.6844                 0.6864
 IR Inten    --     25.9374                 5.4658                 0.0799

                     31                     32                     33
                      A                      A                      A
 Frequencies --    897.3105               972.7134               973.3559
 Red. masses --      6.4208                 7.5944                 1.3537
 Frc consts  --      3.0460                 4.2336                 0.7556
 IR Inten    --      0.5820                74.4390                 1.4094

                     34                     35                     36
                      A                      A                      A
 Frequencies --    975.0894              1011.3376              1014.5397
 Red. masses --      1.3639                 1.2992                 1.3061
 Frc consts  --      0.7641                 0.7829                 0.7920
 IR Inten    --      1.2467                 0.2867                 0.0087

                     37                     38                     39
                      A                      A                      A
 Frequencies --   1049.5550              1068.9014              1087.5371
 Red. masses --      2.0605                 2.0471                 4.7506
 Frc consts  --      1.3373                 1.3781                 3.3104
 IR Inten    --      8.1386                14.5580                 5.6988

                     40                     41                     42
                      A                      A                      A
 Frequencies --   1142.7603              1149.8092              1174.9091
 Red. masses --      1.5813                 1.2663                 1.1193
 Frc consts  --      1.2167                 0.9864                 0.9103
 IR Inten    --     10.0500                 6.2306                50.7612

                     43                     44                     45
                      A                      A                      A
 Frequencies --   1182.5778              1233.6297              1277.4534
 Red. masses --      1.1793                 1.7508                 2.1538
 Frc consts  --      0.9717                 1.5698                 2.0708
 IR Inten    --      0.1555               172.9058                76.8001

                     46                     47                     48
                      A                      A                      A
 Frequencies --   1281.1251              1297.6062              1354.6434
 Red. masses --      1.5801                 4.9180                 3.2201
 Frc consts  --      1.5280                 4.8789                 3.4816
 IR Inten    --      2.4726                18.7948                16.7271

                     49                     50                     51
                      A                      A                      A
 Frequencies --   1366.9563              1379.3453              1423.8224
 Red. masses --      5.8357                 3.0055                 1.7274
 Frc consts  --      6.4246                 3.3691                 2.0633
 IR Inten    --     18.2239                 4.5832                84.7477

                     52                     53                     54
                      A                      A                      A
 Frequencies --   1490.0775              1494.2891              1516.6263
 Red. masses --      2.6112                 3.1967                 3.2805
 Frc consts  --      3.4160                 4.2056                 4.4457
 IR Inten    --     18.3011                28.1890               127.3036

                     55                     56                     57
                      A                      A                      A
 Frequencies --   1537.8810              1604.4525              1641.8843
 Red. masses --      2.7988                 8.5128                 5.9727
 Frc consts  --      3.9000                12.9115                 9.4865
 IR Inten    --     23.5955               200.5665                29.7151

                     58                     59                     60
                      A                      A                      A
 Frequencies --   1648.9995              1683.8211              1708.2282
 Red. masses --      5.7902                 6.8695                 6.4918
 Frc consts  --      9.2765                11.4755                11.1612
 IR Inten    --     89.6190                 5.5672                88.4079

                     61                     62                     63
                      A                      A                      A
 Frequencies --   3192.9463              3208.6100              3209.7846
 Red. masses --      1.0892                 1.0884                 1.0862
 Frc consts  --      6.5425                 6.6018                 6.5934
 IR Inten    --      3.5123                 6.1715                 0.4268

                     64                     65                     66
                      A                      A                      A
 Frequencies --   3221.0576              3228.1458              3229.4423
 Red. masses --      1.0900                 1.0940                 1.0959
 Frc consts  --      6.6629                 6.7167                 6.7339
 IR Inten    --      3.5540                12.9718                14.3515

                     67                     68                     69
                      A                      A                      A
 Frequencies --   3235.5662              3237.9474              3536.5458
 Red. masses --      1.0994                 1.1002                 1.0659
 Frc consts  --      6.7814                 6.7960                 7.8547
 IR Inten    --     16.0012                13.0749               702.3927

 - Thermochemistry -
 -------------------
 Temperature   298.150 Kelvin.  Pressure   1.00000 Atm.
 Atom     1 has atomic number  6 and mass  12.00000

 Molecular mass:   227.04049 amu.
 Principal axes and moments of inertia in atomic units:
                           1         2         3
     Eigenvalues --  1360.747696358.956117719.70379
           X           -0.69429   0.71969  -0.00000
           Y            0.71969   0.69429  -0.00001
           Z            0.00001   0.00001   1.00000
 This molecule is an asymmetric top.
 Rotational symmetry number  1.
 Warning -- assumption of classical behavior for rotation
           may cause significant error
 Rotational temperatures (Kelvin)      0.06365     0.01362     0.01122
 Rotational constants (GHZ):           1.32629     0.28381     0.23378
 Zero-point vibrational energy     498488.6 (Joules/Mol)
                                  119.14163 (Kcal/Mol)
 Warning -- explicit consideration of  18 degrees of freedom as
           vibrations may cause significant error
 Vibrational temperatures:     60.90    73.03   166.86   216.77   287.15
          (Kelvin)            351.75   379.88   434.66   465.92   568.79
                              632.95   674.17   724.05   737.56   776.11
                              785.69   824.16   856.46   920.41   972.33
                              986.25  1024.36  1032.52  1084.89  1110.74
                             1120.16  1134.53  1204.50  1273.81  1275.05
                             1291.03  1399.52  1400.44  1402.94  1455.09
                             1459.70  1510.08  1537.91  1564.72  1644.18
                             1654.32  1690.43  1701.47  1774.92  1837.97
                             1843.25  1866.97  1949.03  1966.75  1984.57
                             2048.56  2143.89  2149.95  2182.09  2212.67
                             2308.45  2362.31  2372.54  2422.64  2457.76
                             4593.94  4616.47  4618.16  4634.38  4644.58
                             4646.45  4655.26  4658.68  5088.30

 Zero-point correction=                           0.189864 (Hartree/Particle)
 Thermal correction to Energy=                    0.201705
 Thermal correction to Enthalpy=                  0.202649
 Thermal correction to Gibbs Free Energy=         0.150874
 Sum of electronic and zero-point Energies=          -1028.631358
 Sum of electronic and thermal Energies=             -1028.619517
 Sum of electronic and thermal Enthalpies=           -1028.618573
 Sum of electronic and thermal Free Energies=        -1028.670348

                     E (Thermal)             CV                S
                      KCal/Mol        Cal/Mol-Kelvin    Cal/Mol-Kelvin
 Total                  126.572             48.105            108.969
 Electronic               0.000              0.000              0.000
 Translational            0.889              2.981             42.162
 Rotational               0.889              2.981             32.568
 Vibrational            124.794             42.143             34.239
 Vibration     1          0.595              1.980              5.147
 Vibration     2          0.595              1.977              4.788
 Vibration     3          0.608              1.936              3.166
 Vibration     4          0.618              1.902              2.664
 Vibration     5          0.638              1.840              2.137
 Vibration     6          0.660              1.772              1.770
 Vibration     7          0.671              1.739              1.635
 Vibration     8          0.694              1.670              1.405
 Vibration     9          0.708              1.628              1.291
 Vibration    10          0.762              1.480              0.980
 Vibration    11          0.800              1.383              0.827
 Vibration    12          0.826              1.320              0.742
 Vibration    13          0.859              1.243              0.650
 Vibration    14          0.868              1.222              0.627
 Vibration    15          0.894              1.163              0.567
 Vibration    16          0.901              1.148              0.552
 Vibration    17          0.929              1.090              0.499
 Vibration    18          0.953              1.042              0.458

 Optimization completed.
    -- Stationary point found.
 Normal termination of Gaussian 16 at Tue Oct 27 21:03:37 2020.
