 Gaussian 16, Revision C.01,
 Gaussian 16:  ES64L-G16RevC.01  3-Jul-2019

 ----------------------------------------------------------------------
 #p opt=addgic freq wb97xd/cc-pvdz nosymm int=ultrafine scrf=(solvent=C
 arbonTetraChloride)
 ----------------------------------------------------------------------

 ------------------------------------------------
 NM 2D-scan of HBT TD-WB97XD pVDZ in CTC Relaxed.
 ------------------------------------------------
 Symbolic Z-matrix:
 Charge =  0 Multiplicity = 1

 SCF Done:  E(RwB97XD) =  -1028.65996889     A.U. after   16 cycles
 SCF Done:  E(RwB97XD) =  -1028.76504695     A.U. after   13 cycles
 SCF Done:  E(RwB97XD) =  -1028.77031396     A.U. after   14 cycles
 SCF Done:  E(RwB97XD) =  -1028.78789465     A.U. after   14 cycles
 SCF Done:  E(RwB97XD) =  -1028.78846711     A.U. after   12 cycles
 SCF Done:  E(RwB97XD) =  -1028.78889306     A.U. after   11 cycles
 SCF Done:  E(RwB97XD) =  -1028.78889724     A.U. after    9 cycles
 Optimization completed.
    -- Stationary point found.
 Normal termination of Gaussian 16 at Tue Oct 27 20:33:09 2020.

 --------------------------------------------------------------------
 #P Geom=AllCheck Guess=TCheck SCRF=Check GenChk RwB97XD/CC-pVDZ Freq
 --------------------------------------------------------------------

 Structure from the checkpoint file:  "config_12_1.chk"
 ------------------------------------------------
 NM 2D-scan of HBT TD-WB97XD pVDZ in CTC Relaxed.
 ------------------------------------------------
 Charge =  0 Multiplicity = 1

                          Input orientation:
 ---------------------------------------------------------------------
 Center     Atomic      Atomic             Coordinates (Angstroms)
 Number     Number       Type             X           Y           Z
 ---------------------------------------------------------------------
      1          6           0        1.777418   -3.274191    0.000001
      2          6           0        1.024430   -2.101842    0.000009
      3          6           0        1.677092   -0.890000   -0.000014
      4          6           0        3.062943   -0.751248   -0.000031
      5          6           0        3.807940   -1.923366   -0.000032
      6          6           0        3.169128   -3.167783   -0.000020
      7          1           0        1.299018   -4.253118    0.000011
      8          1           0        3.530698    0.233898   -0.000045
      9          1           0        4.897186   -1.870400   -0.000046
     10          1           0        3.768110   -4.078908   -0.000026
     11          7           0        0.770189    0.136760   -0.000032
     12         16           0       -0.747868   -1.811234    0.000038
     13          6           0       -1.448346    1.054505   -0.000012
     14          6           0       -2.859243    0.944924   -0.000042
     15          6           0       -0.805044    2.384926    0.000031
     16          6           0       -3.685441    2.052416   -0.000008
     17          1           0       -3.307353   -0.053289   -0.000092
     18          6           0       -1.744750    3.505773    0.000100
     19          6           0       -3.106197    3.345700    0.000078
     20          1           0       -4.768754    1.929158   -0.000032
     21          1           0       -1.295136    4.500703    0.000163
     22          1           0       -3.757155    4.223897    0.000121
     23          6           0       -0.552704   -0.065144   -0.000009
     24          8           0        0.426139    2.538070    0.000047
     25          1           0        1.238249    1.004227   -0.000090
 ---------------------------------------------------------------------

 SCF Done:  E(RwB97XD) =  -1028.78889724     A.U. after    1 cycles

 Alpha  occ. eigenvalues --  -89.10317 -19.21291 -14.51155 -10.41994 -10.36621
 Alpha  occ. eigenvalues --  -10.36193 -10.36012 -10.33519 -10.33029 -10.32703
 Alpha  occ. eigenvalues --  -10.32391 -10.31119 -10.30982 -10.30518 -10.29002
 Alpha  occ. eigenvalues --  -10.28439  -8.12250  -6.07155  -6.06751  -6.06249
 Alpha  occ. eigenvalues --   -1.13685  -1.10378  -0.98705  -0.94921  -0.93157
 Alpha  occ. eigenvalues --   -0.89363  -0.86409  -0.84166  -0.81504  -0.75785
 Alpha  occ. eigenvalues --   -0.74126  -0.71376  -0.69608  -0.67708  -0.64370
 Alpha  occ. eigenvalues --   -0.60859  -0.59839  -0.56662  -0.56092  -0.55979
 Alpha  occ. eigenvalues --   -0.55014  -0.53530  -0.52757  -0.50617  -0.49448
 Alpha  occ. eigenvalues --   -0.49036  -0.48100  -0.46638  -0.45661  -0.44792
 Alpha  occ. eigenvalues --   -0.44471  -0.42833  -0.41645  -0.40427  -0.36917
 Alpha  occ. eigenvalues --   -0.33664  -0.31701  -0.31345  -0.26141
 Alpha virt. eigenvalues --   -0.01374   0.03663   0.06210   0.06677   0.09536
 Alpha virt. eigenvalues --    0.11080   0.11538   0.14579   0.15886   0.17100
 Alpha virt. eigenvalues --    0.18816   0.19849   0.21159   0.21651   0.22844

 Mulliken charges:
               1
     1  C    0.005833
     2  C   -0.256119
     3  C    0.237309
     4  C   -0.013477
     5  C    0.014336
     6  C    0.001659
     7  H    0.026385
     8  H    0.035609
     9  H    0.028283
    10  H    0.026503
    11  N   -0.067526
    12  S    0.174860
    13  C   -0.146352
    14  C    0.000349
    15  C    0.118532
    16  C   -0.036934
    17  H   -0.000601
    18  C   -0.034662
    19  C    0.029346
    20  H    0.002901
    21  H    0.000331
    22  H    0.012878
    23  C    0.100609
    24  O   -0.373576
    25  H    0.113524
 Sum of Mulliken charges =  -0.00000

 Dipole moment (field-independent basis, Debye):
    X=              2.1306    Y=             -5.0598    Z=             -0.0002  Tot=              5.4901
 Quadrupole moment (field-independent basis, Debye-Ang):
   XX=            -81.9264   YY=            -94.2834   ZZ=           -104.0905
   XY=             -6.8504   XZ=             -0.0003   YZ=             -0.0001

  Exact polarizability:     291.498     -90.135     289.829      -0.001       0.003      63.076
 Approx polarizability:     269.818     -36.428     256.935      -0.001       0.002      82.090

 ******    1 imaginary frequencies (negative Signs) ******

                      1                      2                      3
                      A                      A                      A
 Frequencies --    -64.4572                57.4387                90.4358
 Red. masses --      5.0007                 6.0257                 4.7563
 Frc consts  --      0.0122                 0.0117                 0.0229
 IR Inten    --      2.1472                 1.0319                 0.7107

                      4                      5                      6
                      A                      A                      A
 Frequencies --    107.6964               185.7225               228.6551
 Red. masses --      5.6580                 5.1765                 5.7145
 Frc consts  --      0.0387                 0.1052                 0.1760
 IR Inten    --      0.4905                 0.4812                 3.2310

                      7                      8                      9
                      A                      A                      A
 Frequencies --    264.6624               296.2971               332.1974
 Red. masses --      7.3726                 4.1324                 6.4370
 Frc consts  --      0.3043                 0.2138                 0.4185
 IR Inten    --      3.2536                 7.9786                 5.1323

                     10                     11                     12
                      A                      A                      A
 Frequencies --    379.1688               413.0444               440.0907
 Red. masses --      9.4067                 2.3105                 3.4599
 Frc consts  --      0.7968                 0.2322                 0.3948
 IR Inten    --      7.4584                22.1789                13.8432

                     13                     14                     15
                      A                      A                      A
 Frequencies --    462.3228               496.9165               528.8398
 Red. masses --      1.4975                 7.7464                 2.6571
 Frc consts  --      0.1886                 1.1270                 0.4378
 IR Inten    --     30.4690                 7.6916                 0.7703

                     16                     17                     18
                      A                      A                      A
 Frequencies --    536.8025               553.9727               561.6081
 Red. masses --      9.0687                 6.7571                 3.6763
 Frc consts  --      1.5397                 1.2218                 0.6832
 IR Inten    --      9.5096                 0.8292                 0.2809

                     19                     20                     21
                      A                      A                      A
 Frequencies --    583.9988               636.1091               661.7937
 Red. masses --      7.3395                 6.6177                 5.8532
 Frc consts  --      1.4748                 1.5777                 1.5104
 IR Inten    --     40.9348                 2.4786                 9.3677

                     22                     23                     24
                      A                      A                      A
 Frequencies --    688.4962               738.4101               748.4251
 Red. masses --      6.2746                 7.8281                 2.5321
 Frc consts  --      1.7524                 2.5148                 0.8357
 IR Inten    --     33.3315                40.1735                10.0168

                     25                     26                     27
                      A                      A                      A
 Frequencies --    759.5220               774.4498               777.2576
 Red. masses --      1.4292                 1.6108                 2.3924
 Frc consts  --      0.4858                 0.5692                 0.8515
 IR Inten    --     48.5729                36.1831                39.0011

                     28                     29                     30
                      A                      A                      A
 Frequencies --    822.8105               875.1699               876.1159
 Red. masses --      6.2422                 1.9760                 1.3892
 Frc consts  --      2.4899                 0.8917                 0.6283
 IR Inten    --     27.1997                15.1335                 1.0313

                     31                     32                     33
                      A                      A                      A
 Frequencies --    910.1961               963.3395               968.5636
 Red. masses --      6.0119                 4.0191                 1.3249
 Frc consts  --      2.9345                 2.1976                 0.7323
 IR Inten    --      8.3067                37.7973                 0.3275

                     34                     35                     36
                      A                      A                      A
 Frequencies --    969.5860              1013.8419              1015.2067
 Red. masses --      1.3581                 1.3037                 1.3025
 Frc consts  --      0.7522                 0.7895                 0.7909
 IR Inten    --      1.1586                 0.0024                 0.3094

                     37                     38                     39
                      A                      A                      A
 Frequencies --   1047.7929              1056.0029              1079.1933
 Red. masses --      2.1212                 2.1873                 2.9627
 Frc consts  --      1.3721                 1.4371                 2.0330
 IR Inten    --      7.0984                12.1993                46.1447

                     40                     41                     42
                      A                      A                      A
 Frequencies --   1091.8922              1152.6002              1153.3352
 Red. masses --      2.4166                 1.2957                 1.2684
 Frc consts  --      1.6975                 1.0142                 0.9941
 IR Inten    --     93.7147                15.8510                39.4448

                     43                     44                     45
                      A                      A                      A
 Frequencies --   1180.7013              1187.6940              1230.6125
 Red. masses --      1.1466                 1.1705                 2.1804
 Frc consts  --      0.9418                 0.9728                 1.9455
 IR Inten    --     28.7061                 6.7619                48.0818

                     46                     47                     48
                      A                      A                      A
 Frequencies --   1287.5050              1298.1968              1355.5790
 Red. masses --      1.9302                 1.7359                 5.8225
 Frc consts  --      1.8852                 1.7236                 6.3039
 IR Inten    --    112.4959               153.0125               107.3221

                     49                     50                     51
                      A                      A                      A
 Frequencies --   1372.8814              1396.3191              1415.5675
 Red. masses --      2.5174                 6.4772                 2.2654
 Frc consts  --      2.7955                 7.4405                 2.6746
 IR Inten    --     54.7103                78.8874                18.6462

                     52                     53                     54
                      A                      A                      A
 Frequencies --   1482.3435              1502.8966              1533.8946
 Red. masses --      2.9211                 3.0489                 2.9291
 Frc consts  --      3.7818                 4.0575                 4.0605
 IR Inten    --    552.5587               677.0705               422.1149

                     55                     56                     57
                      A                      A                      A
 Frequencies --   1551.3761              1588.9711              1649.9282
 Red. masses --      4.6478                 6.7406                 6.2812
 Frc consts  --      6.5907                10.0272                10.0744
 IR Inten    --    453.9322               142.7421                46.1279

                     58                     59                     60
                      A                      A                      A
 Frequencies --   1678.2347              1711.4172              1732.3070
 Red. masses --      7.1775                 8.2656                 8.2673
 Frc consts  --     11.9104                14.2638                14.6172
 IR Inten    --     66.9274               101.9605               333.9047

                     61                     62                     63
                      A                      A                      A
 Frequencies --   3175.8525              3189.3907              3214.4996
 Red. masses --      1.0894                 1.0877                 1.0944
 Frc consts  --      6.4738                 6.5187                 6.6628
 IR Inten    --      7.7903                13.9304                25.9375

                     64                     65                     66
                      A                      A                      A
 Frequencies --   3218.2491              3226.9820              3228.0647
 Red. masses --      1.0866                 1.0910                 1.0969
 Frc consts  --      6.6304                 6.6940                 6.7345
 IR Inten    --      1.7562                 0.7661                21.7332

                     67                     68                     69
                      A                      A                      A
 Frequencies --   3235.5164              3243.8884              3892.5055
 Red. masses --      1.0962                 1.0996                 1.0785
 Frc consts  --      6.7615                 6.8175                 9.6280
 IR Inten    --      4.2303                13.3962               139.8047

 - Thermochemistry -
 -------------------
 Temperature   298.150 Kelvin.  Pressure   1.00000 Atm.
 Atom     1 has atomic number  6 and mass  12.00000

 Molecular mass:   227.04049 amu.
 Principal axes and moments of inertia in atomic units:
                           1         2         3
     Eigenvalues --  1311.050526373.936667684.98717
           X           -0.70641   0.70780   0.00000
           Y            0.70780   0.70641  -0.00001
           Z            0.00001   0.00000   1.00000
 This molecule is an asymmetric top.
 Rotational symmetry number  1.
 Warning -- assumption of classical behavior for rotation
           may cause significant error
 Rotational temperatures (Kelvin)      0.06606     0.01359     0.01127
 Rotational constants (GHZ):           1.37656     0.28314     0.23484
    1 imaginary frequencies ignored.
 Zero-point vibrational energy     496936.9 (Joules/Mol)
                                  118.77076 (Kcal/Mol)
 Warning -- explicit consideration of  18 degrees of freedom as
           vibrations may cause significant error
 Vibrational temperatures:     82.64   130.12   154.95   267.21   328.98
          (Kelvin)            380.79   426.31   477.96   545.54   594.28
                              633.19   665.18   714.95   760.88   772.34
                              797.04   808.03   840.24   915.22   952.17
                              990.59  1062.41  1076.82  1092.78  1114.26
                             1118.30  1183.84  1259.17  1260.54  1309.57
                             1386.03  1393.55  1395.02  1458.69  1460.66
                             1507.54  1519.35  1552.72  1570.99  1658.33
                             1659.39  1698.77  1708.83  1770.58  1852.43
                             1867.82  1950.38  1975.27  2008.99  2036.69
                             2132.76  2162.33  2206.93  2232.08  2286.18
                             2373.88  2414.61  2462.35  2492.40  4569.34
                             4588.82  4624.95  4630.34  4642.91  4644.47
                             4655.19  4667.23  5600.45

 Zero-point correction=                           0.189273 (Hartree/Particle)
 Thermal correction to Energy=                    0.200660
 Thermal correction to Enthalpy=                  0.201605
 Thermal correction to Gibbs Free Energy=         0.151381
 Sum of electronic and zero-point Energies=          -1028.599624
 Sum of electronic and thermal Energies=             -1028.588237
 Sum of electronic and thermal Enthalpies=           -1028.587293
 Sum of electronic and thermal Free Energies=        -1028.637516

                     E (Thermal)             CV                S
                      KCal/Mol        Cal/Mol-Kelvin    Cal/Mol-Kelvin
 Total                  125.916             47.128            105.705
 Electronic               0.000              0.000              0.000
 Translational            0.889              2.981             42.162
 Rotational               0.889              2.981             32.529
 Vibrational            124.139             41.166             31.013
 Vibration     1          0.596              1.975              4.543
 Vibration     2          0.602              1.956              3.651
 Vibration     3          0.606              1.943              3.310
 Vibration     4          0.632              1.859              2.270
 Vibration     5          0.651              1.797              1.889
 Vibration     6          0.671              1.738              1.631
 Vibration     7          0.690              1.681              1.438
 Vibration     8          0.714              1.611              1.249
 Vibration     9          0.749              1.515              1.042
 Vibration    10          0.777              1.442              0.916
 Vibration    11          0.800              1.383              0.826
 Vibration    12          0.820              1.334              0.759
 Vibration    13          0.852              1.257              0.666
 Vibration    14          0.884              1.186              0.590
 Vibration    15          0.892              1.169              0.572
 Vibration    16          0.909              1.131              0.536
 Vibration    17          0.917              1.114              0.521
 Vibration    18          0.941              1.066              0.478

 Optimization completed.
    -- Stationary point found.
 Normal termination of Gaussian 16 at Tue Oct 27 20:39:27 2020.
