 Gaussian 16, Revision C.01,
 Gaussian 16:  ES64L-G16RevC.01  3-Jul-2019

 ----------------------------------------------------------------------
 #p opt=addgic freq wb97xd/cc-pvdz nosymm int=ultrafine scrf=(solvent=C
 arbonTetraChloride)
 ----------------------------------------------------------------------

 ------------------------------------------------
 NM 2D-scan of HBT TD-WB97XD pVDZ in CTC Relaxed.
 ------------------------------------------------
 Symbolic Z-matrix:
 Charge =  0 Multiplicity = 1

 SCF Done:  E(RwB97XD) =  -1028.80744775     A.U. after   15 cycles
 SCF Done:  E(RwB97XD) =  -1028.81232442     A.U. after   14 cycles
 SCF Done:  E(RwB97XD) =  -1028.81092976     A.U. after   13 cycles
 SCF Done:  E(RwB97XD) =  -1028.81378358     A.U. after   11 cycles
 SCF Done:  E(RwB97XD) =  -1028.81389097     A.U. after   12 cycles
 SCF Done:  E(RwB97XD) =  -1028.81380567     A.U. after   12 cycles
 SCF Done:  E(RwB97XD) =  -1028.81357734     A.U. after   12 cycles
 SCF Done:  E(RwB97XD) =  -1028.81395063     A.U. after   11 cycles
 SCF Done:  E(RwB97XD) =  -1028.81395389     A.U. after    9 cycles
 Optimization completed.
    -- Stationary point found.
 Normal termination of Gaussian 16 at Wed Oct 28 00:07:41 2020.

 --------------------------------------------------------------------
 #P Geom=AllCheck Guess=TCheck SCRF=Check GenChk RwB97XD/CC-pVDZ Freq
 --------------------------------------------------------------------

 Structure from the checkpoint file:  "config_7_13.chk"
 ------------------------------------------------
 NM 2D-scan of HBT TD-WB97XD pVDZ in CTC Relaxed.
 ------------------------------------------------
 Charge =  0 Multiplicity = 1

                          Input orientation:
 ---------------------------------------------------------------------
 Center     Atomic      Atomic             Coordinates (Angstroms)
 Number     Number       Type             X           Y           Z
 ---------------------------------------------------------------------
      1          6           0        1.584019   -3.242445   -0.000031
      2          6           0        1.006037   -1.977844   -0.000089
      3          6           0        1.760885   -0.795726   -0.000072
      4          6           0        3.158561   -0.885029   -0.000044
      5          6           0        3.741800   -2.151664    0.000018
      6          6           0        2.968966   -3.321283    0.000035
      7          1           0        0.963335   -4.138760   -0.000033
      8          1           0        3.772412    0.016028   -0.000054
      9          1           0        4.829805   -2.231585    0.000055
     10          1           0        3.456587   -4.296760    0.000085
     11          7           0        0.942791    0.334345   -0.000104
     12         16           0       -0.705535   -1.626792   -0.000203
     13          6           0       -1.347278    1.088489    0.000006
     14          6           0       -2.717445    0.781904   -0.000035
     15          6           0       -0.862934    2.432143    0.000318
     16          6           0       -3.660970    1.788157    0.000064
     17          1           0       -3.035798   -0.263960   -0.000174
     18          6           0       -1.866615    3.448191    0.000165
     19          6           0       -3.213917    3.123557    0.000108
     20          1           0       -4.725821    1.556043    0.000018
     21          1           0       -1.544045    4.490554    0.000113
     22          1           0       -3.951137    3.929931    0.000081
     23          6           0       -0.350254    0.059909   -0.000114
     24          8           0        0.412520    2.660913   -0.000019
     25          1           0        0.969972    1.562623    0.000007
 ---------------------------------------------------------------------

 SCF Done:  E(RwB97XD) =  -1028.81395389     A.U. after    1 cycles

 Alpha  occ. eigenvalues --  -89.09349 -19.24017 -14.49198 -10.40181 -10.36559
 Alpha  occ. eigenvalues --  -10.36429 -10.35336 -10.32763 -10.32538 -10.32122
 Alpha  occ. eigenvalues --  -10.32010 -10.31495 -10.31084 -10.30937 -10.29593
 Alpha  occ. eigenvalues --  -10.29408  -8.11486  -6.06337  -6.05970  -6.05527
 Alpha  occ. eigenvalues --   -1.13594  -1.09767  -0.97934  -0.95799  -0.92786
 Alpha  occ. eigenvalues --   -0.88931  -0.86159  -0.83882  -0.82759  -0.75695
 Alpha  occ. eigenvalues --   -0.71765  -0.71196  -0.68887  -0.68060  -0.63732
 Alpha  occ. eigenvalues --   -0.60918  -0.59493  -0.57497  -0.55927  -0.55148
 Alpha  occ. eigenvalues --   -0.54645  -0.53609  -0.52672  -0.50927  -0.49735
 Alpha  occ. eigenvalues --   -0.49570  -0.47222  -0.46485  -0.45297  -0.45089
 Alpha  occ. eigenvalues --   -0.44370  -0.43174  -0.42052  -0.40507  -0.36443
 Alpha  occ. eigenvalues --   -0.34482  -0.32890  -0.31555  -0.27824
 Alpha virt. eigenvalues --   -0.00851   0.04276   0.06381   0.07397   0.08164
 Alpha virt. eigenvalues --    0.11072   0.14710   0.14918   0.16782   0.17773
 Alpha virt. eigenvalues --    0.19082   0.20681   0.21582   0.22026   0.22883

 Mulliken charges:
               1
     1  C    0.019161
     2  C   -0.227393
     3  C    0.263011
     4  C   -0.013706
     5  C    0.005864
     6  C    0.004919
     7  H    0.021733
     8  H    0.027187
     9  H    0.024462
    10  H    0.024251
    11  N   -0.282936
    12  S    0.175350
    13  C   -0.087313
    14  C   -0.023023
    15  C    0.114688
    16  C   -0.019750
    17  H    0.012860
    18  C   -0.017535
    19  C    0.023124
    20  H    0.005113
    21  H    0.008270
    22  H    0.015942
    23  C    0.075456
    24  O   -0.358414
    25  H    0.208678
 Sum of Mulliken charges =  -0.00000

 Dipole moment (field-independent basis, Debye):
    X=              0.7742    Y=             -4.2572    Z=              0.0001  Tot=              4.3270
 Quadrupole moment (field-independent basis, Debye-Ang):
   XX=            -82.5493   YY=            -92.6096   ZZ=           -103.9393
   XY=             -7.1139   XZ=              0.0007   YZ=              0.0005

  Exact polarizability:     278.920     -75.105     265.356       0.001       0.006      62.822
 Approx polarizability:     263.991     -26.880     247.976       0.002       0.005      82.098

 ******    1 imaginary frequencies (negative Signs) ******

                      1                      2                      3
                      A                      A                      A
 Frequencies --  -1148.0355                48.8290                63.9621
 Red. masses --      1.1131                 4.8001                 6.3433
 Frc consts  --      0.8643                 0.0067                 0.0153
 IR Inten    --   1663.6560                 0.0323                 1.4203

                      4                      5                      6
                      A                      A                      A
 Frequencies --    143.1168               152.0413               200.9534
 Red. masses --      5.5870                 5.1472                 6.3509
 Frc consts  --      0.0674                 0.0701                 0.1511
 IR Inten    --      0.8235                 0.8324                 0.1808

                      7                      8                      9
                      A                      A                      A
 Frequencies --    243.0551               282.1905               323.7756
 Red. masses --      5.9040                 7.1434                 5.2540
 Frc consts  --      0.2055                 0.3351                 0.3245
 IR Inten    --      0.3298                 4.3110                 0.2891

                     10                     11                     12
                      A                      A                      A
 Frequencies --    382.3635               428.4734               433.4888
 Red. masses --      6.1651                11.6917                 3.1171
 Frc consts  --      0.5311                 1.2647                 0.3451
 IR Inten    --      2.6681                 1.7301                 1.1800

                     13                     14                     15
                      A                      A                      A
 Frequencies --    458.0428               517.4420               537.4234
 Red. masses --      3.5642                 8.7194                 3.2438
 Frc consts  --      0.4406                 1.3755                 0.5520
 IR Inten    --      9.4048                 5.0442                 3.8207

                     16                     17                     18
                      A                      A                      A
 Frequencies --    558.6980               571.6178               577.1512
 Red. masses --      8.7155                 3.6900                 7.4960
 Frc consts  --      1.6029                 0.7104                 1.4712
 IR Inten    --      6.2884                 0.1102                 6.3248

                     19                     20                     21
                      A                      A                      A
 Frequencies --    619.9437               648.6707               693.6217
 Red. masses --      7.3492                 6.4854                 6.3779
 Frc consts  --      1.6642                 1.6078                 1.8079
 IR Inten    --     26.9090                 0.0000                 1.7791

                     22                     23                     24
                      A                      A                      A
 Frequencies --    734.3230               754.1606               767.0667
 Red. masses --      6.5467                 2.2716                 1.5835
 Frc consts  --      2.0799                 0.7612                 0.5490
 IR Inten    --      6.8776                19.8547                38.3046

                     25                     26                     27
                      A                      A                      A
 Frequencies --    776.1961               777.7535               780.6205
 Red. masses --      2.3427                 8.3144                 1.7508
 Frc consts  --      0.8316                 2.9632                 0.6286
 IR Inten    --     19.8786                32.6997                49.6273

                     28                     29                     30
                      A                      A                      A
 Frequencies --    858.1001               878.1934               885.2413
 Red. masses --      6.2807                 1.6691                 1.3887
 Frc consts  --      2.7248                 0.7584                 0.6412
 IR Inten    --     15.4372                 7.4554                 0.4786

                     31                     32                     33
                      A                      A                      A
 Frequencies --    930.2646               964.8666               973.6568
 Red. masses --      7.1873                 1.3486                 1.3632
 Frc consts  --      3.6646                 0.7397                 0.7614
 IR Inten    --      4.3404                 0.7198                 1.5097

                     34                     35                     36
                      A                      A                      A
 Frequencies --   1011.7891              1015.6032              1017.9705
 Red. masses --      1.3053                 1.3059                 7.4936
 Frc consts  --      0.7873                 0.7936                 4.5752
 IR Inten    --      0.3006                 0.0016                12.3286

                     37                     38                     39
                      A                      A                      A
 Frequencies --   1053.4812              1059.4056              1107.3944
 Red. masses --      2.0251                 1.9135                 3.3067
 Frc consts  --      1.3242                 1.2654                 2.3892
 IR Inten    --      8.3255                 7.9611                 2.8317

                     40                     41                     42
                      A                      A                      A
 Frequencies --   1158.5698              1161.0511              1175.6411
 Red. masses --      1.4058                 1.3996                 1.1038
 Frc consts  --      1.1118                 1.1116                 0.8989
 IR Inten    --     10.6824                 1.1696                86.5330

                     43                     44                     45
                      A                      A                      A
 Frequencies --   1178.6192              1184.2681              1258.1640
 Red. masses --      1.0556                 1.2173                 1.9763
 Frc consts  --      0.8640                 1.0059                 1.8432
 IR Inten    --     70.6656                 0.7420                48.1072

                     46                     47                     48
                      A                      A                      A
 Frequencies --   1290.0238              1324.9611              1339.1304
 Red. masses --      1.5411                 4.0927                 2.6814
 Frc consts  --      1.5111                 4.2332                 2.8330
 IR Inten    --      6.2894               359.0496                20.3145

                     49                     50                     51
                      A                      A                      A
 Frequencies --   1377.9480              1395.3856              1401.2145
 Red. masses --      6.4221                 2.5387                 7.0685
 Frc consts  --      7.1845                 2.9124                 8.1768
 IR Inten    --     27.4500                16.7263                12.6397

                     52                     53                     54
                      A                      A                      A
 Frequencies --   1488.2846              1499.6496              1512.2520
 Red. masses --      2.7819                 2.8394                 3.1604
 Frc consts  --      3.6305                 3.7623                 4.2584
 IR Inten    --     37.5107                14.3137                32.0235

                     55                     56                     57
                      A                      A                      A
 Frequencies --   1566.0554              1579.7293              1616.5898
 Red. masses --      6.1327                 5.1545                 6.1606
 Frc consts  --      8.8617                 7.5788                 9.4857
 IR Inten    --   1300.5594               235.2174                91.4533

                     58                     59                     60
                      A                      A                      A
 Frequencies --   1658.3791              1680.2373              1705.7662
 Red. masses --      6.9488                 6.7879                 6.8306
 Frc consts  --     11.2598                11.2909                11.7098
 IR Inten    --      3.1862                 2.2098               212.1627

                     61                     62                     63
                      A                      A                      A
 Frequencies --   1941.7836              3194.2024              3201.9271
 Red. masses --      1.0975                 1.0887                 1.0888
 Frc consts  --      2.4381                 6.5443                 6.5770
 IR Inten    --    188.4559                 3.2497                10.6949

                     64                     65                     66
                      A                      A                      A
 Frequencies --   3213.7853              3223.4547              3225.8494
 Red. masses --      1.0862                 1.0908                 1.0938
 Frc consts  --      6.6101                 6.6781                 6.7061
 IR Inten    --      1.4844                 2.6483                18.9461

                     67                     68                     69
                      A                      A                      A
 Frequencies --   3233.3425              3236.2533              3239.8620
 Red. masses --      1.0960                 1.0980                 1.0998
 Frc consts  --      6.7507                 6.7757                 6.8020
 IR Inten    --      6.5824                17.9850                12.2178

 - Thermochemistry -
 -------------------
 Temperature   298.150 Kelvin.  Pressure   1.00000 Atm.
 Atom     1 has atomic number  6 and mass  12.00000

 Molecular mass:   227.04049 amu.
 Principal axes and moments of inertia in atomic units:
                           1         2         3
     Eigenvalues --  1275.224286235.008367510.23262
           X            0.70793   0.70628  -0.00002
           Y           -0.70628   0.70793  -0.00004
           Z           -0.00002   0.00004   1.00000
 This molecule is an asymmetric top.
 Rotational symmetry number  1.
 Warning -- assumption of classical behavior for rotation
           may cause significant error
 Rotational temperatures (Kelvin)      0.06792     0.01389     0.01153
 Rotational constants (GHZ):           1.41523     0.28945     0.24030
    1 imaginary frequencies ignored.
 Zero-point vibrational energy     487438.4 (Joules/Mol)
                                  116.50056 (Kcal/Mol)
 Warning -- explicit consideration of  18 degrees of freedom as
           vibrations may cause significant error
 Vibrational temperatures:     70.25    92.03   205.91   218.75   289.13
          (Kelvin)            349.70   406.01   465.84   550.14   616.48
                              623.69   659.02   744.48   773.23   803.84
                              822.43   830.39   891.96   933.29   997.97
                             1056.53  1085.07  1103.64  1116.77  1119.01
                             1123.14  1234.61  1263.52  1273.66  1338.44
                             1388.23  1400.88  1455.74  1461.23  1464.63
                             1515.72  1524.25  1593.29  1666.92  1670.49
                             1691.49  1695.77  1703.90  1810.22  1856.06
                             1906.32  1926.71  1982.56  2007.65  2016.04
                             2141.31  2157.66  2175.79  2253.20  2272.88
                             2325.91  2386.04  2417.49  2454.22  2793.79
                             4595.74  4606.86  4623.92  4637.83  4641.28
                             4652.06  4656.25  4661.44

 Zero-point correction=                           0.185655 (Hartree/Particle)
 Thermal correction to Energy=                    0.197031
 Thermal correction to Enthalpy=                  0.197975
 Thermal correction to Gibbs Free Energy=         0.147403
 Sum of electronic and zero-point Energies=          -1028.628298
 Sum of electronic and thermal Energies=             -1028.616923
 Sum of electronic and thermal Enthalpies=           -1028.615979
 Sum of electronic and thermal Free Energies=        -1028.666551

                     E (Thermal)             CV                S
                      KCal/Mol        Cal/Mol-Kelvin    Cal/Mol-Kelvin
 Total                  123.639             46.474            106.438
 Electronic               0.000              0.000              0.000
 Translational            0.889              2.981             42.162
 Rotational               0.889              2.981             32.457
 Vibrational            121.861             40.512             31.819
 Vibration     1          0.595              1.978              4.864
 Vibration     2          0.597              1.972              4.331
 Vibration     3          0.616              1.910              2.762
 Vibration     4          0.619              1.900              2.647
 Vibration     5          0.638              1.839              2.124
 Vibration     6          0.659              1.774              1.780
 Vibration     7          0.681              1.707              1.520
 Vibration     8          0.708              1.628              1.291
 Vibration     9          0.752              1.508              1.030
 Vibration    10          0.790              1.408              0.864
 Vibration    11          0.794              1.397              0.847
 Vibration    12          0.816              1.343              0.772
 Vibration    13          0.872              1.211              0.616
 Vibration    14          0.892              1.167              0.571
 Vibration    15          0.914              1.121              0.526
 Vibration    16          0.928              1.093              0.501
 Vibration    17          0.934              1.081              0.491
 Vibration    18          0.980              0.990              0.417

 Optimization completed.
    -- Stationary point found.
 Normal termination of Gaussian 16 at Wed Oct 28 00:14:09 2020.
