 Gaussian 16, Revision C.01,
 Gaussian 16:  ES64L-G16RevC.01  3-Jul-2019

 ----------------------------------------------------------------------
 #p opt=addgic freq wb97xd/cc-pvdz nosymm int=ultrafine scrf=(solvent=C
 arbonTetraChloride)
 ----------------------------------------------------------------------

 ------------------------------------------------
 NM 2D-scan of HBT TD-WB97XD pVDZ in CTC Relaxed.
 ------------------------------------------------
 Symbolic Z-matrix:
 Charge =  0 Multiplicity = 1

 SCF Done:  E(RwB97XD) =  -1028.73482054     A.U. after   16 cycles
 SCF Done:  E(RwB97XD) =  -1028.79314420     A.U. after   14 cycles
 SCF Done:  E(RwB97XD) =  -1028.80054785     A.U. after   13 cycles
 SCF Done:  E(RwB97XD) =  -1028.80141122     A.U. after   13 cycles
 SCF Done:  E(RwB97XD) =  -1028.80159389     A.U. after   12 cycles
 SCF Done:  E(RwB97XD) =  -1028.80166488     A.U. after   11 cycles
 SCF Done:  E(RwB97XD) =  -1028.80166554     A.U. after    9 cycles
 Optimization completed.
    -- Stationary point found.
 Normal termination of Gaussian 16 at Tue Oct 27 21:22:01 2020.

 --------------------------------------------------------------------
 #P Geom=AllCheck Guess=TCheck SCRF=Check GenChk RwB97XD/CC-pVDZ Freq
 --------------------------------------------------------------------

 Structure from the checkpoint file:  "config_11_4.chk"
 ------------------------------------------------
 NM 2D-scan of HBT TD-WB97XD pVDZ in CTC Relaxed.
 ------------------------------------------------
 Charge =  0 Multiplicity = 1

                          Input orientation:
 ---------------------------------------------------------------------
 Center     Atomic      Atomic             Coordinates (Angstroms)
 Number     Number       Type             X           Y           Z
 ---------------------------------------------------------------------
      1          6           0        1.729735   -3.272607   -0.000015
      2          6           0        1.015430   -2.076992   -0.000005
      3          6           0        1.696413   -0.871875   -0.000012
      4          6           0        3.086905   -0.785328   -0.000019
      5          6           0        3.795133   -1.980904   -0.000024
      6          6           0        3.122844   -3.208481   -0.000025
      7          1           0        1.218335   -4.234953   -0.000016
      8          1           0        3.587199    0.183429   -0.000021
      9          1           0        4.885490   -1.959832   -0.000030
     10          1           0        3.696164   -4.136014   -0.000034
     11          7           0        0.814315    0.178378   -0.000019
     12         16           0       -0.742738   -1.770849    0.000009
     13          6           0       -1.417728    1.062764   -0.000002
     14          6           0       -2.826190    0.903781   -0.000017
     15          6           0       -0.817644    2.406266    0.000024
     16          6           0       -3.680345    1.984692    0.000011
     17          1           0       -3.242362   -0.108154   -0.000052
     18          6           0       -1.781111    3.499102    0.000074
     19          6           0       -3.135944    3.295388    0.000065
     20          1           0       -4.760112    1.834324   -0.000002
     21          1           0       -1.360938    4.506632    0.000116
     22          1           0       -3.812214    4.154158    0.000098
     23          6           0       -0.505894   -0.034335   -0.000007
     24          8           0        0.414628    2.601766    0.000027
     25          1           0        1.202216    1.100264   -0.000050
 ---------------------------------------------------------------------

 SCF Done:  E(RwB97XD) =  -1028.80166554     A.U. after    1 cycles

 Alpha  occ. eigenvalues --  -89.10232 -19.21447 -14.51248 -10.41709 -10.36780
 Alpha  occ. eigenvalues --  -10.36200 -10.35995 -10.33424 -10.32956 -10.32623
 Alpha  occ. eigenvalues --  -10.32341 -10.31169 -10.30868 -10.30594 -10.29065
 Alpha  occ. eigenvalues --  -10.28503  -8.12197  -6.07093  -6.06698  -6.06201
 Alpha  occ. eigenvalues --   -1.13519  -1.10218  -0.98638  -0.95028  -0.93172
 Alpha  occ. eigenvalues --   -0.89331  -0.86461  -0.84086  -0.81671  -0.75741
 Alpha  occ. eigenvalues --   -0.73686  -0.71613  -0.69457  -0.67846  -0.64559
 Alpha  occ. eigenvalues --   -0.60883  -0.59807  -0.56687  -0.56047  -0.55926
 Alpha  occ. eigenvalues --   -0.55010  -0.53583  -0.52917  -0.50579  -0.49565
 Alpha  occ. eigenvalues --   -0.49051  -0.48170  -0.46692  -0.45634  -0.44784
 Alpha  occ. eigenvalues --   -0.44524  -0.42926  -0.41736  -0.40462  -0.36872
 Alpha  occ. eigenvalues --   -0.33609  -0.31680  -0.31632  -0.26276
 Alpha virt. eigenvalues --   -0.01315   0.03727   0.06152   0.06700   0.09380
 Alpha virt. eigenvalues --    0.11098   0.12363   0.14623   0.15943   0.17210
 Alpha virt. eigenvalues --    0.18876   0.19948   0.21190   0.21642   0.22990

 Mulliken charges:
               1
     1  C    0.009491
     2  C   -0.251497
     3  C    0.247047
     4  C   -0.010659
     5  C    0.013394
     6  C    0.001903
     7  H    0.025712
     8  H    0.033351
     9  H    0.027717
    10  H    0.026219
    11  N   -0.089312
    12  S    0.178873
    13  C   -0.136559
    14  C   -0.002758
    15  C    0.115331
    16  C   -0.035007
    17  H    0.000993
    18  C   -0.028554
    19  C    0.028266
    20  H    0.002818
    21  H    0.000993
    22  H    0.013177
    23  C    0.090394
    24  O   -0.382490
    25  H    0.121156
 Sum of Mulliken charges =  -0.00000

 Dipole moment (field-independent basis, Debye):
    X=              1.9442    Y=             -5.0845    Z=             -0.0001  Tot=              5.4436
 Quadrupole moment (field-independent basis, Debye-Ang):
   XX=            -82.0624   YY=            -94.4556   ZZ=           -104.0516
   XY=             -6.8730   XZ=             -0.0002   YZ=              0.0001

  Exact polarizability:     289.527     -88.434     287.492      -0.001       0.003      63.014
 Approx polarizability:     268.332     -34.829     256.232      -0.001       0.002      82.040

 ******    1 imaginary frequencies (negative Signs) ******

                      1                      2                      3
                      A                      A                      A
 Frequencies --    -11.7091                64.3203               109.9502
 Red. masses --      4.9921                 6.4363                 5.6673
 Frc consts  --      0.0004                 0.0157                 0.0404
 IR Inten    --      0.9415                 2.1600                 0.7378

                      4                      5                      6
                      A                      A                      A
 Frequencies --    120.7437               192.1684               232.6348
 Red. masses --      5.0994                 5.7591                 5.9107
 Frc consts  --      0.0438                 0.1253                 0.1885
 IR Inten    --      0.3773                 0.0219                 0.9730

                      7                      8                      9
                      A                      A                      A
 Frequencies --    266.0845               305.4293               326.2836
 Red. masses --      7.4303                 5.1731                 6.4492
 Frc consts  --      0.3100                 0.2843                 0.4045
 IR Inten    --      3.9309                 2.3025                 5.2609

                     10                     11                     12
                      A                      A                      A
 Frequencies --    390.3797               427.5778               443.9157
 Red. masses --      9.6602                 3.2648                 3.5551
 Frc consts  --      0.8674                 0.3517                 0.4128
 IR Inten    --      6.1269                 1.1576                10.7224

                     13                     14                     15
                      A                      A                      A
 Frequencies --    503.2200               526.4444               537.8433
 Red. masses --      8.0036                 2.7416                 8.8546
 Frc consts  --      1.1941                 0.4477                 1.5091
 IR Inten    --      8.6225                 9.7038                 9.5706

                     16                     17                     18
                      A                      A                      A
 Frequencies --    556.5563               561.3178               585.3678
 Red. masses --      6.6677                 3.7150                 7.2099
 Frc consts  --      1.2169                 0.6896                 1.4556
 IR Inten    --      1.0505                 0.1056                38.1572

                     19                     20                     21
                      A                      A                      A
 Frequencies --    610.5625               659.8282               664.5505
 Red. masses --      1.8283                 5.7904                 1.9539
 Frc consts  --      0.4016                 1.4853                 0.5084
 IR Inten    --     20.9968                 7.6565                31.7375

                     22                     23                     24
                      A                      A                      A
 Frequencies --    698.7372               740.5721               750.6073
 Red. masses --      6.2024                 8.0645                 2.6708
 Frc consts  --      1.7842                 2.6059                 0.8866
 IR Inten    --     35.1315                50.5629                 9.0820

                     25                     26                     27
                      A                      A                      A
 Frequencies --    761.0044               776.2476               780.5545
 Red. masses --      1.4129                 1.5824                 2.3888
 Frc consts  --      0.4821                 0.5618                 0.8575
 IR Inten    --     48.8843                33.0822                45.5419

                     28                     29                     30
                      A                      A                      A
 Frequencies --    829.7276               877.1631               881.0755
 Red. masses --      6.2074                 1.9690                 1.3801
 Frc consts  --      2.5179                 0.8926                 0.6312
 IR Inten    --     23.0771                15.5969                 1.5634

                     31                     32                     33
                      A                      A                      A
 Frequencies --    899.5727               958.0364               968.0937
 Red. masses --      4.7257                 4.0478                 1.3249
 Frc consts  --      2.2532                 2.1890                 0.7316
 IR Inten    --      1.5889                44.5607                 0.2212

                     34                     35                     36
                      A                      A                      A
 Frequencies --    971.7358              1014.9005              1016.1356
 Red. masses --      1.3572                 1.3027                 1.3032
 Frc consts  --      0.7551                 0.7906                 0.7928
 IR Inten    --      1.4472                 0.0066                 0.3465

                     37                     38                     39
                      A                      A                      A
 Frequencies --   1045.8063              1057.6582              1080.0527
 Red. masses --      2.1448                 2.1673                 3.1385
 Frc consts  --      1.3821                 1.4284                 2.1571
 IR Inten    --      9.3598                11.4922                42.6319

                     40                     41                     42
                      A                      A                      A
 Frequencies --   1105.7190              1155.2280              1157.2837
 Red. masses --      2.3650                 1.3256                 1.2187
 Frc consts  --      1.7036                 1.0423                 0.9617
 IR Inten    --     90.5998                 8.3922                57.0099

                     43                     44                     45
                      A                      A                      A
 Frequencies --   1182.2698              1191.0705              1246.8870
 Red. masses --      1.1438                 1.1991                 2.0370
 Frc consts  --      0.9419                 1.0022                 1.8659
 IR Inten    --     20.1010                10.1652                10.5159

                     46                     47                     48
                      A                      A                      A
 Frequencies --   1292.2327              1298.9858              1369.3504
 Red. masses --      1.6914                 2.1629                 2.7982
 Frc consts  --      1.6641                 2.1503                 3.0914
 IR Inten    --     39.7503               171.9034               104.8215

                     49                     50                     51
                      A                      A                      A
 Frequencies --   1376.4057              1394.0096              1417.4813
 Red. masses --      5.9398                 6.2764                 2.2813
 Frc consts  --      6.6300                 7.1861                 2.7006
 IR Inten    --     14.3485                95.9487                20.1517

                     52                     53                     54
                      A                      A                      A
 Frequencies --   1489.5370              1505.1878              1531.7044
 Red. masses --      2.8077                 2.9759                 2.9744
 Frc consts  --      3.6704                 3.9723                 4.1115
 IR Inten    --    226.4041               640.9756               264.1118

                     55                     56                     57
                      A                      A                      A
 Frequencies --   1554.7747              1596.7309              1643.4750
 Red. masses --      4.7070                 6.6172                 6.7364
 Frc consts  --      6.7039                 9.9400                10.7202
 IR Inten    --    920.5338               183.8288                98.6570

                     58                     59                     60
                      A                      A                      A
 Frequencies --   1682.0159              1695.8957              1720.8869
 Red. masses --      7.1944                 7.8171                 7.5473
 Frc consts  --     11.9924                13.2462                13.1687
 IR Inten    --     74.7809               109.6746               312.9082

                     61                     62                     63
                      A                      A                      A
 Frequencies --   3176.0960              3190.2054              3216.8268
 Red. masses --      1.0896                 1.0879                 1.0944
 Frc consts  --      6.4759                 6.5232                 6.6722
 IR Inten    --      6.1833                14.7761                25.1387

                     64                     65                     66
                      A                      A                      A
 Frequencies --   3218.2620              3228.8057              3230.0931
 Red. masses --      1.0866                 1.0907                 1.0968
 Frc consts  --      6.6306                 6.6995                 6.7424
 IR Inten    --      2.1252                 1.7440                20.3724

                     67                     68                     69
                      A                      A                      A
 Frequencies --   3237.0047              3244.3780              3673.4132
 Red. masses --      1.0965                 1.0996                 1.0819
 Frc consts  --      6.7695                 6.8197                 8.6013
 IR Inten    --      3.7705                12.5660               186.7312

 - Thermochemistry -
 -------------------
 Temperature   298.150 Kelvin.  Pressure   1.00000 Atm.
 Atom     1 has atomic number  6 and mass  12.00000

 Molecular mass:   227.04049 amu.
 Principal axes and moments of inertia in atomic units:
                           1         2         3
     Eigenvalues --  1307.522516354.301407661.82390
           X           -0.70575   0.70846   0.00000
           Y            0.70846   0.70575  -0.00001
           Z            0.00001   0.00000   1.00000
 This molecule is an asymmetric top.
 Rotational symmetry number  1.
 Warning -- assumption of classical behavior for rotation
           may cause significant error
 Rotational temperatures (Kelvin)      0.06624     0.01363     0.01130
 Rotational constants (GHZ):           1.38028     0.28402     0.23555
    1 imaginary frequencies ignored.
 Zero-point vibrational energy     497736.7 (Joules/Mol)
                                  118.96192 (Kcal/Mol)
 Warning -- explicit consideration of  18 degrees of freedom as
           vibrations may cause significant error
 Vibrational temperatures:     92.54   158.19   173.72   276.49   334.71
          (Kelvin)            382.84   439.44   469.45   561.67   615.19
                              638.70   724.02   757.44   773.84   800.76
                              807.61   842.21   878.46   949.35   956.14
                             1005.33  1065.52  1079.96  1094.92  1116.85
                             1123.04  1193.79  1262.04  1267.67  1294.28
                             1378.40  1392.87  1398.11  1460.22  1461.99
                             1504.68  1521.73  1553.95  1590.88  1662.12
                             1665.07  1701.02  1713.68  1793.99  1859.23
                             1868.95  1970.19  1980.34  2005.67  2039.44
                             2143.11  2165.63  2203.78  2236.97  2297.34
                             2364.59  2420.05  2440.02  2475.97  4569.69
                             4589.99  4628.30  4630.36  4645.53  4647.38
                             4657.33  4667.94  5285.22

 Zero-point correction=                           0.189578 (Hartree/Particle)
 Thermal correction to Energy=                    0.200708
 Thermal correction to Enthalpy=                  0.201652
 Thermal correction to Gibbs Free Energy=         0.152134
 Sum of electronic and zero-point Energies=          -1028.612088
 Sum of electronic and thermal Energies=             -1028.600957
 Sum of electronic and thermal Enthalpies=           -1028.600013
 Sum of electronic and thermal Free Energies=        -1028.649531

                     E (Thermal)             CV                S
                      KCal/Mol        Cal/Mol-Kelvin    Cal/Mol-Kelvin
 Total                  125.946             46.532            104.219
 Electronic               0.000              0.000              0.000
 Translational            0.889              2.981             42.162
 Rotational               0.889              2.981             32.521
 Vibrational            124.169             40.570             29.536
 Vibration     1          0.597              1.971              4.320
 Vibration     2          0.606              1.941              3.270
 Vibration     3          0.609              1.932              3.088
 Vibration     4          0.634              1.851              2.207
 Vibration     5          0.653              1.791              1.859
 Vibration     6          0.672              1.735              1.622
 Vibration     7          0.696              1.663              1.387
 Vibration     8          0.710              1.623              1.278
 Vibration     9          0.758              1.491              0.999
 Vibration    10          0.789              1.410              0.867
 Vibration    11          0.803              1.374              0.814
 Vibration    12          0.859              1.243              0.650
 Vibration    13          0.881              1.191              0.595
 Vibration    14          0.893              1.166              0.570
 Vibration    15          0.912              1.125              0.531
 Vibration    16          0.917              1.115              0.521
 Vibration    17          0.942              1.063              0.476
 Vibration    18          0.970              1.009              0.432

 Optimization completed.
    -- Stationary point found.
 Normal termination of Gaussian 16 at Tue Oct 27 21:28:10 2020.
