 Gaussian 16, Revision C.01,
 Gaussian 16:  ES64L-G16RevC.01  3-Jul-2019

 ----------------------------------------------------------------------
 #p opt=addgic freq wb97xd/cc-pvdz nosymm int=ultrafine scrf=(solvent=C
 arbonTetraChloride)
 ----------------------------------------------------------------------

 ------------------------------------------------
 NM 2D-scan of HBT TD-WB97XD pVDZ in CTC Relaxed.
 ------------------------------------------------
 Symbolic Z-matrix:
 Charge =  0 Multiplicity = 1

 SCF Done:  E(RwB97XD) =  -1028.81181465     A.U. after   15 cycles
 SCF Done:  E(RwB97XD) =  -1028.81839370     A.U. after   13 cycles
 SCF Done:  E(RwB97XD) =  -1028.81995703     A.U. after   13 cycles
 SCF Done:  E(RwB97XD) =  -1028.82025160     A.U. after   12 cycles
 SCF Done:  E(RwB97XD) =  -1028.82032937     A.U. after   11 cycles
 SCF Done:  E(RwB97XD) =  -1028.82034048     A.U. after   10 cycles
 Optimization completed.
    -- Stationary point found.
 Normal termination of Gaussian 16 at Tue Oct 27 23:55:34 2020.

 --------------------------------------------------------------------
 #P Geom=AllCheck Guess=TCheck SCRF=Check GenChk RwB97XD/CC-pVDZ Freq
 --------------------------------------------------------------------

 Structure from the checkpoint file:  "config_6_12.chk"
 ------------------------------------------------
 NM 2D-scan of HBT TD-WB97XD pVDZ in CTC Relaxed.
 ------------------------------------------------
 Charge =  0 Multiplicity = 1

                          Input orientation:
 ---------------------------------------------------------------------
 Center     Atomic      Atomic             Coordinates (Angstroms)
 Number     Number       Type             X           Y           Z
 ---------------------------------------------------------------------
      1          6           0        1.601795   -3.249587   -0.000035
      2          6           0        1.007122   -1.991797   -0.000023
      3          6           0        1.750905   -0.804363   -0.000010
      4          6           0        3.150225   -0.875627   -0.000011
      5          6           0        3.749210   -2.133528   -0.000021
      6          6           0        2.987619   -3.311116   -0.000033
      7          1           0        0.993981   -4.154622   -0.000045
      8          1           0        3.750279    0.034775   -0.000002
      9          1           0        4.837995   -2.202366   -0.000021
     10          1           0        3.485856   -4.281338   -0.000041
     11          7           0        0.933601    0.320592    0.000000
     12         16           0       -0.706786   -1.644875   -0.000021
     13          6           0       -1.355182    1.087258    0.000021
     14          6           0       -2.724194    0.797836    0.000027
     15          6           0       -0.872762    2.424949    0.000031
     16          6           0       -3.662563    1.816788    0.000036
     17          1           0       -3.053464   -0.244434    0.000023
     18          6           0       -1.853706    3.451069    0.000032
     19          6           0       -3.209335    3.143846    0.000034
     20          1           0       -4.728693    1.590202    0.000041
     21          1           0       -1.516984    4.488821    0.000033
     22          1           0       -3.937125    3.958338    0.000036
     23          6           0       -0.351931    0.045191    0.000002
     24          8           0        0.416171    2.653611    0.000031
     25          1           0        0.918555    1.671610    0.000018
 ---------------------------------------------------------------------

 SCF Done:  E(RwB97XD) =  -1028.82034048     A.U. after    1 cycles

 Alpha  occ. eigenvalues --  -89.09046 -19.25592 -14.47912 -10.39774 -10.36879
 Alpha  occ. eigenvalues --  -10.35761 -10.35024 -10.32542 -10.32231 -10.31891
 Alpha  occ. eigenvalues --  -10.31823 -10.31646 -10.31422 -10.31231 -10.29868
 Alpha  occ. eigenvalues --  -10.29780  -8.11170  -6.06018  -6.05653  -6.05218
 Alpha  occ. eigenvalues --   -1.14851  -1.09512  -0.97619  -0.95993  -0.92337
 Alpha  occ. eigenvalues --   -0.88766  -0.85814  -0.84096  -0.83026  -0.75639
 Alpha  occ. eigenvalues --   -0.71563  -0.70792  -0.69212  -0.68160  -0.63459
 Alpha  occ. eigenvalues --   -0.60864  -0.59251  -0.57979  -0.56152  -0.54747
 Alpha  occ. eigenvalues --   -0.54559  -0.53515  -0.52676  -0.51004  -0.49911
 Alpha  occ. eigenvalues --   -0.49618  -0.47044  -0.46297  -0.45290  -0.45173
 Alpha  occ. eigenvalues --   -0.44161  -0.43001  -0.42445  -0.40203  -0.36323
 Alpha  occ. eigenvalues --   -0.35649  -0.32548  -0.31581  -0.28477
 Alpha virt. eigenvalues --   -0.00645   0.04523   0.06670   0.07641   0.07696
 Alpha virt. eigenvalues --    0.11166   0.14622   0.15050   0.16811   0.17891
 Alpha virt. eigenvalues --    0.19062   0.20877   0.21740   0.22366   0.22736

 Mulliken charges:
               1
     1  C    0.017314
     2  C   -0.226159
     3  C    0.254810
     4  C   -0.014699
     5  C    0.005300
     6  C    0.003937
     7  H    0.020118
     8  H    0.024197
     9  H    0.022800
    10  H    0.023094
    11  N   -0.325917
    12  S    0.165105
    13  C   -0.073809
    14  C   -0.024385
    15  C    0.098467
    16  C   -0.014512
    17  H    0.013160
    18  C   -0.011423
    19  C    0.022027
    20  H    0.007175
    21  H    0.011712
    22  H    0.017224
    23  C    0.079916
    24  O   -0.287264
    25  H    0.191813
 Sum of Mulliken charges =  -0.00000

 Dipole moment (field-independent basis, Debye):
    X=              0.3995    Y=             -3.5567    Z=             -0.0000  Tot=              3.5791
 Quadrupole moment (field-independent basis, Debye-Ang):
   XX=            -82.6500   YY=            -91.3425   ZZ=           -103.9572
   XY=             -7.2203   XZ=             -0.0001   YZ=              0.0001

  Exact polarizability:     276.379     -70.793     258.697      -0.001       0.002      62.846
 Approx polarizability:     263.046     -24.962     244.051      -0.000       0.001      82.137

                      1                      2                      3
                      A                      A                      A
 Frequencies --     15.5477                66.0636               110.2529
 Red. masses --      5.2385                 6.1578                 5.2103
 Frc consts  --      0.0007                 0.0158                 0.0373
 IR Inten    --      0.0379                 1.3437                25.1961

                      4                      5                      6
                      A                      A                      A
 Frequencies --    152.3105               197.7395               243.1356
 Red. masses --      5.0959                 6.1340                 5.6876
 Frc consts  --      0.0697                 0.1413                 0.1981
 IR Inten    --      0.4195                 0.3942                 0.1546

                      7                      8                      9
                      A                      A                      A
 Frequencies --    268.6303               308.4227               327.6672
 Red. masses --      6.4031                 4.7324                 5.1874
 Frc consts  --      0.2722                 0.2652                 0.3281
 IR Inten    --     26.2257                98.8305                 0.2105

                     10                     11                     12
                      A                      A                      A
 Frequencies --    422.0356               434.7478               460.5065
 Red. masses --      9.9682                 3.1023                 3.5854
 Frc consts  --      1.0461                 0.3455                 0.4480
 IR Inten    --      3.1838                 1.7514                 8.4706

                     13                     14                     15
                      A                      A                      A
 Frequencies --    482.0897               519.3558               538.3500
 Red. masses --      4.4645                 8.3168                 3.4019
 Frc consts  --      0.6113                 1.3217                 0.5809
 IR Inten    --    111.7476                10.2123                 3.5421

                     16                     17                     18
                      A                      A                      A
 Frequencies --    564.3161               574.6847               587.1192
 Red. masses --      7.1840                 3.6921                 7.7677
 Frc consts  --      1.3479                 0.7184                 1.5776
 IR Inten    --     13.7971                 0.0849                 1.4499

                     19                     20                     21
                      A                      A                      A
 Frequencies --    648.7201               688.3524               726.9705
 Red. masses --      6.4396                 6.2906                 6.5179
 Frc consts  --      1.5967                 1.7562                 2.0295
 IR Inten    --      0.0073                16.0355                34.6437

                     22                     23                     24
                      A                      A                      A
 Frequencies --    755.3981               768.8256               775.1034
 Red. masses --      2.1096                 2.1126                 9.3785
 Frc consts  --      0.7093                 0.7357                 3.3197
 IR Inten    --     23.8961                16.4138                24.2765

                     25                     26                     27
                      A                      A                      A
 Frequencies --    775.1929               783.0593               855.3109
 Red. masses --      1.7454                 1.8423                 5.9861
 Frc consts  --      0.6180                 0.6656                 2.5801
 IR Inten    --     44.5569                43.6500                12.8755

                     28                     29                     30
                      A                      A                      A
 Frequencies --    880.7131               885.6577               904.2681
 Red. masses --      1.5957                 1.4008                 5.8169
 Frc consts  --      0.7292                 0.6474                 2.8024
 IR Inten    --      5.9081                 0.4347                70.5583

                     31                     32                     33
                      A                      A                      A
 Frequencies --    966.4707               974.5493              1005.8060
 Red. masses --      1.3571                 1.3641                 6.1583
 Frc consts  --      0.7469                 0.7633                 3.6706
 IR Inten    --      1.0717                 1.3192               163.1311

                     34                     35                     36
                      A                      A                      A
 Frequencies --   1010.5018              1015.8417              1052.7397
 Red. masses --      1.3029                 1.3057                 2.0736
 Frc consts  --      0.7839                 0.7939                 1.3540
 IR Inten    --      0.2607                 0.0009                27.2885

                     37                     38                     39
                      A                      A                      A
 Frequencies --   1063.3048              1090.6292              1108.1366
 Red. masses --      1.9019                 2.9028                 2.7245
 Frc consts  --      1.2669                 2.0343                 1.9711
 IR Inten    --     13.3790               302.5982                98.0378

                     40                     41                     42
                      A                      A                      A
 Frequencies --   1135.9501              1155.3627              1159.4022
 Red. masses --      1.0571                 1.4848                 1.3645
 Frc consts  --      0.8037                 1.1678                 1.0807
 IR Inten    --     70.1877                 3.9435                 0.9650

                     43                     44                     45
                      A                      A                      A
 Frequencies --   1181.0996              1186.8653              1261.3213
 Red. masses --      1.1263                 1.1811                 1.9985
 Frc consts  --      0.9257                 0.9802                 1.8733
 IR Inten    --    122.4462                86.6578                57.0503

                     46                     47                     48
                      A                      A                      A
 Frequencies --   1289.5544              1314.7207              1352.6531
 Red. masses --      1.5288                 3.6191                 3.0284
 Frc consts  --      1.4979                 3.6856                 3.2646
 IR Inten    --      1.4435               277.2058                13.9810

                     49                     50                     51
                      A                      A                      A
 Frequencies --   1382.4121              1383.4693              1414.6086
 Red. masses --      3.3883                 6.9424                 3.0042
 Frc consts  --      3.8152                 7.8289                 3.5420
 IR Inten    --     17.3751                17.6681                71.0305

                     52                     53                     54
                      A                      A                      A
 Frequencies --   1488.0728              1497.9004              1513.7578
 Red. masses --      2.7535                 2.7845                 3.3554
 Frc consts  --      3.5924                 3.6810                 4.5301
 IR Inten    --     33.6927                18.7818                50.0793

                     55                     56                     57
                      A                      A                      A
 Frequencies --   1576.1044              1607.4498              1638.7308
 Red. masses --      6.0539                 3.8419                 5.1562
 Frc consts  --      8.8605                 5.8489                 8.1581
 IR Inten    --    294.2365               371.0643               851.9701

                     58                     59                     60
                      A                      A                      A
 Frequencies --   1660.4868              1688.3452              1716.8207
 Red. masses --      6.7936                 6.3375                 4.4795
 Frc consts  --     11.0362                10.6437                 7.7791
 IR Inten    --     67.5325               174.8586               330.8356

                     61                     62                     63
                      A                      A                      A
 Frequencies --   1872.7749              3195.6229              3204.6043
 Red. masses --      1.1067                 1.0890                 1.0887
 Frc consts  --      2.2868                 6.5523                 6.5876
 IR Inten    --    150.9019                 3.8911                 8.1289

                     64                     65                     66
                      A                      A                      A
 Frequencies --   3213.5160              3223.7407              3226.8768
 Red. masses --      1.0862                 1.0908                 1.0936
 Frc consts  --      6.6086                 6.6788                 6.7095
 IR Inten    --      1.6273                 3.0695                15.6729

                     67                     68                     69
                      A                      A                      A
 Frequencies --   3233.8318              3236.4884              3240.0674
 Red. masses --      1.0960                 1.0983                 1.0997
 Frc consts  --      6.7528                 6.7783                 6.8022
 IR Inten    --      7.9478                17.6989                12.9187

 - Thermochemistry -
 -------------------
 Temperature   298.150 Kelvin.  Pressure   1.00000 Atm.
 Atom     1 has atomic number  6 and mass  12.00000

 Molecular mass:   227.04049 amu.
 Principal axes and moments of inertia in atomic units:
                           1         2         3
     Eigenvalues --  1276.453446253.856987530.31042
           X            0.70735   0.70687   0.00000
           Y           -0.70687   0.70735  -0.00001
           Z           -0.00001   0.00001   1.00000
 This molecule is an asymmetric top.
 Rotational symmetry number  1.
 Warning -- assumption of classical behavior for rotation
           may cause significant error
 Rotational temperatures (Kelvin)      0.06786     0.01385     0.01150
 Rotational constants (GHZ):           1.41387     0.28858     0.23966
 Zero-point vibrational energy     492030.9 (Joules/Mol)
                                  117.59820 (Kcal/Mol)
 Warning -- explicit consideration of  18 degrees of freedom as
           vibrations may cause significant error
 Vibrational temperatures:     22.37    95.05   158.63   219.14   284.50
          (Kelvin)            349.82   386.50   443.75   471.44   607.22
                              625.51   662.57   693.62   747.24   774.57
                              811.92   826.84   844.73   933.36   990.39
                             1045.95  1086.85  1106.17  1115.20  1115.33
                             1126.65  1230.60  1267.15  1274.26  1301.04
                             1390.54  1402.16  1447.13  1453.89  1461.57
                             1514.66  1529.86  1569.17  1594.36  1634.38
                             1662.31  1668.12  1699.34  1707.63  1814.76
                             1855.38  1891.59  1946.17  1988.98  1990.50
                             2035.31  2141.00  2155.14  2177.96  2267.66
                             2312.76  2357.77  2389.07  2429.15  2470.12
                             2694.51  4597.79  4610.71  4623.53  4638.24
                             4642.76  4652.76  4656.58  4661.73

 Zero-point correction=                           0.187405 (Hartree/Particle)
 Thermal correction to Energy=                    0.199124
 Thermal correction to Enthalpy=                  0.200069
 Thermal correction to Gibbs Free Energy=         0.147832
 Sum of electronic and zero-point Energies=          -1028.632936
 Sum of electronic and thermal Energies=             -1028.621216
 Sum of electronic and thermal Enthalpies=           -1028.620272
 Sum of electronic and thermal Free Energies=        -1028.672508

                     E (Thermal)             CV                S
                      KCal/Mol        Cal/Mol-Kelvin    Cal/Mol-Kelvin
 Total                  124.952             47.307            109.941
 Electronic               0.000              0.000              0.000
 Translational            0.889              2.981             42.162
 Rotational               0.889              2.981             32.464
 Vibrational            123.175             41.346             35.315
 Vibration     1          0.593              1.986              7.134
 Vibration     2          0.597              1.970              4.267
 Vibration     3          0.606              1.941              3.264
 Vibration     4          0.619              1.900              2.643
 Vibration     5          0.637              1.843              2.154
 Vibration     6          0.659              1.774              1.780
 Vibration     7          0.673              1.731              1.605
 Vibration     8          0.698              1.658              1.371
 Vibration     9          0.711              1.620              1.272
 Vibration    10          0.784              1.422              0.885
 Vibration    11          0.795              1.394              0.843
 Vibration    12          0.818              1.338              0.765
 Vibration    13          0.838              1.290              0.704
 Vibration    14          0.874              1.207              0.611
 Vibration    15          0.893              1.165              0.569
 Vibration    16          0.920              1.108              0.515
 Vibration    17          0.931              1.086              0.495
 Vibration    18          0.944              1.059              0.472

 Optimization completed.
    -- Stationary point found.
 Normal termination of Gaussian 16 at Wed Oct 28 00:01:45 2020.
