 Gaussian 16, Revision C.01,
 Gaussian 16:  ES64L-G16RevC.01  3-Jul-2019

 ----------------------------------------------------------------------
 #p opt=addgic freq wb97xd/cc-pvdz nosymm int=ultrafine scrf=(solvent=C
 arbonTetraChloride)
 ----------------------------------------------------------------------

 ------------------------------------------------
 NM 2D-scan of HBT TD-WB97XD pVDZ in CTC Relaxed.
 ------------------------------------------------
 Symbolic Z-matrix:
 Charge =  0 Multiplicity = 1

 SCF Done:  E(RwB97XD) =  -1028.63889458     A.U. after   16 cycles
 SCF Done:  E(RwB97XD) =  -1028.76007419     A.U. after   13 cycles
 SCF Done:  E(RwB97XD) =  -1028.78294097     A.U. after   14 cycles
 SCF Done:  E(RwB97XD) =  -1028.80150420     A.U. after   14 cycles
 SCF Done:  E(RwB97XD) =  -1028.80191978     A.U. after   12 cycles
 SCF Done:  E(RwB97XD) =  -1028.80196237     A.U. after   11 cycles
 SCF Done:  E(RwB97XD) =  -1028.80197207     A.U. after   10 cycles
 Optimization completed.
    -- Stationary point found.
 Normal termination of Gaussian 16 at Wed Oct 28 00:21:19 2020.

 --------------------------------------------------------------------
 #P Geom=AllCheck Guess=TCheck SCRF=Check GenChk RwB97XD/CC-pVDZ Freq
 --------------------------------------------------------------------

 Structure from the checkpoint file:  "config_11_15.chk"
 ------------------------------------------------
 NM 2D-scan of HBT TD-WB97XD pVDZ in CTC Relaxed.
 ------------------------------------------------
 Charge =  0 Multiplicity = 1

                          Input orientation:
 ---------------------------------------------------------------------
 Center     Atomic      Atomic             Coordinates (Angstroms)
 Number     Number       Type             X           Y           Z
 ---------------------------------------------------------------------
      1          6           0        1.577917   -3.279971   -0.000034
      2          6           0        1.003463   -2.015995   -0.000019
      3          6           0        1.782610   -0.869789   -0.000009
      4          6           0        3.175526   -0.942396   -0.000011
      5          6           0        3.753479   -2.211755   -0.000023
      6          6           0        2.966917   -3.367917   -0.000036
      7          1           0        0.957140   -4.175663   -0.000043
      8          1           0        3.788784   -0.040469   -0.000002
      9          1           0        4.840739   -2.298240   -0.000025
     10          1           0        3.444204   -4.348149   -0.000047
     11          7           0        0.974300    0.258038    0.000001
     12         16           0       -0.709369   -1.597071   -0.000010
     13          6           0       -1.340084    1.123865    0.000026
     14          6           0       -2.720713    0.794108    0.000029
     15          6           0       -0.878845    2.509458    0.000043
     16          6           0       -3.688618    1.766142    0.000038
     17          1           0       -3.021021   -0.257819    0.000022
     18          6           0       -1.967123    3.493885    0.000030
     19          6           0       -3.289058    3.131643    0.000034
     20          1           0       -4.745125    1.496999    0.000041
     21          1           0       -1.676588    4.546478    0.000022
     22          1           0       -4.060015    3.906856    0.000032
     23          6           0       -0.365147    0.103374    0.000008
     24          8           0        0.330221    2.786805    0.000020
     25          1           0        1.460559    1.124411    0.000002
 ---------------------------------------------------------------------

 SCF Done:  E(RwB97XD) =  -1028.80197207     A.U. after    1 cycles

 Alpha  occ. eigenvalues --  -89.09776 -19.21128 -14.52317 -10.41597 -10.37110
 Alpha  occ. eigenvalues --  -10.35954 -10.35748 -10.33244 -10.33148 -10.32641
 Alpha  occ. eigenvalues --  -10.32301 -10.31072 -10.30663 -10.30291 -10.29075
 Alpha  occ. eigenvalues --  -10.28584  -8.11860  -6.06744  -6.06350  -6.05863
 Alpha  occ. eigenvalues --   -1.13061  -1.10060  -0.98651  -0.95549  -0.93302
 Alpha  occ. eigenvalues --   -0.89176  -0.86715  -0.83875  -0.81648  -0.75492
 Alpha  occ. eigenvalues --   -0.74088  -0.71963  -0.69396  -0.67849  -0.64566
 Alpha  occ. eigenvalues --   -0.60912  -0.59759  -0.56654  -0.56009  -0.56005
 Alpha  occ. eigenvalues --   -0.55026  -0.53770  -0.52983  -0.50121  -0.49396
 Alpha  occ. eigenvalues --   -0.48991  -0.48294  -0.46752  -0.45668  -0.44732
 Alpha  occ. eigenvalues --   -0.44507  -0.42873  -0.41865  -0.40376  -0.36908
 Alpha  occ. eigenvalues --   -0.33607  -0.31663  -0.31253  -0.26098
 Alpha virt. eigenvalues --   -0.01296   0.03763   0.05858   0.07044   0.09567
 Alpha virt. eigenvalues --    0.11328   0.13896   0.14668   0.15992   0.16921
 Alpha virt. eigenvalues --    0.18094   0.19777   0.20988   0.21587   0.22866

 Mulliken charges:
               1
     1  C    0.015791
     2  C   -0.236067
     3  C    0.218145
     4  C   -0.012140
     5  C    0.010024
     6  C    0.004547
     7  H    0.023754
     8  H    0.030399
     9  H    0.027534
    10  H    0.025998
    11  N   -0.107848
    12  S    0.178856
    13  C   -0.093998
    14  C   -0.017164
    15  C    0.097743
    16  C   -0.033898
    17  H    0.009865
    18  C   -0.042054
    19  C    0.028848
    20  H    0.001865
    21  H    0.001358
    22  H    0.013717
    23  C    0.097834
    24  O   -0.362272
    25  H    0.119164
 Sum of Mulliken charges =   0.00000

 Dipole moment (field-independent basis, Debye):
    X=              2.1703    Y=             -5.3937    Z=             -0.0000  Tot=              5.8140
 Quadrupole moment (field-independent basis, Debye-Ang):
   XX=            -81.1913   YY=            -96.0858   ZZ=           -103.9742
   XY=             -6.4325   XZ=             -0.0001   YZ=              0.0001

  Exact polarizability:     289.942     -91.018     288.278      -0.002       0.002      62.880
 Approx polarizability:     267.127     -34.778     254.828      -0.001       0.001      81.876

                      1                      2                      3
                      A                      A                      A
 Frequencies --     19.9120                62.8269               112.0541
 Red. masses --      4.5818                 6.3123                 5.7239
 Frc consts  --      0.0011                 0.0147                 0.0423
 IR Inten    --      2.2385                 1.2349                 0.9933

                      4                      5                      6
                      A                      A                      A
 Frequencies --    114.7775               190.5756               224.5668
 Red. masses --      5.4349                 5.8936                 5.7674
 Frc consts  --      0.0422                 0.1261                 0.1714
 IR Inten    --      0.2721                 0.1222                 1.9811

                      7                      8                      9
                      A                      A                      A
 Frequencies --    268.2201               297.7511               303.6992
 Red. masses --      7.9041                 7.2289                 4.5852
 Frc consts  --      0.3350                 0.3776                 0.2492
 IR Inten    --      4.7589                 3.0141                 4.3129

                     10                     11                     12
                      A                      A                      A
 Frequencies --    392.5822               421.1214               443.0694
 Red. masses --      7.9540                 3.0093                 3.4753
 Frc consts  --      0.7223                 0.3144                 0.4020
 IR Inten    --      4.0849                 6.3116                11.3091

                     13                     14                     15
                      A                      A                      A
 Frequencies --    479.6799               505.1317               522.1360
 Red. masses --      1.1852                 8.1080                 2.4955
 Frc consts  --      0.1607                 1.2189                 0.4008
 IR Inten    --     71.5061                10.0626                 0.1472

                     16                     17                     18
                      A                      A                      A
 Frequencies --    533.9915               546.5813               562.7082
 Red. masses --      7.3926                 7.1232                 3.8280
 Frc consts  --      1.2420                 1.2538                 0.7141
 IR Inten    --      6.6775                10.0832                 0.0226

                     19                     20                     21
                      A                      A                      A
 Frequencies --    580.7109               633.4215               658.1297
 Red. masses --      7.3667                 6.8234                 6.2736
 Frc consts  --      1.4637                 1.6130                 1.6010
 IR Inten    --     39.7893                 2.6692                 1.6211

                     22                     23                     24
                      A                      A                      A
 Frequencies --    713.0105               742.0381               750.8463
 Red. masses --      5.6452                 7.3227                 2.5536
 Frc consts  --      1.6909                 2.3756                 0.8482
 IR Inten    --     54.8433                50.1772                14.7128

                     25                     26                     27
                      A                      A                      A
 Frequencies --    758.4091               774.3102               779.2792
 Red. masses --      1.4209                 1.5943                 2.4569
 Frc consts  --      0.4815                 0.5632                 0.8791
 IR Inten    --     48.4139                47.2086                19.4155

                     28                     29                     30
                      A                      A                      A
 Frequencies --    831.4239               875.8967               880.8461
 Red. masses --      6.2636                 2.0682                 1.3779
 Frc consts  --      2.5510                 0.9349                 0.6299
 IR Inten    --     21.2778                15.9121                 0.9525

                     31                     32                     33
                      A                      A                      A
 Frequencies --    892.2208               964.6687               969.2909
 Red. masses --      5.4057                 1.3239                 1.3610
 Frc consts  --      2.5354                 0.7259                 0.7534
 IR Inten    --      0.6762                 0.0949                 1.6116

                     34                     35                     36
                      A                      A                      A
 Frequencies --    973.5607              1012.9575              1017.9526
 Red. masses --      4.4536                 1.3034                 1.3066
 Frc consts  --      2.4871                 0.7880                 0.7977
 IR Inten    --     27.5766                 0.0059                 0.3384

                     37                     38                     39
                      A                      A                      A
 Frequencies --   1044.0281              1056.4627              1098.0386
 Red. masses --      2.1112                 2.0649                 3.6703
 Frc consts  --      1.3558                 1.3579                 2.6073
 IR Inten    --     11.4096                12.9460                 8.4018

                     40                     41                     42
                      A                      A                      A
 Frequencies --   1126.4156              1157.2468              1162.9799
 Red. masses --      1.8723                 1.3786                 1.1706
 Frc consts  --      1.3996                 1.0878                 0.9328
 IR Inten    --     56.9065                 0.6650                85.9072

                     43                     44                     45
                      A                      A                      A
 Frequencies --   1180.5960              1197.3828              1237.3622
 Red. masses --      1.1482                 1.2181                 2.1986
 Frc consts  --      0.9429                 1.0290                 1.9833
 IR Inten    --     20.3930                16.0194                18.5119

                     46                     47                     48
                      A                      A                      A
 Frequencies --   1280.9481              1299.9202              1353.8055
 Red. masses --      2.1791                 1.8392                 2.6301
 Frc consts  --      2.1067                 1.8311                 2.8401
 IR Inten    --     95.7613               116.2907                30.5468

                     49                     50                     51
                      A                      A                      A
 Frequencies --   1388.4037              1396.7732              1412.3557
 Red. masses --      6.2766                 5.5444                 2.1338
 Frc consts  --      7.1287                 6.3732                 2.5077
 IR Inten    --    182.0379                25.4447                 6.8637

                     52                     53                     54
                      A                      A                      A
 Frequencies --   1492.6138              1506.4228              1529.3869
 Red. masses --      2.9058                 2.9927                 3.0685
 Frc consts  --      3.8142                 4.0013                 4.2288
 IR Inten    --     75.2648               637.2709                22.5524

                     55                     56                     57
                      A                      A                      A
 Frequencies --   1542.9883              1597.1122              1655.5037
 Red. masses --      4.5980                 7.0071                 6.1825
 Frc consts  --      6.4498                10.5308                 9.9834
 IR Inten    --   1787.5287                71.0231                68.6108

                     58                     59                     60
                      A                      A                      A
 Frequencies --   1681.0441              1695.1377              1734.1891
 Red. masses --      7.1858                 7.6810                 9.0652
 Frc consts  --     11.9641                13.0040                16.0628
 IR Inten    --     46.9437                27.7790               463.4413

                     61                     62                     63
                      A                      A                      A
 Frequencies --   3183.8888              3193.1136              3216.4482
 Red. masses --      1.0885                 1.0878                 1.0864
 Frc consts  --      6.5009                 6.5348                 6.6224
 IR Inten    --      3.2173                14.1691                 1.4720

                     64                     65                     66
                      A                      A                      A
 Frequencies --   3217.0475              3226.3509              3230.4744
 Red. masses --      1.0945                 1.0908                 1.0974
 Frc consts  --      6.6738                 6.6899                 6.7477
 IR Inten    --     32.8897                 1.9459                19.8301

                     67                     68                     69
                      A                      A                      A
 Frequencies --   3234.4859              3242.6431              3862.2002
 Red. masses --      1.0961                 1.0997                 1.0789
 Frc consts  --      6.7562                 6.8126                 9.4819
 IR Inten    --      4.5709                11.9091               121.2392

 - Thermochemistry -
 -------------------
 Temperature   298.150 Kelvin.  Pressure   1.00000 Atm.
 Atom     1 has atomic number  6 and mass  12.00000

 Molecular mass:   227.04049 amu.
 Principal axes and moments of inertia in atomic units:
                           1         2         3
     Eigenvalues --  1273.027376415.548377688.57574
           X           -0.70494   0.70927   0.00000
           Y            0.70927   0.70494  -0.00001
           Z            0.00001   0.00000   1.00000
 This molecule is an asymmetric top.
 Rotational symmetry number  1.
 Warning -- assumption of classical behavior for rotation
           may cause significant error
 Rotational temperatures (Kelvin)      0.06804     0.01350     0.01127
 Rotational constants (GHZ):           1.41768     0.28131     0.23473
 Zero-point vibrational energy     497910.5 (Joules/Mol)
                                  119.00346 (Kcal/Mol)
 Warning -- explicit consideration of  19 degrees of freedom as
           vibrations may cause significant error
 Vibrational temperatures:     28.65    90.39   161.22   165.14   274.20
          (Kelvin)            323.10   385.91   428.40   436.96   564.84
                              605.90   637.48   690.15   726.77   751.24
                              768.29   786.41   809.61   835.51   911.35
                              946.90  1025.86  1067.63  1080.30  1091.18
                             1114.06  1121.21  1196.23  1260.22  1267.34
                             1283.71  1387.94  1394.59  1400.74  1457.42
                             1464.61  1502.12  1520.01  1579.83  1620.66
                             1665.02  1673.27  1698.61  1722.77  1780.29
                             1843.00  1870.30  1947.82  1997.60  2009.65
                             2032.06  2147.54  2167.41  2200.45  2220.02
                             2297.89  2381.90  2418.65  2438.93  2495.11
                             4580.91  4594.18  4627.75  4628.61  4642.00
                             4647.93  4653.70  4665.44  5556.84

 Zero-point correction=                           0.189644 (Hartree/Particle)
 Thermal correction to Energy=                    0.201842
 Thermal correction to Enthalpy=                  0.202786
 Thermal correction to Gibbs Free Energy=         0.149789
 Sum of electronic and zero-point Energies=          -1028.612328
 Sum of electronic and thermal Energies=             -1028.600130
 Sum of electronic and thermal Enthalpies=           -1028.599186
 Sum of electronic and thermal Free Energies=        -1028.652183

                     E (Thermal)             CV                S
                      KCal/Mol        Cal/Mol-Kelvin    Cal/Mol-Kelvin
 Total                  126.658             48.949            111.542
 Electronic               0.000              0.000              0.000
 Translational            0.889              2.981             42.162
 Rotational               0.889              2.981             32.507
 Vibrational            124.880             42.987             36.873
 Vibration     1          0.593              1.986              6.643
 Vibration     2          0.597              1.972              4.366
 Vibration     3          0.607              1.939              3.233
 Vibration     4          0.608              1.937              3.186
 Vibration     5          0.634              1.853              2.222
 Vibration     6          0.649              1.804              1.922
 Vibration     7          0.673              1.732              1.608
 Vibration     8          0.691              1.678              1.430
 Vibration     9          0.695              1.667              1.396
 Vibration    10          0.760              1.486              0.990
 Vibration    11          0.784              1.424              0.888
 Vibration    12          0.803              1.376              0.817
 Vibration    13          0.836              1.295              0.711
 Vibration    14          0.860              1.239              0.645
 Vibration    15          0.877              1.201              0.605
 Vibration    16          0.889              1.175              0.578
 Vibration    17          0.902              1.147              0.551
 Vibration    18          0.918              1.112              0.518
 Vibration    19          0.937              1.073              0.484

 Optimization completed.
    -- Stationary point found.
 Normal termination of Gaussian 16 at Wed Oct 28 00:27:37 2020.
