 Gaussian 16, Revision C.01,
 Gaussian 16:  ES64L-G16RevC.01  3-Jul-2019

 ----------------------------------------------------------------------
 #p opt=addgic freq wb97xd/cc-pvdz nosymm int=ultrafine scrf=(solvent=C
 arbonTetraChloride)
 ----------------------------------------------------------------------

 ------------------------------------------------
 NM 2D-scan of HBT TD-WB97XD pVDZ in CTC Relaxed.
 ------------------------------------------------
 Symbolic Z-matrix:
 Charge =  0 Multiplicity = 1

 SCF Done:  E(RwB97XD) =  -1028.81661137     A.U. after   15 cycles
 SCF Done:  E(RwB97XD) =  -1028.82488665     A.U. after   13 cycles
 SCF Done:  E(RwB97XD) =  -1028.82564521     A.U. after   12 cycles
 SCF Done:  E(RwB97XD) =  -1028.82570103     A.U. after   11 cycles
 SCF Done:  E(RwB97XD) =  -1028.82570828     A.U. after    9 cycles
 SCF Done:  E(RwB97XD) =  -1028.82571247     A.U. after    8 cycles
 SCF Done:  E(RwB97XD) =  -1028.82571235     A.U. after    8 cycles
 SCF Done:  E(RwB97XD) =  -1028.82571270     A.U. after    7 cycles
 Optimization completed.
    -- Stationary point found.
 Normal termination of Gaussian 16 at Wed Oct 28 01:36:47 2020.

 --------------------------------------------------------------------
 #P Geom=AllCheck Guess=TCheck SCRF=Check GenChk RwB97XD/CC-pVDZ Freq
 --------------------------------------------------------------------

 Structure from the checkpoint file:  "config_4_16.chk"
 ------------------------------------------------
 NM 2D-scan of HBT TD-WB97XD pVDZ in CTC Relaxed.
 ------------------------------------------------
 Charge =  0 Multiplicity = 1

                          Input orientation:
 ---------------------------------------------------------------------
 Center     Atomic      Atomic             Coordinates (Angstroms)
 Number     Number       Type             X           Y           Z
 ---------------------------------------------------------------------
      1          6           0        1.551024   -3.261992   -0.000096
      2          6           0        1.000037   -1.983911   -0.000070
      3          6           0        1.775522   -0.813145    0.000011
      4          6           0        3.173109   -0.938050    0.000070
      5          6           0        3.730858   -2.214922    0.000046
      6          6           0        2.933036   -3.369496   -0.000036
      7          1           0        0.911400   -4.144944   -0.000158
      8          1           0        3.805220   -0.049360    0.000136
      9          1           0        4.817030   -2.318315    0.000095
     10          1           0        3.400683   -4.354900   -0.000051
     11          7           0        1.002025    0.348045    0.000033
     12         16           0       -0.695140   -1.591251   -0.000118
     13          6           0       -1.317473    1.111059    0.000007
     14          6           0       -2.673691    0.765063    0.000065
     15          6           0       -0.908646    2.463775   -0.000023
     16          6           0       -3.656000    1.741418    0.000101
     17          1           0       -2.963400   -0.288127    0.000097
     18          6           0       -1.920762    3.449089    0.000014
     19          6           0       -3.264147    3.085539    0.000073
     20          1           0       -4.710493    1.465657    0.000152
     21          1           0       -1.626235    4.499416   -0.000017
     22          1           0       -4.025290    3.868528    0.000095
     23          6           0       -0.283579    0.091159   -0.000022
     24          8           0        0.380138    2.764213   -0.000113
     25          1           0        0.904248    1.876109   -0.000177
 ---------------------------------------------------------------------

 SCF Done:  E(RwB97XD) =  -1028.82571270     A.U. after    1 cycles

 Alpha  occ. eigenvalues --  -89.08587 -19.27269 -14.47378 -10.39391 -10.37221
 Alpha  occ. eigenvalues --  -10.35374 -10.34688 -10.32283 -10.31971 -10.31810
 Alpha  occ. eigenvalues --  -10.31757 -10.31663 -10.31616 -10.31448 -10.30204
 Alpha  occ. eigenvalues --  -10.30176  -8.10739  -6.05580  -6.05219  -6.04792
 Alpha  occ. eigenvalues --   -1.15961  -1.09065  -0.97403  -0.96283  -0.92066
 Alpha  occ. eigenvalues --   -0.88653  -0.85620  -0.84475  -0.82981  -0.75538
 Alpha  occ. eigenvalues --   -0.71568  -0.70697  -0.69408  -0.68059  -0.63369
 Alpha  occ. eigenvalues --   -0.60732  -0.59012  -0.58381  -0.56398  -0.54561
 Alpha  occ. eigenvalues --   -0.54351  -0.53390  -0.52896  -0.50882  -0.50265
 Alpha  occ. eigenvalues --   -0.49332  -0.47222  -0.46077  -0.45468  -0.45087
 Alpha  occ. eigenvalues --   -0.44093  -0.42868  -0.42687  -0.39918  -0.36846
 Alpha  occ. eigenvalues --   -0.36257  -0.32204  -0.31687  -0.29024
 Alpha virt. eigenvalues --   -0.00518   0.04759   0.06737   0.07274   0.07998
 Alpha virt. eigenvalues --    0.11308   0.14635   0.15208   0.17149   0.18037
 Alpha virt. eigenvalues --    0.18987   0.21089   0.21670   0.22610   0.22614

 Mulliken charges:
               1
     1  C    0.017428
     2  C   -0.215332
     3  C    0.228320
     4  C   -0.018335
     5  C    0.003402
     6  C    0.003400
     7  H    0.018543
     8  H    0.021266
     9  H    0.021034
    10  H    0.021838
    11  N   -0.356514
    12  S    0.154409
    13  C   -0.051557
    14  C   -0.031505
    15  C    0.079793
    16  C   -0.007966
    17  H    0.019497
    18  C   -0.003572
    19  C    0.021410
    20  H    0.009006
    21  H    0.015578
    22  H    0.018704
    23  C    0.086998
    24  O   -0.232572
    25  H    0.176729
 Sum of Mulliken charges =  -0.00000

 Dipole moment (field-independent basis, Debye):
    X=             -0.0654    Y=             -2.9603    Z=             -0.0001  Tot=              2.9610
 Quadrupole moment (field-independent basis, Debye-Ang):
   XX=            -82.6785   YY=            -90.5661   ZZ=           -103.9861
   XY=             -7.3169   XZ=             -0.0002   YZ=              0.0004

  Exact polarizability:     273.946     -68.325     254.559      -0.000       0.003      62.841
 Approx polarizability:     261.689     -23.485     241.890       0.001       0.003      82.136

 ******    1 imaginary frequencies (negative Signs) ******

                      1                      2                      3
                      A                      A                      A
 Frequencies --    -15.9782                64.9776               129.1606
 Red. masses --      5.4284                 5.9710                 5.6188
 Frc consts  --      0.0008                 0.0149                 0.0552
 IR Inten    --      0.0310                 1.2332                 2.3939

                      4                      5                      6
                      A                      A                      A
 Frequencies --    151.7621               197.1747               244.2993
 Red. masses --      5.0467                 6.0936                 5.5695
 Frc consts  --      0.0685                 0.1396                 0.1958
 IR Inten    --      0.1682                 0.6997                 0.0451

                      7                      8                      9
                      A                      A                      A
 Frequencies --    278.6778               327.7135               329.8736
 Red. masses --      7.4084                 6.2318                 5.1113
 Frc consts  --      0.3390                 0.3943                 0.3277
 IR Inten    --      0.7870                11.4411                 0.0746

                     10                     11                     12
                      A                      A                      A
 Frequencies --    422.3037               436.4945               463.8236
 Red. masses --     10.3880                 3.0992                 3.5886
 Frc consts  --      1.0915                 0.3479                 0.4549
 IR Inten    --      0.0310                 1.6710                 8.2002

                     13                     14                     15
                      A                      A                      A
 Frequencies --    516.6769               525.9495               537.1320
 Red. masses --      7.8952                 6.0394                 3.4617
 Frc consts  --      1.2418                 0.9843                 0.5884
 IR Inten    --      1.4887                16.4647                 3.4393

                     16                     17                     18
                      A                      A                      A
 Frequencies --    560.2698               576.5629               590.9162
 Red. masses --      7.1261                 3.7332                 7.6252
 Frc consts  --      1.3180                 0.7312                 1.5687
 IR Inten    --      4.5964                 0.0426                 3.1236

                     19                     20                     21
                      A                      A                      A
 Frequencies --    647.8701               684.1188               733.2474
 Red. masses --      6.3011                 6.5531                 6.4879
 Frc consts  --      1.5583                 1.8070                 2.0552
 IR Inten    --      0.0058                 4.7253                17.3196

                     22                     23                     24
                      A                      A                      A
 Frequencies --    756.2072               763.0060               767.8488
 Red. masses --      1.9658                10.0232                 3.2916
 Frc consts  --      0.6623                 3.4380                 1.1434
 IR Inten    --     29.0209                20.2000                 0.9448

                     25                     26                     27
                      A                      A                      A
 Frequencies --    774.2238               785.4678               854.6347
 Red. masses --      1.3499                 1.9573                 5.9451
 Frc consts  --      0.4767                 0.7115                 2.5584
 IR Inten    --     58.3251                41.1029                15.2310

                     28                     29                     30
                      A                      A                      A
 Frequencies --    881.5934               886.8820               897.9113
 Red. masses --      1.5654                 1.4086                 6.7226
 Frc consts  --      0.7168                 0.6528                 3.1934
 IR Inten    --      5.3953                 0.3370                 5.1832

                     31                     32                     33
                      A                      A                      A
 Frequencies --    966.3108               975.2679               996.5685
 Red. masses --      1.3646                 1.3651                 1.0688
 Frc consts  --      0.7507                 0.7650                 0.6254
 IR Inten    --      1.6820                 0.8212                73.6862

                     34                     35                     36
                      A                      A                      A
 Frequencies --   1011.0595              1011.3387              1015.3633
 Red. masses --      1.3020                 7.6625                 1.3052
 Frc consts  --      0.7842                 4.6176                 0.7928
 IR Inten    --      2.0441                44.7383                 0.2064

                     37                     38                     39
                      A                      A                      A
 Frequencies --   1052.0502              1068.1440              1107.0781
 Red. masses --      1.9978                 1.8804                 3.3588
 Frc consts  --      1.3028                 1.2640                 2.4254
 IR Inten    --      9.0287                 8.5642                 5.3539

                     40                     41                     42
                      A                      A                      A
 Frequencies --   1154.6849              1159.2046              1174.8058
 Red. masses --      1.4346                 1.3852                 1.1302
 Frc consts  --      1.1270                 1.0967                 0.9191
 IR Inten    --      9.6024                 2.6835                39.2136

                     43                     44                     45
                      A                      A                      A
 Frequencies --   1183.4410              1260.4745              1284.8730
 Red. masses --      1.2542                 1.9187                 1.8620
 Frc consts  --      1.0349                 1.7960                 1.8111
 IR Inten    --      0.6697                60.5192                21.8090

                     46                     47                     48
                      A                      A                      A
 Frequencies --   1295.9337              1316.8655              1361.8308
 Red. masses --      2.9218                 2.4812                 3.6189
 Frc consts  --      2.8911                 2.5351                 3.9543
 IR Inten    --    193.7411                38.1760                22.7148

                     49                     50                     51
                      A                      A                      A
 Frequencies --   1375.9192              1380.2243              1482.7288
 Red. masses --      5.2546                 6.6968                 2.7049
 Frc consts  --      5.8611                 7.5166                 3.5037
 IR Inten    --     16.4796                 5.8142                19.0470

                     52                     53                     54
                      A                      A                      A
 Frequencies --   1492.3582              1503.5433              1530.9322
 Red. masses --      2.6317                 2.8548                 4.0907
 Frc consts  --      3.4533                 3.8024                 5.6488
 IR Inten    --     27.6249                20.8748               106.8384

                     55                     56                     57
                      A                      A                      A
 Frequencies --   1577.4847              1612.1208              1651.8616
 Red. masses --      6.6493                 2.7884                 6.9527
 Frc consts  --      9.7490                 4.2697                11.1776
 IR Inten    --    281.4905                 4.0780                 8.1044

                     58                     59                     60
                      A                      A                      A
 Frequencies --   1676.9512              1696.2873              1728.6621
 Red. masses --      6.8101                 5.6356                 1.7334
 Frc consts  --     11.2836                 9.5541                 3.0519
 IR Inten    --     35.4885               185.0903               223.3994

                     61                     62                     63
                      A                      A                      A
 Frequencies --   2579.2059              3202.5956              3209.7991
 Red. masses --      1.0858                 1.0878                 1.0893
 Frc consts  --      4.2557                 6.5737                 6.6120
 IR Inten    --   1494.0834                 3.6051                 7.4412

                     64                     65                     66
                      A                      A                      A
 Frequencies --   3210.1619              3220.4659              3228.0998
 Red. masses --      1.0861                 1.0904                 1.0940
 Frc consts  --      6.5944                 6.6632                 6.7165
 IR Inten    --      1.7859                 2.8428                13.7350

                     67                     68                     69
                      A                      A                      A
 Frequencies --   3230.0906              3236.8650              3237.4178
 Red. masses --      1.0959                 1.0999                 1.0991
 Frc consts  --      6.7367                 6.7897                 6.7872
 IR Inten    --      8.8054                19.8165                11.2837

 - Thermochemistry -
 -------------------
 Temperature   298.150 Kelvin.  Pressure   1.00000 Atm.
 Atom     1 has atomic number  6 and mass  12.00000

 Molecular mass:   227.04049 amu.
 Principal axes and moments of inertia in atomic units:
                           1         2         3
     Eigenvalues --  1274.651216288.184427562.83562
           X           -0.70419   0.71002  -0.00000
           Y            0.71002   0.70419  -0.00001
           Z            0.00001   0.00001   1.00000
 This molecule is an asymmetric top.
 Rotational symmetry number  1.
 Warning -- assumption of classical behavior for rotation
           may cause significant error
 Rotational temperatures (Kelvin)      0.06795     0.01377     0.01145
 Rotational constants (GHZ):           1.41587     0.28701     0.23863
    1 imaginary frequencies ignored.
 Zero-point vibrational energy     497920.8 (Joules/Mol)
                                  119.00592 (Kcal/Mol)
 Warning -- explicit consideration of  17 degrees of freedom as
           vibrations may cause significant error
 Vibrational temperatures:     93.49   185.83   218.35   283.69   351.49
          (Kelvin)            400.96   471.51   474.61   607.60   628.02
                              667.34   743.38   756.72   772.81   806.10
                              829.55   850.20   932.14   984.29  1054.98
                             1088.01  1097.80  1104.76  1113.94  1130.11
                             1229.63  1268.42  1276.03  1291.89  1390.31
                             1403.19  1433.84  1454.69  1455.09  1460.88
                             1513.67  1536.82  1592.84  1661.33  1667.84
                             1690.28  1702.71  1813.54  1848.65  1864.56
                             1894.68  1959.37  1979.64  1985.83  2133.32
                             2147.17  2163.26  2202.67  2269.65  2319.48
                             2376.66  2412.76  2440.58  2487.16  3710.90
                             4607.82  4618.18  4618.71  4633.53  4644.52
                             4647.38  4657.13  4657.92

 Zero-point correction=                           0.189648 (Hartree/Particle)
 Thermal correction to Energy=                    0.200354
 Thermal correction to Enthalpy=                  0.201298
 Thermal correction to Gibbs Free Energy=         0.152711
 Sum of electronic and zero-point Energies=          -1028.636065
 Sum of electronic and thermal Energies=             -1028.625359
 Sum of electronic and thermal Enthalpies=           -1028.624415
 Sum of electronic and thermal Free Energies=        -1028.673002

                     E (Thermal)             CV                S
                      KCal/Mol        Cal/Mol-Kelvin    Cal/Mol-Kelvin
 Total                  125.724             45.102            102.261
 Electronic               0.000              0.000              0.000
 Translational            0.889              2.981             42.162
 Rotational               0.889              2.981             32.472
 Vibrational            123.946             39.141             27.627
 Vibration     1          0.597              1.971              4.300
 Vibration     2          0.612              1.924              2.959
 Vibration     3          0.619              1.901              2.650
 Vibration     4          0.637              1.844              2.159
 Vibration     5          0.660              1.772              1.771
 Vibration     6          0.679              1.713              1.542
 Vibration     7          0.711              1.620              1.271
 Vibration     8          0.713              1.616              1.261
 Vibration     9          0.785              1.422              0.884
 Vibration    10          0.797              1.391              0.838
 Vibration    11          0.821              1.330              0.755
 Vibration    12          0.872              1.213              0.618
 Vibration    13          0.881              1.193              0.596
 Vibration    14          0.892              1.168              0.571
 Vibration    15          0.916              1.117              0.523
 Vibration    16          0.933              1.082              0.492
 Vibration    17          0.948              1.051              0.466

 Optimization completed.
    -- Stationary point found.
 Normal termination of Gaussian 16 at Wed Oct 28 01:43:05 2020.
