 Gaussian 16, Revision C.01,
 Gaussian 16:  ES64L-G16RevC.01  3-Jul-2019

 ----------------------------------------------------------------------
 #p opt=addgic freq wb97xd/cc-pvdz nosymm int=ultrafine scrf=(solvent=C
 arbonTetraChloride)
 ----------------------------------------------------------------------

 ------------------------------------------------
 NM 2D-scan of HBT TD-WB97XD pVDZ in CTC Relaxed.
 ------------------------------------------------
 Symbolic Z-matrix:
 Charge =  0 Multiplicity = 1

 SCF Done:  E(RwB97XD) =  -1028.81909651     A.U. after   15 cycles
 SCF Done:  E(RwB97XD) =  -1028.82746481     A.U. after   13 cycles
 SCF Done:  E(RwB97XD) =  -1028.82819340     A.U. after   12 cycles
 SCF Done:  E(RwB97XD) =  -1028.82831051     A.U. after   11 cycles
 SCF Done:  E(RwB97XD) =  -1028.82838650     A.U. after   10 cycles
 SCF Done:  E(RwB97XD) =  -1028.82838831     A.U. after    9 cycles
 SCF Done:  E(RwB97XD) =  -1028.82838833     A.U. after    8 cycles
 SCF Done:  E(RwB97XD) =  -1028.82838850     A.U. after    7 cycles
 Optimization completed.
    -- Stationary point found.
 Normal termination of Gaussian 16 at Wed Oct 28 00:31:12 2020.

 --------------------------------------------------------------------
 #P Geom=AllCheck Guess=TCheck SCRF=Check GenChk RwB97XD/CC-pVDZ Freq
 --------------------------------------------------------------------

 Structure from the checkpoint file:  "config_4_13.chk"
 ------------------------------------------------
 NM 2D-scan of HBT TD-WB97XD pVDZ in CTC Relaxed.
 ------------------------------------------------
 Charge =  0 Multiplicity = 1

                          Input orientation:
 ---------------------------------------------------------------------
 Center     Atomic      Atomic             Coordinates (Angstroms)
 Number     Number       Type             X           Y           Z
 ---------------------------------------------------------------------
      1          6           0        1.594006   -3.272681   -0.000076
      2          6           0        0.994453   -2.014534   -0.000082
      3          6           0        1.744372   -0.827213    0.000004
      4          6           0        3.143823   -0.899222    0.000100
      5          6           0        3.745485   -2.152825    0.000106
      6          6           0        2.980893   -3.330056    0.000019
      7          1           0        0.991181   -4.181148   -0.000141
      8          1           0        3.737955    0.015192    0.000169
      9          1           0        4.834250   -2.222592    0.000181
     10          1           0        3.479685   -4.300173    0.000028
     11          7           0        0.961218    0.318381   -0.000014
     12         16           0       -0.712680   -1.643890   -0.000178
     13          6           0       -1.336262    1.098389   -0.000078
     14          6           0       -2.704842    0.796878   -0.000010
     15          6           0       -0.899105    2.446690   -0.000060
     16          6           0       -3.657459    1.803066    0.000121
     17          1           0       -3.024932   -0.247909   -0.000025
     18          6           0       -1.879692    3.459427    0.000095
     19          6           0       -3.230804    3.137094    0.000182
     20          1           0       -4.719430    1.557592    0.000190
     21          1           0       -1.548390    4.498654    0.000110
     22          1           0       -3.969829    3.940889    0.000285
     23          6           0       -0.320929    0.055629   -0.000115
     24          8           0        0.391313    2.746942   -0.000241
     25          1           0        0.905398    1.863655   -0.000462
 ---------------------------------------------------------------------

 SCF Done:  E(RwB97XD) =  -1028.82838850     A.U. after    1 cycles

 Alpha  occ. eigenvalues --  -89.08712 -19.27318 -14.47197 -10.39457 -10.37221
 Alpha  occ. eigenvalues --  -10.35202 -10.34789 -10.32345 -10.31943 -10.31854
 Alpha  occ. eigenvalues --  -10.31806 -10.31654 -10.31589 -10.31398 -10.30161
 Alpha  occ. eigenvalues --  -10.30100  -8.10804  -6.05652  -6.05292  -6.04855
 Alpha  occ. eigenvalues --   -1.16043  -1.09095  -0.97362  -0.96199  -0.91898
 Alpha  occ. eigenvalues --   -0.88637  -0.85522  -0.84460  -0.83002  -0.75535
 Alpha  occ. eigenvalues --   -0.71486  -0.70614  -0.69415  -0.68162  -0.63283
 Alpha  occ. eigenvalues --   -0.60681  -0.58949  -0.58352  -0.56362  -0.54535
 Alpha  occ. eigenvalues --   -0.54288  -0.53325  -0.52810  -0.50911  -0.50253
 Alpha  occ. eigenvalues --   -0.49406  -0.47372  -0.46034  -0.45424  -0.45055
 Alpha  occ. eigenvalues --   -0.44011  -0.42846  -0.42722  -0.39896  -0.36849
 Alpha  occ. eigenvalues --   -0.36240  -0.32215  -0.31674  -0.28989
 Alpha virt. eigenvalues --   -0.00504   0.04761   0.06805   0.07281   0.07837
 Alpha virt. eigenvalues --    0.11338   0.14451   0.15173   0.16790   0.18007
 Alpha virt. eigenvalues --    0.18972   0.21014   0.21709   0.22604   0.22657

 Mulliken charges:
               1
     1  C    0.013980
     2  C   -0.218079
     3  C    0.233078
     4  C   -0.015890
     5  C    0.004850
     6  C    0.002133
     7  H    0.018866
     8  H    0.020416
     9  H    0.020757
    10  H    0.021844
    11  N   -0.352128
    12  S    0.152884
    13  C   -0.058095
    14  C   -0.027151
    15  C    0.076975
    16  C   -0.008450
    17  H    0.016032
    18  C    0.000693
    19  C    0.021165
    20  H    0.009110
    21  H    0.015346
    22  H    0.018453
    23  C    0.085833
    24  O   -0.225526
    25  H    0.172906
 Sum of Mulliken charges =  -0.00000

 Dipole moment (field-independent basis, Debye):
    X=              0.0100    Y=             -2.8405    Z=             -0.0001  Tot=              2.8405
 Quadrupole moment (field-independent basis, Debye-Ang):
   XX=            -82.7089   YY=            -90.3988   ZZ=           -104.0272
   XY=             -7.2633   XZ=             -0.0004   YZ=              0.0006

  Exact polarizability:     274.401     -67.924     255.142      -0.000       0.005      62.885
 Approx polarizability:     262.123     -23.456     242.186       0.001       0.005      82.150

                      1                      2                      3
                      A                      A                      A
 Frequencies --     26.7760                63.5989               124.8096
 Red. masses --      5.4255                 5.9334                 5.6211
 Frc consts  --      0.0023                 0.0141                 0.0516
 IR Inten    --      0.0332                 1.2680                 1.9119

                      4                      5                      6
                      A                      A                      A
 Frequencies --    152.1769               197.4931               244.6895
 Red. masses --      5.0416                 6.0229                 5.6431
 Frc consts  --      0.0688                 0.1384                 0.1991
 IR Inten    --      0.1147                 0.6562                 0.0477

                      7                      8                      9
                      A                      A                      A
 Frequencies --    275.4222               326.2485               329.1075
 Red. masses --      7.4308                 6.3260                 5.1206
 Frc consts  --      0.3321                 0.3967                 0.3268
 IR Inten    --      0.7872                 9.8197                 0.1341

                     10                     11                     12
                      A                      A                      A
 Frequencies --    417.1626               436.7322               464.4949
 Red. masses --     10.1332                 3.1111                 3.6270
 Frc consts  --      1.0390                 0.3496                 0.4611
 IR Inten    --      0.0397                 1.8900                 8.1077

                     13                     14                     15
                      A                      A                      A
 Frequencies --    516.7042               524.0430               537.8348
 Red. masses --      8.3530                 5.5515                 3.4652
 Frc consts  --      1.3139                 0.8982                 0.5906
 IR Inten    --      0.2494                15.4551                 3.5095

                     16                     17                     18
                      A                      A                      A
 Frequencies --    555.8544               575.8038               591.2398
 Red. masses --      7.4272                 3.7230                 7.6545
 Frc consts  --      1.3521                 0.7273                 1.5765
 IR Inten    --      3.7680                 0.0420                 3.9592

                     19                     20                     21
                      A                      A                      A
 Frequencies --    647.8553               683.7273               726.9638
 Red. masses --      6.2717                 6.5018                 6.5769
 Frc consts  --      1.5509                 1.7908                 2.0478
 IR Inten    --      0.0016                 5.5358                20.0983

                     22                     23                     24
                      A                      A                      A
 Frequencies --    755.1806               756.0818               767.4290
 Red. masses --     10.2638                 1.9825                 3.2220
 Frc consts  --      3.4487                 0.6677                 1.1180
 IR Inten    --     17.7247                27.9359                 1.2205

                     25                     26                     27
                      A                      A                      A
 Frequencies --    775.2493               785.7252               851.7214
 Red. masses --      1.3543                 1.9331                 5.9393
 Frc consts  --      0.4796                 0.7032                 2.5385
 IR Inten    --     60.5860                39.0846                16.6185

                     28                     29                     30
                      A                      A                      A
 Frequencies --    882.8078               886.7313               900.3749
 Red. masses --      1.5626                 1.4127                 6.6700
 Frc consts  --      0.7175                 0.6545                 3.1858
 IR Inten    --      5.2819                 0.2419                 3.3952

                     31                     32                     33
                      A                      A                      A
 Frequencies --    967.8722               970.0883               975.6846
 Red. masses --      1.3047                 1.1207                 1.3494
 Frc consts  --      0.7201                 0.6214                 0.7568
 IR Inten    --     19.6408                49.0564                 9.3194

                     34                     35                     36
                      A                      A                      A
 Frequencies --   1004.5973              1010.9772              1015.6191
 Red. masses --      7.5789                 1.3028                 1.3052
 Frc consts  --      4.5065                 0.7845                 0.7932
 IR Inten    --     49.7949                 0.7215                 0.0730

                     37                     38                     39
                      A                      A                      A
 Frequencies --   1052.6656              1067.9548              1103.8584
 Red. masses --      1.9985                 1.9097                 3.7056
 Frc consts  --      1.3048                 1.2833                 2.6603
 IR Inten    --      8.8925                 9.2963                 5.5222

                     40                     41                     42
                      A                      A                      A
 Frequencies --   1151.9852              1156.6106              1174.5040
 Red. masses --      1.4568                 1.3546                 1.1233
 Frc consts  --      1.1390                 1.0676                 0.9130
 IR Inten    --      9.7247                 2.9493                40.7295

                     43                     44                     45
                      A                      A                      A
 Frequencies --   1184.5043              1259.4124              1286.6753
 Red. masses --      1.2212                 1.8806                 1.6140
 Frc consts  --      1.0095                 1.7575                 1.5744
 IR Inten    --      0.3424                79.6128                 2.6236

                     46                     47                     48
                      A                      A                      A
 Frequencies --   1298.0449              1327.0288              1357.8258
 Red. masses --      3.0583                 2.9052                 4.2253
 Frc consts  --      3.0360                 3.0143                 4.5898
 IR Inten    --    199.9021                25.1876                13.6294

                     49                     50                     51
                      A                      A                      A
 Frequencies --   1376.9756              1378.7874              1484.4310
 Red. masses --      6.9790                 4.2457                 2.6203
 Frc consts  --      7.7965                 4.7555                 3.4018
 IR Inten    --     12.2409                15.8455                 8.1293

                     52                     53                     54
                      A                      A                      A
 Frequencies --   1492.1146              1503.6648              1526.1633
 Red. masses --      2.5715                 2.8691                 4.0698
 Frc consts  --      3.3731                 3.8221                 5.5851
 IR Inten    --     37.6635                11.6275               119.6523

                     55                     56                     57
                      A                      A                      A
 Frequencies --   1577.9422              1599.8244              1652.0190
 Red. masses --      5.4359                 2.6270                 6.9003
 Frc consts  --      7.9745                 3.9615                11.0956
 IR Inten    --    282.1178                16.3768                 6.8017

                     58                     59                     60
                      A                      A                      A
 Frequencies --   1677.6192              1691.2825              1714.8003
 Red. masses --      6.8104                 3.5918                 2.6447
 Frc consts  --     11.2930                 6.0533                 4.5820
 IR Inten    --     30.6376               192.1902               199.9682

                     61                     62                     63
                      A                      A                      A
 Frequencies --   2722.3701              3200.7407              3209.6987
 Red. masses --      1.0792                 1.0884                 1.0889
 Frc consts  --      4.7127                 6.5696                 6.6097
 IR Inten    --   1387.7884                 3.9597                 6.5706

                     64                     65                     66
                      A                      A                      A
 Frequencies --   3212.2501              3222.9900              3229.3222
 Red. masses --      1.0861                 1.0906                 1.0938
 Frc consts  --      6.6030                 6.6746                 6.7208
 IR Inten    --      1.5737                 3.6972                12.8314

                     67                     68                     69
                      A                      A                      A
 Frequencies --   3233.2441              3237.3247              3239.2788
 Red. masses --      1.0960                 1.0991                 1.0996
 Frc consts  --      6.7503                 6.7865                 6.7982
 IR Inten    --      9.3613                17.5770                13.0762

 - Thermochemistry -
 -------------------
 Temperature   298.150 Kelvin.  Pressure   1.00000 Atm.
 Atom     1 has atomic number  6 and mass  12.00000

 Molecular mass:   227.04049 amu.
 Principal axes and moments of inertia in atomic units:
                           1         2         3
     Eigenvalues --  1287.930176298.271827586.20197
           X           -0.70299   0.71120  -0.00001
           Y            0.71120   0.70299  -0.00001
           Z            0.00001   0.00001   1.00000
 This molecule is an asymmetric top.
 Rotational symmetry number  1.
 Warning -- assumption of classical behavior for rotation
           may cause significant error
 Rotational temperatures (Kelvin)      0.06725     0.01375     0.01142
 Rotational constants (GHZ):           1.40127     0.28655     0.23790
 Zero-point vibrational energy     498416.9 (Joules/Mol)
                                  119.12449 (Kcal/Mol)
 Warning -- explicit consideration of  18 degrees of freedom as
           vibrations may cause significant error
 Vibrational temperatures:     38.52    91.50   179.57   218.95   284.15
          (Kelvin)            352.05   396.27   469.40   473.51   600.20
                              628.36   668.30   743.42   753.98   773.82
                              799.75   828.45   850.66   932.12   983.73
                             1045.94  1086.54  1087.83  1104.16  1115.41
                             1130.48  1225.44  1270.16  1275.81  1295.44
                             1392.55  1395.74  1403.79  1445.39  1454.57
                             1461.25  1514.55  1536.55  1588.21  1657.45
                             1664.10  1689.85  1704.24  1812.01  1851.24
                             1867.60  1909.30  1953.61  1981.16  1983.77
                             2135.77  2146.82  2163.44  2195.81  2270.31
                             2301.79  2376.89  2413.72  2433.38  2467.22
                             3916.88  4605.15  4618.04  4621.71  4637.16
                             4646.27  4651.92  4657.79  4660.60

 Zero-point correction=                           0.189837 (Hartree/Particle)
 Thermal correction to Energy=                    0.201461
 Thermal correction to Enthalpy=                  0.202405
 Thermal correction to Gibbs Free Energy=         0.150847
 Sum of electronic and zero-point Energies=          -1028.638552
 Sum of electronic and thermal Energies=             -1028.626928
 Sum of electronic and thermal Enthalpies=           -1028.625983
 Sum of electronic and thermal Free Energies=        -1028.677542

                     E (Thermal)             CV                S
                      KCal/Mol        Cal/Mol-Kelvin    Cal/Mol-Kelvin
 Total                  126.419             47.188            108.514
 Electronic               0.000              0.000              0.000
 Translational            0.889              2.981             42.162
 Rotational               0.889              2.981             32.487
 Vibrational            124.641             41.226             33.865
 Vibration     1          0.593              1.984              6.055
 Vibration     2          0.597              1.972              4.342
 Vibration     3          0.610              1.928              3.025
 Vibration     4          0.619              1.900              2.645
 Vibration     5          0.637              1.843              2.156
 Vibration     6          0.660              1.772              1.769
 Vibration     7          0.677              1.719              1.562
 Vibration     8          0.710              1.623              1.279
 Vibration     9          0.712              1.617              1.264
 Vibration    10          0.780              1.433              0.902
 Vibration    11          0.797              1.390              0.837
 Vibration    12          0.822              1.329              0.753
 Vibration    13          0.872              1.213              0.618
 Vibration    14          0.879              1.197              0.601
 Vibration    15          0.893              1.166              0.570
 Vibration    16          0.911              1.127              0.532
 Vibration    17          0.932              1.084              0.493
 Vibration    18          0.949              1.050              0.465

 Optimization completed.
    -- Stationary point found.
 Normal termination of Gaussian 16 at Wed Oct 28 00:38:43 2020.
