 Gaussian 16, Revision C.01,
 Gaussian 16:  ES64L-G16RevC.01  3-Jul-2019

 ----------------------------------------------------------------------
 #p opt=addgic freq wb97xd/cc-pvdz nosymm int=ultrafine scrf=(solvent=C
 arbonTetraChloride)
 ----------------------------------------------------------------------

 ------------------------------------------------
 NM 2D-scan of HBT TD-WB97XD pVDZ in CTC Relaxed.
 ------------------------------------------------
 Symbolic Z-matrix:
 Charge =  0 Multiplicity = 1

 SCF Done:  E(RwB97XD) =  -1028.76475432     A.U. after   16 cycles
 SCF Done:  E(RwB97XD) =  -1028.80427819     A.U. after   13 cycles
 SCF Done:  E(RwB97XD) =  -1028.80947790     A.U. after   13 cycles
 SCF Done:  E(RwB97XD) =  -1028.80999197     A.U. after   12 cycles
 SCF Done:  E(RwB97XD) =  -1028.81011067     A.U. after   11 cycles
 SCF Done:  E(RwB97XD) =  -1028.81011500     A.U. after    9 cycles
 Optimization completed.
    -- Stationary point found.
 Normal termination of Gaussian 16 at Tue Oct 27 23:05:46 2020.

 --------------------------------------------------------------------
 #P Geom=AllCheck Guess=TCheck SCRF=Check GenChk RwB97XD/CC-pVDZ Freq
 --------------------------------------------------------------------

 Structure from the checkpoint file:  "config_10_11.chk"
 ------------------------------------------------
 NM 2D-scan of HBT TD-WB97XD pVDZ in CTC Relaxed.
 ------------------------------------------------
 Charge =  0 Multiplicity = 1

                          Input orientation:
 ---------------------------------------------------------------------
 Center     Atomic      Atomic             Coordinates (Angstroms)
 Number     Number       Type             X           Y           Z
 ---------------------------------------------------------------------
      1          6           0        1.627559   -3.273186   -0.000021
      2          6           0        1.002689   -2.030559   -0.000014
      3          6           0        1.746742   -0.853451   -0.000014
      4          6           0        3.141116   -0.877479   -0.000020
      5          6           0        3.765289   -2.121976   -0.000026
      6          6           0        3.019385   -3.306457   -0.000027
      7          1           0        1.044149   -4.193933   -0.000022
      8          1           0        3.715812    0.048946   -0.000020
      9          1           0        4.854833   -2.171091   -0.000030
     10          1           0        3.532130   -4.268810   -0.000032
     11          7           0        0.916703    0.251383   -0.000012
     12         16           0       -0.726274   -1.666367   -0.000005
     13          6           0       -1.359050    1.093946    0.000009
     14          6           0       -2.753515    0.823441    0.000008
     15          6           0       -0.851563    2.464878    0.000020
     16          6           0       -3.677095    1.836964    0.000022
     17          1           0       -3.095145   -0.215916   -0.000005
     18          6           0       -1.884259    3.489775    0.000049
     19          6           0       -3.219647    3.184057    0.000044
     20          1           0       -4.744428    1.615718    0.000020
     21          1           0       -1.542220    4.526489    0.000073
     22          1           0       -3.955139    3.992715    0.000059
     23          6           0       -0.408464    0.047844   -0.000002
     24          8           0        0.372215    2.728775    0.000050
     25          1           0        1.257187    1.206995   -0.000017
 ---------------------------------------------------------------------

 SCF Done:  E(RwB97XD) =  -1028.81011500     A.U. after    1 cycles

 Alpha  occ. eigenvalues --  -89.09959 -19.21475 -14.51779 -10.41388 -10.37111
 Alpha  occ. eigenvalues --  -10.36113 -10.35904 -10.33273 -10.32968 -10.32553
 Alpha  occ. eigenvalues --  -10.32284 -10.31173 -10.30699 -10.30516 -10.29127
 Alpha  occ. eigenvalues --  -10.28595  -8.11997  -6.06880  -6.06495  -6.06004
 Alpha  occ. eigenvalues --   -1.13132  -1.09956  -0.98588  -0.95317  -0.93236
 Alpha  occ. eigenvalues --   -0.89248  -0.86612  -0.83906  -0.81817  -0.75633
 Alpha  occ. eigenvalues --   -0.73348  -0.71952  -0.69191  -0.67938  -0.64721
 Alpha  occ. eigenvalues --   -0.60911  -0.59756  -0.56706  -0.55953  -0.55881
 Alpha  occ. eigenvalues --   -0.55019  -0.53726  -0.53006  -0.50332  -0.49594
 Alpha  occ. eigenvalues --   -0.49033  -0.48270  -0.46741  -0.45612  -0.44759
 Alpha  occ. eigenvalues --   -0.44526  -0.42987  -0.41847  -0.40444  -0.36841
 Alpha  occ. eigenvalues --   -0.33555  -0.31737  -0.31647  -0.26335
 Alpha virt. eigenvalues --   -0.01251   0.03796   0.05958   0.06843   0.09326
 Alpha virt. eigenvalues --    0.11198   0.13632   0.14694   0.16072   0.17265
 Alpha virt. eigenvalues --    0.18650   0.19973   0.21083   0.21598   0.23093

 Mulliken charges:
               1
     1  C    0.014875
     2  C   -0.241146
     3  C    0.247755
     4  C   -0.010201
     5  C    0.010880
     6  C    0.003209
     7  H    0.024581
     8  H    0.030920
     9  H    0.027159
    10  H    0.025933
    11  N   -0.117843
    12  S    0.181985
    13  C   -0.111474
    14  C   -0.011658
    15  C    0.108071
    16  C   -0.032331
    17  H    0.006670
    18  C   -0.028054
    19  C    0.027417
    20  H    0.002394
    21  H    0.001858
    22  H    0.013675
    23  C    0.082056
    24  O   -0.385752
    25  H    0.129022
 Sum of Mulliken charges =   0.00000

 Dipole moment (field-independent basis, Debye):
    X=              1.8352    Y=             -5.2209    Z=             -0.0001  Tot=              5.5340
 Quadrupole moment (field-independent basis, Debye-Ang):
   XX=            -81.8459   YY=            -95.2299   ZZ=           -104.0037
   XY=             -6.7795   XZ=             -0.0002   YZ=             -0.0001

  Exact polarizability:     287.849     -87.760     285.691      -0.001       0.002      62.907
 Approx polarizability:     266.529     -33.360     255.325      -0.001       0.002      81.937

                      1                      2                      3
                      A                      A                      A
 Frequencies --     54.1064                64.2188               113.8992
 Red. masses --      4.6742                 6.3113                 5.6754
 Frc consts  --      0.0081                 0.0153                 0.0434
 IR Inten    --      0.0107                 2.5585                 1.1251

                      4                      5                      6
                      A                      A                      A
 Frequencies --    130.1133               195.7318               230.3156
 Red. masses --      5.3855                 6.1251                 5.9263
 Frc consts  --      0.0537                 0.1383                 0.1852
 IR Inten    --      1.1696                 0.0046                 0.8080

                      7                      8                      9
                      A                      A                      A
 Frequencies --    269.5950               307.7500               312.9069
 Red. masses --      7.6045                 5.3161                 6.8148
 Frc consts  --      0.3256                 0.2966                 0.3931
 IR Inten    --      5.1611                 1.2560                 4.2604

                     10                     11                     12
                      A                      A                      A
 Frequencies --    398.5125               427.9700               446.3919
 Red. masses --      9.2058                 3.2634                 3.5469
 Frc consts  --      0.8614                 0.3522                 0.4164
 IR Inten    --      4.2020                 0.2905                10.1314

                     13                     14                     15
                      A                      A                      A
 Frequencies --    507.1498               525.7478               537.8358
 Red. masses --      8.3097                 2.7412                 8.3177
 Frc consts  --      1.2592                 0.4464                 1.4176
 IR Inten    --      9.9134                 6.6232                 9.4671

                     16                     17                     18
                      A                      A                      A
 Frequencies --    553.3205               561.8826               583.5081
 Red. masses --      6.6291                 3.8052                 7.1719
 Frc consts  --      1.1958                 0.7078                 1.4387
 IR Inten    --      2.8605                 0.0091                37.3545

                     19                     20                     21
                      A                      A                      A
 Frequencies --    629.5298               657.4143               712.2494
 Red. masses --      4.3013                 5.9566                 6.0006
 Frc consts  --      1.0043                 1.5168                 1.7935
 IR Inten    --      2.9112                 4.4496                45.2301

                     22                     23                     24
                      A                      A                      A
 Frequencies --    729.6842               740.4868               752.3135
 Red. masses --      1.2663                 7.9060                 2.5692
 Frc consts  --      0.3973                 2.5541                 0.8567
 IR Inten    --     49.8049                58.9278                25.1216

                     25                     26                     27
                      A                      A                      A
 Frequencies --    761.6505               775.9796               784.7666
 Red. masses --      1.3939                 1.5565                 2.2632
 Frc consts  --      0.4764                 0.5522                 0.8212
 IR Inten    --     34.4158                44.6702                41.9386

                     28                     29                     30
                      A                      A                      A
 Frequencies --    834.8483               877.5634               882.3908
 Red. masses --      6.1677                 1.9954                 1.3790
 Frc consts  --      2.5327                 0.9054                 0.6326
 IR Inten    --     19.0924                17.1704                 1.1627

                     31                     32                     33
                      A                      A                      A
 Frequencies --    883.7754               965.2501               967.5982
 Red. masses --      4.4437                 4.4815                 1.3222
 Frc consts  --      2.0449                 2.4601                 0.7294
 IR Inten    --      1.9375                36.7702                 0.1685

                     34                     35                     36
                      A                      A                      A
 Frequencies --    970.6608              1014.4265              1017.2433
 Red. masses --      1.3599                 1.3035                 1.3066
 Frc consts  --      0.7549                 0.7903                 0.7966
 IR Inten    --      1.4623                 0.0178                 0.3677

                     37                     38                     39
                      A                      A                      A
 Frequencies --   1041.9467              1056.2296              1089.0584
 Red. masses --      2.1450                 2.0544                 3.7339
 Frc consts  --      1.3721                 1.3504                 2.6092
 IR Inten    --     12.1716                12.4958                21.4169

                     40                     41                     42
                      A                      A                      A
 Frequencies --   1128.7097              1157.5371              1161.1734
 Red. masses --      1.9958                 1.3555                 1.1835
 Frc consts  --      1.4980                 1.0701                 0.9402
 IR Inten    --     88.2218                 0.8495                82.8588

                     43                     44                     45
                      A                      A                      A
 Frequencies --   1182.9875              1198.2183              1253.1463
 Red. masses --      1.1478                 1.2558                 1.9400
 Frc consts  --      0.9464                 1.0623                 1.7950
 IR Inten    --     13.7930                21.4322                 8.3935

                     46                     47                     48
                      A                      A                      A
 Frequencies --   1289.0982              1303.2449              1362.7144
 Red. masses --      1.6110                 2.6788                 2.8356
 Frc consts  --      1.5773                 2.6807                 3.1024
 IR Inten    --     11.7071               160.7751                27.9972

                     49                     50                     51
                      A                      A                      A
 Frequencies --   1388.0764              1394.6637              1417.3178
 Red. masses --      5.5403                 6.4759                 2.3186
 Frc consts  --      6.2894                 7.4214                 2.7442
 IR Inten    --    117.0002                29.4657                 9.5102

                     52                     53                     54
                      A                      A                      A
 Frequencies --   1493.2130              1507.1261              1525.1055
 Red. masses --      2.7368                 2.8371                 3.2394
 Frc consts  --      3.5953                 3.7969                 4.4394
 IR Inten    --     31.3504               396.2245                90.7495

                     55                     56                     57
                      A                      A                      A
 Frequencies --   1557.8078              1601.3648              1640.4710
 Red. masses --      4.2833                 6.3654                 7.1786
 Frc consts  --      6.1244                 9.6173                11.3822
 IR Inten    --   1633.9754               158.3715               171.4554

                     58                     59                     60
                      A                      A                      A
 Frequencies --   1680.2536              1683.5796              1717.1249
 Red. masses --      7.3155                 7.2007                 7.3208
 Frc consts  --     12.1686                12.0251                12.7178
 IR Inten    --      1.4502               141.2696               352.2517

                     61                     62                     63
                      A                      A                      A
 Frequencies --   3183.2623              3194.5352              3218.0435
 Red. masses --      1.0890                 1.0879                 1.0864
 Frc consts  --      6.5019                 6.5411                 6.6286
 IR Inten    --      4.0945                14.7711                 1.3913

                     64                     65                     66
                      A                      A                      A
 Frequencies --   3220.2332              3228.3926              3233.3047
 Red. masses --      1.0946                 1.0908                 1.0972
 Frc consts  --      6.6878                 6.6983                 6.7580
 IR Inten    --     28.3726                 2.6012                19.3326

                     67                     68                     69
                      A                      A                      A
 Frequencies --   3237.4150              3243.7809              3527.3872
 Red. masses --      1.0961                 1.0999                 1.0828
 Frc consts  --      6.7687                 6.8190                 7.9376
 IR Inten    --      5.1845                11.2015               198.4980

 - Thermochemistry -
 -------------------
 Temperature   298.150 Kelvin.  Pressure   1.00000 Atm.
 Atom     1 has atomic number  6 and mass  12.00000

 Molecular mass:   227.04049 amu.
 Principal axes and moments of inertia in atomic units:
                           1         2         3
     Eigenvalues --  1291.938656354.487757646.42640
           X           -0.70469   0.70952   0.00000
           Y            0.70952   0.70469  -0.00001
           Z            0.00001   0.00001   1.00000
 This molecule is an asymmetric top.
 Rotational symmetry number  1.
 Warning -- assumption of classical behavior for rotation
           may cause significant error
 Rotational temperatures (Kelvin)      0.06704     0.01363     0.01133
 Rotational constants (GHZ):           1.39692     0.28401     0.23602
 Zero-point vibrational energy     498216.6 (Joules/Mol)
                                  119.07663 (Kcal/Mol)
 Warning -- explicit consideration of  18 degrees of freedom as
           vibrations may cause significant error
 Vibrational temperatures:     77.85    92.40   163.88   187.20   281.61
          (Kelvin)            331.37   387.89   442.78   450.20   573.37
                              615.75   642.26   729.68   756.43   773.83
                              796.10   808.42   839.54   905.75   945.87
                             1024.77  1049.85  1065.40  1082.41  1095.85
                             1116.46  1129.10  1201.16  1262.62  1269.56
                             1271.56  1388.78  1392.16  1396.56  1459.53
                             1463.59  1499.13  1519.68  1566.91  1623.96
                             1665.44  1670.67  1702.06  1723.97  1803.00
                             1854.72  1875.08  1960.64  1997.13  2006.61
                             2039.20  2148.40  2168.42  2194.29  2241.34
                             2304.01  2360.27  2417.51  2422.30  2470.56
                             4580.00  4596.22  4630.05  4633.20  4644.94
                             4652.00  4657.92  4667.08  5075.12

 Zero-point correction=                           0.189761 (Hartree/Particle)
 Thermal correction to Energy=                    0.201643
 Thermal correction to Enthalpy=                  0.202587
 Thermal correction to Gibbs Free Energy=         0.151035
 Sum of electronic and zero-point Energies=          -1028.620354
 Sum of electronic and thermal Energies=             -1028.608472
 Sum of electronic and thermal Enthalpies=           -1028.607528
 Sum of electronic and thermal Free Energies=        -1028.659080

                     E (Thermal)             CV                S
                      KCal/Mol        Cal/Mol-Kelvin    Cal/Mol-Kelvin
 Total                  126.533             48.261            108.501
 Electronic               0.000              0.000              0.000
 Translational            0.889              2.981             42.162
 Rotational               0.889              2.981             32.507
 Vibrational            124.755             42.299             33.832
 Vibration     1          0.596              1.976              4.661
 Vibration     2          0.597              1.971              4.323
 Vibration     3          0.607              1.938              3.201
 Vibration     4          0.612              1.923              2.944
 Vibration     5          0.636              1.846              2.173
 Vibration     6          0.652              1.795              1.876
 Vibration     7          0.674              1.729              1.599
 Vibration     8          0.698              1.659              1.374
 Vibration     9          0.701              1.649              1.347
 Vibration    10          0.765              1.473              0.968
 Vibration    11          0.789              1.409              0.865
 Vibration    12          0.806              1.369              0.807
 Vibration    13          0.862              1.234              0.640
 Vibration    14          0.881              1.193              0.597
 Vibration    15          0.893              1.166              0.570
 Vibration    16          0.909              1.132              0.537
 Vibration    17          0.918              1.114              0.520
 Vibration    18          0.940              1.067              0.479

 Optimization completed.
    -- Stationary point found.
 Normal termination of Gaussian 16 at Tue Oct 27 23:12:04 2020.
