 Gaussian 16, Revision C.01,
 Gaussian 16:  ES64L-G16RevC.01  3-Jul-2019

 ----------------------------------------------------------------------
 #p opt=addgic freq wb97xd/cc-pvdz nosymm int=ultrafine scrf=(solvent=C
 arbonTetraChloride)
 ----------------------------------------------------------------------

 ------------------------------------------------
 NM 2D-scan of HBT TD-WB97XD pVDZ in CTC Relaxed.
 ------------------------------------------------
 Symbolic Z-matrix:
 Charge =  0 Multiplicity = 1

 SCF Done:  E(RwB97XD) =  -1028.80880557     A.U. after   15 cycles
 SCF Done:  E(RwB97XD) =  -1028.82849349     A.U. after   13 cycles
 SCF Done:  E(RwB97XD) =  -1028.82997930     A.U. after   12 cycles
 SCF Done:  E(RwB97XD) =  -1028.83010699     A.U. after   11 cycles
 SCF Done:  E(RwB97XD) =  -1028.83014159     A.U. after   10 cycles
 SCF Done:  E(RwB97XD) =  -1028.83014543     A.U. after    9 cycles
 Optimization completed.
    -- Stationary point found.
 Normal termination of Gaussian 16 at Wed Oct 28 00:35:02 2020.

 --------------------------------------------------------------------
 #P Geom=AllCheck Guess=TCheck SCRF=Check GenChk RwB97XD/CC-pVDZ Freq
 --------------------------------------------------------------------

 Structure from the checkpoint file:  "config_3_14.chk"
 ------------------------------------------------
 NM 2D-scan of HBT TD-WB97XD pVDZ in CTC Relaxed.
 ------------------------------------------------
 Charge =  0 Multiplicity = 1

                          Input orientation:
 ---------------------------------------------------------------------
 Center     Atomic      Atomic             Coordinates (Angstroms)
 Number     Number       Type             X           Y           Z
 ---------------------------------------------------------------------
      1          6           0        1.583363   -3.284729   -0.000031
      2          6           0        0.987849   -2.023436   -0.000013
      3          6           0        1.745004   -0.838514   -0.000008
      4          6           0        3.144131   -0.918113   -0.000023
      5          6           0        3.741033   -2.172831   -0.000041
      6          6           0        2.970287   -3.346786   -0.000045
      7          1           0        0.978045   -4.191600   -0.000036
      8          1           0        3.740446   -0.005069   -0.000020
      9          1           0        4.829460   -2.247708   -0.000052
     10          1           0        3.465220   -4.318972   -0.000059
     11          7           0        0.981128    0.319584    0.000012
     12         16           0       -0.714296   -1.636936    0.000005
     13          6           0       -1.321889    1.107529    0.000039
     14          6           0       -2.689454    0.792154    0.000039
     15          6           0       -0.912316    2.463342    0.000037
     16          6           0       -3.654580    1.785086    0.000025
     17          1           0       -2.998529   -0.255767    0.000043
     18          6           0       -1.901731    3.463217    0.000016
     19          6           0       -3.247731    3.125352    0.000010
     20          1           0       -4.712902    1.524424    0.000022
     21          1           0       -1.579908    4.505332    0.000012
     22          1           0       -3.996808    3.919587   -0.000004
     23          6           0       -0.301109    0.066240    0.000028
     24          8           0        0.373210    2.807980    0.000063
     25          1           0        0.909598    1.960109    0.000095
 ---------------------------------------------------------------------

 SCF Done:  E(RwB97XD) =  -1028.83014543     A.U. after    1 cycles

 Alpha  occ. eigenvalues --  -89.08586 -19.27922 -14.47085 -10.39379 -10.37356
 Alpha  occ. eigenvalues --  -10.35044 -10.34722 -10.32282 -10.32132 -10.31858
 Alpha  occ. eigenvalues --  -10.31723 -10.31589 -10.31493 -10.31450 -10.30254
 Alpha  occ. eigenvalues --  -10.30191  -8.10666  -6.05514  -6.05157  -6.04717
 Alpha  occ. eigenvalues --   -1.16383  -1.08933  -0.97311  -0.96241  -0.91762
 Alpha  occ. eigenvalues --   -0.88599  -0.85461  -0.84582  -0.82930  -0.75495
 Alpha  occ. eigenvalues --   -0.71500  -0.70615  -0.69424  -0.68151  -0.63243
 Alpha  occ. eigenvalues --   -0.60567  -0.58849  -0.58441  -0.56447  -0.54536
 Alpha  occ. eigenvalues --   -0.54119  -0.53245  -0.52864  -0.50843  -0.50362
 Alpha  occ. eigenvalues --   -0.49300  -0.47538  -0.45951  -0.45440  -0.45029
 Alpha  occ. eigenvalues --   -0.43997  -0.42960  -0.42589  -0.39799  -0.37197
 Alpha  occ. eigenvalues --   -0.36218  -0.32104  -0.31725  -0.29116
 Alpha virt. eigenvalues --   -0.00470   0.04837   0.06804   0.07170   0.07900
 Alpha virt. eigenvalues --    0.11410   0.14387   0.15205   0.16789   0.18039
 Alpha virt. eigenvalues --    0.18926   0.20982   0.21646   0.22566   0.22743

 Mulliken charges:
               1
     1  C    0.012811
     2  C   -0.213484
     3  C    0.222400
     4  C   -0.016362
     5  C    0.004660
     6  C    0.001442
     7  H    0.018519
     8  H    0.018950
     9  H    0.020011
    10  H    0.021444
    11  N   -0.352608
    12  S    0.147736
    13  C   -0.051322
    14  C   -0.028352
    15  C    0.068614
    16  C   -0.006167
    17  H    0.017678
    18  C    0.005502
    19  C    0.020971
    20  H    0.009670
    21  H    0.016539
    22  H    0.018810
    23  C    0.085955
    24  O   -0.210201
    25  H    0.166784
 Sum of Mulliken charges =  -0.00000

 Dipole moment (field-independent basis, Debye):
    X=             -0.1079    Y=             -2.6019    Z=             -0.0000  Tot=              2.6042
 Quadrupole moment (field-independent basis, Debye-Ang):
   XX=            -82.7249   YY=            -90.1681   ZZ=           -104.0628
   XY=             -7.2189   XZ=             -0.0000   YZ=              0.0001

  Exact polarizability:     273.819     -67.289     254.644      -0.001       0.001      62.902
 Approx polarizability:     261.856     -23.074     242.069      -0.001       0.001      82.151

                      1                      2                      3
                      A                      A                      A
 Frequencies --     36.3613                62.3671               124.8975
 Red. masses --      5.5409                 5.7201                 5.6459
 Frc consts  --      0.0043                 0.0131                 0.0519
 IR Inten    --      0.0785                 1.1719                 1.4587

                      4                      5                      6
                      A                      A                      A
 Frequencies --    151.8901               197.8648               245.4701
 Red. masses --      5.0271                 6.0183                 5.6409
 Frc consts  --      0.0683                 0.1388                 0.2003
 IR Inten    --      0.0504                 0.7214                 0.0251

                      7                      8                      9
                      A                      A                      A
 Frequencies --    274.8425               317.1008               329.1772
 Red. masses --      7.5709                 6.4348                 5.0977
 Frc consts  --      0.3370                 0.3812                 0.3254
 IR Inten    --      0.9241                 7.2054                 0.1120

                     10                     11                     12
                      A                      A                      A
 Frequencies --    415.1697               437.5642               466.3498
 Red. masses --      9.8239                 3.1170                 3.6498
 Frc consts  --      0.9977                 0.3516                 0.4677
 IR Inten    --      0.1410                 1.8869                 8.0674

                     13                     14                     15
                      A                      A                      A
 Frequencies --    516.7663               524.7101               537.5389
 Red. masses --      8.5844                 5.3314                 3.4632
 Frc consts  --      1.3507                 0.8648                 0.5896
 IR Inten    --      0.0760                 9.9391                 3.5872

                     16                     17                     18
                      A                      A                      A
 Frequencies --    552.7272               575.9094               591.7721
 Red. masses --      7.7259                 3.7349                 7.6700
 Frc consts  --      1.3907                 0.7299                 1.5825
 IR Inten    --      2.4542                 0.0284                 4.9422

                     19                     20                     21
                      A                      A                      A
 Frequencies --    647.3272               681.1548               725.8568
 Red. masses --      6.1339                 6.5753                 6.6948
 Frc consts  --      1.5144                 1.7974                 2.0782
 IR Inten    --      0.0088                 4.2882                23.6350

                     22                     23                     24
                      A                      A                      A
 Frequencies --    745.3169               756.1789               765.3658
 Red. masses --     10.0912                 1.9501                 3.2537
 Frc consts  --      3.3027                 0.6570                 1.1229
 IR Inten    --     14.7901                30.0549                 0.6590

                     25                     26                     27
                      A                      A                      A
 Frequencies --    775.3970               786.5529               849.9819
 Red. masses --      1.3251                 1.9580                 5.9437
 Frc consts  --      0.4694                 0.7137                 2.5300
 IR Inten    --     62.8119                36.8083                18.0290

                     28                     29                     30
                      A                      A                      A
 Frequencies --    882.9896               885.8679               891.6542
 Red. masses --      1.5793                 1.3044                 1.1601
 Frc consts  --      0.7255                 0.6031                 0.5434
 IR Inten    --     15.0120                 9.3242                59.1197

                     31                     32                     33
                      A                      A                      A
 Frequencies --    895.2218               968.8271               975.7280
 Red. masses --      6.5890                 1.3621                 1.3658
 Frc consts  --      3.1112                 0.7533                 0.7661
 IR Inten    --      3.1834                 0.9527                 1.7918

                     34                     35                     36
                      A                      A                      A
 Frequencies --    999.8513              1011.3081              1015.4602
 Red. masses --      7.6430                 1.3032                 1.3052
 Frc consts  --      4.5018                 0.7853                 0.7929
 IR Inten    --     52.0070                 0.4453                 0.0274

                     37                     38                     39
                      A                      A                      A
 Frequencies --   1052.2273              1069.5463              1103.8918
 Red. masses --      1.9973                 1.9237                 3.7433
 Frc consts  --      1.3029                 1.2965                 2.6875
 IR Inten    --      8.6405                 9.9225                 5.8646

                     40                     41                     42
                      A                      A                      A
 Frequencies --   1152.7577              1156.1865              1175.9572
 Red. masses --      1.4540                 1.3506                 1.1271
 Frc consts  --      1.1384                 1.0638                 0.9183
 IR Inten    --      6.9383                 3.2555                40.0778

                     43                     44                     45
                      A                      A                      A
 Frequencies --   1184.4108              1257.1632              1285.3528
 Red. masses --      1.2283                 1.9090                 1.7251
 Frc consts  --      1.0152                 1.7776                 1.6792
 IR Inten    --      0.2649                96.6964                14.3677

                     46                     47                     48
                      A                      A                      A
 Frequencies --   1291.3480              1329.4149              1350.0566
 Red. masses --      2.4815                 2.9289                 4.1080
 Frc consts  --      2.4381                 3.0498                 4.4115
 IR Inten    --    147.7166                24.3263                15.5256

                     49                     50                     51
                      A                      A                      A
 Frequencies --   1373.5914              1379.3873              1478.4911
 Red. masses --      7.4690                 4.3567                 2.3063
 Frc consts  --      8.3029                 4.8840                 2.9703
 IR Inten    --     13.7807                16.3543                 9.1845

                     52                     53                     54
                      A                      A                      A
 Frequencies --   1489.3525              1505.2927              1530.6067
 Red. masses --      2.5697                 2.8959                 3.7749
 Frc consts  --      3.3584                 3.8661                 5.2105
 IR Inten    --     48.8029                13.0580               116.4554

                     55                     56                     57
                      A                      A                      A
 Frequencies --   1567.9739              1591.3077              1648.5820
 Red. masses --      2.4168                 4.3282                 6.8423
 Frc consts  --      3.5008                 6.4575                10.9566
 IR Inten    --    200.6715               114.4481                 5.4088

                     58                     59                     60
                      A                      A                      A
 Frequencies --   1676.6270              1679.4726              1710.0540
 Red. masses --      3.8122                 5.9815                 4.6133
 Frc consts  --      6.3139                 9.9404                 7.9484
 IR Inten    --    137.8928                38.3232               140.8447

                     61                     62                     63
                      A                      A                      A
 Frequencies --   3088.9968              3202.2366              3211.4781
 Red. masses --      1.0705                 1.0882                 1.0861
 Frc consts  --      6.0184                 6.5748                 6.5998
 IR Inten    --   1044.1353                 6.0604                 1.2434

                     64                     65                     66
                      A                      A                      A
 Frequencies --   3211.6341              3222.3467              3230.1189
 Red. masses --      1.0889                 1.0905                 1.0940
 Frc consts  --      6.6172                 6.6716                 6.7252
 IR Inten    --      4.9461                 3.7603                12.0352

                     67                     68                     69
                      A                      A                      A
 Frequencies --   3232.6372              3238.0169              3238.6591
 Red. masses --      1.0960                 1.0993                 1.0996
 Frc consts  --      6.7478                 6.7910                 6.7953
 IR Inten    --      9.6112                19.4942                10.4191

 - Thermochemistry -
 -------------------
 Temperature   298.150 Kelvin.  Pressure   1.00000 Atm.
 Atom     1 has atomic number  6 and mass  12.00000

 Molecular mass:   227.04049 amu.
 Principal axes and moments of inertia in atomic units:
                           1         2         3
     Eigenvalues --  1293.856096323.952617617.80870
           X           -0.70047   0.71368   0.00000
           Y            0.71368   0.70047  -0.00001
           Z            0.00001   0.00000   1.00000
 This molecule is an asymmetric top.
 Rotational symmetry number  1.
 Warning -- assumption of classical behavior for rotation
           may cause significant error
 Rotational temperatures (Kelvin)      0.06694     0.01370     0.01137
 Rotational constants (GHZ):           1.39485     0.28538     0.23691
 Zero-point vibrational energy     499642.5 (Joules/Mol)
                                  119.41741 (Kcal/Mol)
 Warning -- explicit consideration of  18 degrees of freedom as
           vibrations may cause significant error
 Vibrational temperatures:     52.32    89.73   179.70   218.54   284.68
          (Kelvin)            353.18   395.44   456.24   473.61   597.34
                              629.56   670.97   743.51   754.94   773.40
                              795.25   828.61   851.43   931.36   980.03
                             1044.35  1072.34  1087.97  1101.19  1115.62
                             1131.67  1222.93  1270.43  1274.57  1282.89
                             1288.02  1393.93  1403.85  1438.56  1455.05
                             1461.02  1513.92  1538.84  1588.25  1658.56
                             1663.49  1691.94  1704.10  1808.78  1849.34
                             1857.96  1912.73  1942.43  1976.29  1984.63
                             2127.22  2142.85  2165.78  2202.20  2255.96
                             2289.54  2371.94  2412.29  2416.39  2460.39
                             4444.38  4607.30  4620.60  4620.83  4636.24
                             4647.42  4651.04  4658.78  4659.71

 Zero-point correction=                           0.190304 (Hartree/Particle)
 Thermal correction to Energy=                    0.201944
 Thermal correction to Enthalpy=                  0.202888
 Thermal correction to Gibbs Free Energy=         0.151542
 Sum of electronic and zero-point Energies=          -1028.639842
 Sum of electronic and thermal Energies=             -1028.628202
 Sum of electronic and thermal Enthalpies=           -1028.627258
 Sum of electronic and thermal Free Energies=        -1028.678604

                     E (Thermal)             CV                S
                      KCal/Mol        Cal/Mol-Kelvin    Cal/Mol-Kelvin
 Total                  126.722             47.362            108.067
 Electronic               0.000              0.000              0.000
 Translational            0.889              2.981             42.162
 Rotational               0.889              2.981             32.500
 Vibrational            124.944             41.400             33.406
 Vibration     1          0.594              1.982              5.448
 Vibration     2          0.597              1.972              4.381
 Vibration     3          0.610              1.928              3.023
 Vibration     4          0.619              1.901              2.648
 Vibration     5          0.637              1.843              2.153
 Vibration     6          0.660              1.770              1.763
 Vibration     7          0.677              1.720              1.566
 Vibration     8          0.704              1.641              1.325
 Vibration     9          0.712              1.617              1.264
 Vibration    10          0.779              1.437              0.909
 Vibration    11          0.798              1.388              0.834
 Vibration    12          0.824              1.325              0.748
 Vibration    13          0.872              1.213              0.618
 Vibration    14          0.880              1.195              0.599
 Vibration    15          0.893              1.167              0.571
 Vibration    16          0.908              1.134              0.539
 Vibration    17          0.932              1.083              0.493
 Vibration    18          0.949              1.049              0.464

 Optimization completed.
    -- Stationary point found.
 Normal termination of Gaussian 16 at Wed Oct 28 00:41:26 2020.
