 Gaussian 16, Revision C.01,
 Gaussian 16:  ES64L-G16RevC.01  3-Jul-2019

 ----------------------------------------------------------------------
 #p opt=addgic freq wb97xd/cc-pvdz nosymm int=ultrafine scrf=(solvent=C
 arbonTetraChloride)
 ----------------------------------------------------------------------

 ------------------------------------------------
 NM 2D-scan of HBT TD-WB97XD pVDZ in CTC Relaxed.
 ------------------------------------------------
 Symbolic Z-matrix:
 Charge =  0 Multiplicity = 1

 SCF Done:  E(RwB97XD) =  -1028.56343295     A.U. after   16 cycles
 SCF Done:  E(RwB97XD) =  -1028.72541119     A.U. after   14 cycles
 SCF Done:  E(RwB97XD) =  -1028.77769169     A.U. after   15 cycles
 SCF Done:  E(RwB97XD) =  -1028.79472393     A.U. after   13 cycles
 SCF Done:  E(RwB97XD) =  -1028.79762293     A.U. after   13 cycles
 SCF Done:  E(RwB97XD) =  -1028.79789372     A.U. after   12 cycles
 SCF Done:  E(RwB97XD) =  -1028.79792462     A.U. after   10 cycles
 SCF Done:  E(RwB97XD) =  -1028.79792744     A.U. after    9 cycles
 Optimization completed.
    -- Stationary point found.
 Normal termination of Gaussian 16 at Wed Oct 28 01:55:13 2020.

 --------------------------------------------------------------------
 #P Geom=AllCheck Guess=TCheck SCRF=Check GenChk RwB97XD/CC-pVDZ Freq
 --------------------------------------------------------------------

 Structure from the checkpoint file:  "config_11_20.chk"
 ------------------------------------------------
 NM 2D-scan of HBT TD-WB97XD pVDZ in CTC Relaxed.
 ------------------------------------------------
 Charge =  0 Multiplicity = 1

                          Input orientation:
 ---------------------------------------------------------------------
 Center     Atomic      Atomic             Coordinates (Angstroms)
 Number     Number       Type             X           Y           Z
 ---------------------------------------------------------------------
      1          6           0        1.512290   -3.279955   -0.000083
      2          6           0        1.001076   -1.990495   -0.000053
      3          6           0        1.821807   -0.873340   -0.000003
      4          6           0        3.210728   -1.016176    0.000015
      5          6           0        3.728980   -2.313793   -0.000015
      6          6           0        2.893902   -3.435201   -0.000062
      7          1           0        0.845248   -4.141770   -0.000118
      8          1           0        3.871208   -0.147959    0.000053
      9          1           0        4.811426   -2.448202    0.000001
     10          1           0        3.326519   -4.435937   -0.000082
     11          7           0        1.047877    0.287882    0.000032
     12         16           0       -0.688702   -1.522819   -0.000062
     13          6           0       -1.301822    1.153742    0.000067
     14          6           0       -2.666463    0.751244    0.000099
     15          6           0       -0.913339    2.557396    0.000051
     16          6           0       -3.684193    1.667130    0.000081
     17          1           0       -2.916559   -0.313021    0.000141
     18          6           0       -2.056548    3.485118   -0.000030
     19          6           0       -3.357515    3.053660   -0.000002
     20          1           0       -4.724427    1.340678    0.000111
     21          1           0       -1.824722    4.552311   -0.000101
     22          1           0       -4.169183    3.786233   -0.000042
     23          6           0       -0.299596    0.164423    0.000029
     24          8           0        0.280444    2.885805   -0.000009
     25          1           0        1.578698    1.127239    0.000080
 ---------------------------------------------------------------------

 SCF Done:  E(RwB97XD) =  -1028.79792744     A.U. after    1 cycles

 Alpha  occ. eigenvalues --  -89.09543 -19.21051 -14.52728 -10.41650 -10.37253
 Alpha  occ. eigenvalues --  -10.35907 -10.35610 -10.33251 -10.33161 -10.32653
 Alpha  occ. eigenvalues --  -10.32295 -10.31030 -10.30705 -10.30199 -10.29102
 Alpha  occ. eigenvalues --  -10.28647  -8.11677  -6.06558  -6.06161  -6.05678
 Alpha  occ. eigenvalues --   -1.12864  -1.10044  -0.98658  -0.95775  -0.93301
 Alpha  occ. eigenvalues --   -0.89125  -0.86806  -0.83757  -0.81643  -0.75412
 Alpha  occ. eigenvalues --   -0.74251  -0.72081  -0.69430  -0.67839  -0.64539
 Alpha  occ. eigenvalues --   -0.60903  -0.59718  -0.56717  -0.56066  -0.55961
 Alpha  occ. eigenvalues --   -0.55006  -0.53910  -0.52959  -0.49943  -0.49390
 Alpha  occ. eigenvalues --   -0.48968  -0.48247  -0.46764  -0.45704  -0.44771
 Alpha  occ. eigenvalues --   -0.44471  -0.42744  -0.41904  -0.40346  -0.36928
 Alpha  occ. eigenvalues --   -0.33621  -0.31627  -0.31142  -0.26051
 Alpha virt. eigenvalues --   -0.01328   0.03773   0.05727   0.07274   0.09601
 Alpha virt. eigenvalues --    0.11377   0.14204   0.14724   0.15944   0.16861
 Alpha virt. eigenvalues --    0.17831   0.19673   0.20902   0.21555   0.22687

 Mulliken charges:
               1
     1  C    0.018043
     2  C   -0.227140
     3  C    0.204420
     4  C   -0.013307
     5  C    0.008207
     6  C    0.005911
     7  H    0.022898
     8  H    0.029650
     9  H    0.027492
    10  H    0.025948
    11  N   -0.120655
    12  S    0.176500
    13  C   -0.078436
    14  C   -0.023978
    15  C    0.088152
    16  C   -0.033473
    17  H    0.015797
    18  C   -0.046197
    19  C    0.029577
    20  H    0.001763
    21  H    0.001913
    22  H    0.014090
    23  C    0.102817
    24  O   -0.350797
    25  H    0.120803
 Sum of Mulliken charges =  -0.00000

 Dipole moment (field-independent basis, Debye):
    X=              2.2752    Y=             -5.5237    Z=              0.0001  Tot=              5.9739
 Quadrupole moment (field-independent basis, Debye-Ang):
   XX=            -80.6372   YY=            -97.0136   ZZ=           -103.9591
   XY=             -6.1890   XZ=              0.0003   YZ=              0.0003

  Exact polarizability:     290.349     -92.191     288.978      -0.001       0.002      62.845
 Approx polarizability:     266.717     -34.636     254.772      -0.000       0.001      81.834

 ******    1 imaginary frequencies (negative Signs) ******

                      1                      2                      3
                      A                      A                      A
 Frequencies --    -35.6428                63.2366               104.4010
 Red. masses --      4.5689                 6.0741                 5.8758
 Frc consts  --      0.0034                 0.0143                 0.0377
 IR Inten    --      3.4312                 0.7798                 1.3259

                      4                      5                      6
                      A                      A                      A
 Frequencies --    112.5619               188.8135               221.3135
 Red. masses --      5.5710                 5.8254                 5.6427
 Frc consts  --      0.0416                 0.1224                 0.1628
 IR Inten    --      0.3279                 0.1947                 2.8914

                      7                      8                      9
                      A                      A                      A
 Frequencies --    260.0126               288.9656               302.1691
 Red. masses --      8.5049                 6.8281                 4.1147
 Frc consts  --      0.3388                 0.3359                 0.2214
 IR Inten    --      5.4282                 1.4565                 6.4696

                     10                     11                     12
                      A                      A                      A
 Frequencies --    395.5763               408.8418               442.2760
 Red. masses --      7.6406                 1.9728                 2.8830
 Frc consts  --      0.7044                 0.1943                 0.3323
 IR Inten    --      3.1891                33.6338                28.8088

                     13                     14                     15
                      A                      A                      A
 Frequencies --    446.3286               507.4670               517.8254
 Red. masses --      1.6543                 8.1121                 2.5590
 Frc consts  --      0.1942                 1.2308                 0.4043
 IR Inten    --     28.2956                 9.9391                 2.0207

                     16                     17                     18
                      A                      A                      A
 Frequencies --    526.6328               545.1210               563.2447
 Red. masses --      6.4955                 7.7872                 3.8506
 Frc consts  --      1.0614                 1.3634                 0.7197
 IR Inten    --      3.0764                17.6340                 0.0387

                     19                     20                     21
                      A                      A                      A
 Frequencies --    579.1344               630.5551               654.8980
 Red. masses --      7.4091                 6.9169                 6.3890
 Frc consts  --      1.4641                 1.6203                 1.6145
 IR Inten    --     40.3756                 1.6897                 0.6637

                     22                     23                     24
                      A                      A                      A
 Frequencies --    716.3299               743.3698               751.1206
 Red. masses --      5.4177                 7.2286                 2.5776
 Frc consts  --      1.6379                 2.3535                 0.8568
 IR Inten    --     69.3765                43.2930                17.5128

                     25                     26                     27
                      A                      A                      A
 Frequencies --    755.8244               773.9628               777.9418
 Red. masses --      1.4238                 1.5813                 2.4352
 Frc consts  --      0.4792                 0.5581                 0.8683
 IR Inten    --     47.0758                48.3146                14.5683

                     28                     29                     30
                      A                      A                      A
 Frequencies --    830.2078               875.1942               881.1828
 Red. masses --      6.2755                 2.1478                 1.3746
 Frc consts  --      2.5484                 0.9693                 0.6289
 IR Inten    --     20.3771                17.0962                 0.7745

                     31                     32                     33
                      A                      A                      A
 Frequencies --    885.9408               961.8132               968.7394
 Red. masses --      5.4234                 1.3274                 1.3617
 Frc consts  --      2.5080                 0.7235                 0.7529
 IR Inten    --      0.3679                 0.0445                 1.6210

                     34                     35                     36
                      A                      A                      A
 Frequencies --    974.0593              1012.5901              1017.9600
 Red. masses --      4.4495                 1.3032                 1.3083
 Frc consts  --      2.4873                 0.7873                 0.7987
 IR Inten    --     24.6196                 0.0054                 0.3532

                     37                     38                     39
                      A                      A                      A
 Frequencies --   1042.5272              1056.4672              1102.7790
 Red. masses --      2.1132                 2.0360                 3.4467
 Frc consts  --      1.3532                 1.3389                 2.4696
 IR Inten    --     13.4529                13.0061                 7.0854

                     40                     41                     42
                      A                      A                      A
 Frequencies --   1128.9893              1159.6331              1163.4456
 Red. masses --      1.8550                 1.3232                 1.2381
 Frc consts  --      1.3930                 1.0484                 0.9874
 IR Inten    --     29.2285                22.5231                65.8455

                     43                     44                     45
                      A                      A                      A
 Frequencies --   1180.9894              1200.7284              1231.4661
 Red. masses --      1.1641                 1.2305                 2.3848
 Frc consts  --      0.9566                 1.0452                 2.1308
 IR Inten    --     21.2809                13.4739                26.7612

                     46                     47                     48
                      A                      A                      A
 Frequencies --   1272.2581              1297.3267              1343.4908
 Red. masses --      2.2473                 1.9021                 2.5173
 Frc consts  --      2.1432                 1.8862                 2.6770
 IR Inten    --     93.3193               113.6063                21.5549

                     49                     50                     51
                      A                      A                      A
 Frequencies --   1386.4870              1397.0837              1408.2584
 Red. masses --      5.4712                 5.2429                 2.0952
 Frc consts  --      6.1968                 6.0293                 2.4482
 IR Inten    --    262.6247                26.6080                14.2353

                     52                     53                     54
                      A                      A                      A
 Frequencies --   1493.3689              1505.9943              1527.3983
 Red. masses --      2.7660                 2.9809                 3.0496
 Frc consts  --      3.6344                 3.9833                 4.1918
 IR Inten    --     11.4347               523.5027                23.7378

                     55                     56                     57
                      A                      A                      A
 Frequencies --   1540.0976              1596.3941              1659.3235
 Red. masses --      4.8480                 7.1948                 6.0290
 Frc consts  --      6.7749                10.8031                 9.7804
 IR Inten    --   2063.5864                40.9846                74.7534

                     58                     59                     60
                      A                      A                      A
 Frequencies --   1680.3543              1694.1106              1738.8856
 Red. masses --      7.1356                 7.7058                 9.5863
 Frc consts  --     11.8708                13.0302                17.0783
 IR Inten    --     30.3775                11.1903               469.8122

                     61                     62                     63
                      A                      A                      A
 Frequencies --   3185.8275              3191.0743              3213.5622
 Red. masses --      1.0878                 1.0884                 1.0870
 Frc consts  --      6.5049                 6.5298                 6.6139
 IR Inten    --      2.1035                14.0907                 1.1870

                     64                     65                     66
                      A                      A                      A
 Frequencies --   3214.2472              3222.7860              3231.1571
 Red. masses --      1.0950                 1.0909                 1.0956
 Frc consts  --      6.6653                 6.6758                 6.7391
 IR Inten    --     35.6757                 1.1270                 6.3005

                     67                     68                     69
                      A                      A                      A
 Frequencies --   3231.6144              3241.0569              3879.1529
 Red. masses --      1.0971                 1.0998                 1.0792
 Frc consts  --      6.7507                 6.8067                 9.5680
 IR Inten    --     17.1362                12.9821               124.5237

 - Thermochemistry -
 -------------------
 Temperature   298.150 Kelvin.  Pressure   1.00000 Atm.
 Atom     1 has atomic number  6 and mass  12.00000

 Molecular mass:   227.04049 amu.
 Principal axes and moments of inertia in atomic units:
                           1         2         3
     Eigenvalues --  1262.702006448.402707711.10470
           X           -0.70362   0.71058   0.00000
           Y            0.71058   0.70362  -0.00001
           Z            0.00001   0.00001   1.00000
 This molecule is an asymmetric top.
 Rotational symmetry number  1.
 Warning -- assumption of classical behavior for rotation
           may cause significant error
 Rotational temperatures (Kelvin)      0.06859     0.01343     0.01123
 Rotational constants (GHZ):           1.42927     0.27987     0.23404
    1 imaginary frequencies ignored.
 Zero-point vibrational energy     497072.0 (Joules/Mol)
                                  118.80306 (Kcal/Mol)
 Warning -- explicit consideration of  18 degrees of freedom as
           vibrations may cause significant error
 Vibrational temperatures:     90.98   150.21   161.95   271.66   318.42
          (Kelvin)            374.10   415.76   434.75   569.15   588.23
                              636.34   642.17   730.13   745.04   757.71
                              784.31   810.38   833.25   907.23   942.25
                             1030.64  1069.54  1080.69  1087.46  1113.56
                             1119.28  1194.48  1259.21  1267.83  1274.67
                             1383.83  1393.80  1401.45  1456.89  1464.62
                             1499.96  1520.02  1586.65  1624.36  1668.45
                             1673.94  1699.18  1727.58  1771.81  1830.50
                             1866.56  1932.98  1994.85  2010.09  2026.17
                             2148.62  2166.79  2197.59  2215.86  2296.85
                             2387.40  2417.66  2437.45  2501.87  4583.70
                             4591.24  4623.60  4624.58  4636.87  4648.91
                             4649.57  4663.16  5581.24

 Zero-point correction=                           0.189325 (Hartree/Particle)
 Thermal correction to Energy=                    0.200723
 Thermal correction to Enthalpy=                  0.201667
 Thermal correction to Gibbs Free Energy=         0.151594
 Sum of electronic and zero-point Energies=          -1028.608603
 Sum of electronic and thermal Energies=             -1028.597205
 Sum of electronic and thermal Enthalpies=           -1028.596261
 Sum of electronic and thermal Free Energies=        -1028.646334

                     E (Thermal)             CV                S
                      KCal/Mol        Cal/Mol-Kelvin    Cal/Mol-Kelvin
 Total                  125.955             47.166            105.388
 Electronic               0.000              0.000              0.000
 Translational            0.889              2.981             42.162
 Rotational               0.889              2.981             32.507
 Vibrational            124.178             41.205             30.719
 Vibration     1          0.597              1.972              4.354
 Vibration     2          0.605              1.946              3.370
 Vibration     3          0.607              1.939              3.224
 Vibration     4          0.633              1.855              2.239
 Vibration     5          0.648              1.809              1.948
 Vibration     6          0.668              1.746              1.662
 Vibration     7          0.686              1.694              1.480
 Vibration     8          0.694              1.670              1.405
 Vibration     9          0.762              1.480              0.979
 Vibration    10          0.773              1.451              0.931
 Vibration    11          0.802              1.378              0.819
 Vibration    12          0.806              1.369              0.807
 Vibration    13          0.863              1.233              0.640
 Vibration    14          0.873              1.211              0.615
 Vibration    15          0.882              1.191              0.595
 Vibration    16          0.900              1.150              0.554
 Vibration    17          0.919              1.111              0.517
 Vibration    18          0.936              1.076              0.487

 Optimization completed.
    -- Stationary point found.
 Normal termination of Gaussian 16 at Wed Oct 28 02:01:21 2020.
