 Gaussian 16, Revision C.01,
 Gaussian 16:  ES64L-G16RevC.01  3-Jul-2019

 ----------------------------------------------------------------------
 #p opt=addgic freq wb97xd/cc-pvdz nosymm int=ultrafine scrf=(solvent=C
 arbonTetraChloride)
 ----------------------------------------------------------------------

 ------------------------------------------------
 NM 2D-scan of HBT TD-WB97XD pVDZ in CTC Relaxed.
 ------------------------------------------------
 Symbolic Z-matrix:
 Charge =  0 Multiplicity = 1

 SCF Done:  E(RwB97XD) =  -1028.51263363     A.U. after   15 cycles
 SCF Done:  E(RwB97XD) =  -1028.75517316     A.U. after   13 cycles
 SCF Done:  E(RwB97XD) =  -1028.81573736     A.U. after   15 cycles
 SCF Done:  E(RwB97XD) =  -1028.82503065     A.U. after   13 cycles
 SCF Done:  E(RwB97XD) =  -1028.82622207     A.U. after   12 cycles
 SCF Done:  E(RwB97XD) =  -1028.82634474     A.U. after   11 cycles
 SCF Done:  E(RwB97XD) =  -1028.82634948     A.U. after    9 cycles
 Optimization completed.
    -- Stationary point found.
 Normal termination of Gaussian 16 at Tue Oct 27 22:44:24 2020.

 --------------------------------------------------------------------
 #P Geom=AllCheck Guess=TCheck SCRF=Check GenChk RwB97XD/CC-pVDZ Freq
 --------------------------------------------------------------------

 Structure from the checkpoint file:  "config_1_9.chk"
 ------------------------------------------------
 NM 2D-scan of HBT TD-WB97XD pVDZ in CTC Relaxed.
 ------------------------------------------------
 Charge =  0 Multiplicity = 1

                          Input orientation:
 ---------------------------------------------------------------------
 Center     Atomic      Atomic             Coordinates (Angstroms)
 Number     Number       Type             X           Y           Z
 ---------------------------------------------------------------------
      1          6           0        1.664683   -3.327899   -0.000002
      2          6           0        0.967730   -2.111651   -0.000013
      3          6           0        1.678258   -0.895233   -0.000032
      4          6           0        3.076568   -0.869994   -0.000042
      5          6           0        3.762791   -2.069878   -0.000033
      6          6           0        3.057603   -3.286502   -0.000012
      7          1           0        1.140134   -4.283971    0.000010
      8          1           0        3.588112    0.093007   -0.000056
      9          1           0        4.853601   -2.076452   -0.000040
     10          1           0        3.612986   -4.225882   -0.000006
     11          7           0        0.919018    0.248527   -0.000034
     12         16           0       -0.754835   -1.755538   -0.000020
     13          6           0       -1.338434    1.097487    0.000001
     14          6           0       -2.730929    0.858044   -0.000010
     15          6           0       -0.911427    2.458366    0.000033
     16          6           0       -3.653664    1.889650    0.000014
     17          1           0       -3.088418   -0.174775   -0.000039
     18          6           0       -1.855504    3.492047    0.000065
     19          6           0       -3.206983    3.218964    0.000056
     20          1           0       -4.720661    1.666817    0.000004
     21          1           0       -1.472877    4.513052    0.000098
     22          1           0       -3.924470    4.041379    0.000081
     23          6           0       -0.355320    0.002298   -0.000015
     24          8           0        0.359705    2.902182    0.000054
     25          1           0        0.959360    2.141590    0.000051
 ---------------------------------------------------------------------

 SCF Done:  E(RwB97XD) =  -1028.82634948     A.U. after    1 cycles

 Alpha  occ. eigenvalues --  -89.08639 -19.28813 -14.46633 -10.39442 -10.37640
 Alpha  occ. eigenvalues --  -10.34885 -10.34511 -10.32881 -10.32364 -10.31932
 Alpha  occ. eigenvalues --  -10.31541 -10.31355 -10.31352 -10.31293 -10.30325
 Alpha  occ. eigenvalues --  -10.30057  -8.10564  -6.05430  -6.05077  -6.04605
 Alpha  occ. eigenvalues --   -1.16765  -1.08743  -0.97169  -0.96088  -0.91120
 Alpha  occ. eigenvalues --   -0.88476  -0.85295  -0.84552  -0.82819  -0.75435
 Alpha  occ. eigenvalues --   -0.71352  -0.70669  -0.69475  -0.68063  -0.63050
 Alpha  occ. eigenvalues --   -0.60117  -0.58597  -0.58373  -0.56452  -0.54486
 Alpha  occ. eigenvalues --   -0.53681  -0.53065  -0.52573  -0.50793  -0.50423
 Alpha  occ. eigenvalues --   -0.49115  -0.47861  -0.45750  -0.45274  -0.44923
 Alpha  occ. eigenvalues --   -0.43813  -0.43000  -0.42433  -0.39590  -0.37417
 Alpha  occ. eigenvalues --   -0.36124  -0.31977  -0.31741  -0.29155
 Alpha virt. eigenvalues --   -0.00386   0.04923   0.06734   0.07155   0.07540
 Alpha virt. eigenvalues --    0.11642   0.13405   0.15156   0.16042   0.17681
 Alpha virt. eigenvalues --    0.18905   0.20239   0.21670   0.22459   0.22860

 Mulliken charges:
               1
     1  C    0.001133
     2  C   -0.206470
     3  C    0.215674
     4  C   -0.013182
     5  C    0.007066
     6  C   -0.002014
     7  H    0.019855
     8  H    0.014852
     9  H    0.018519
    10  H    0.020989
    11  N   -0.318844
    12  S    0.132046
    13  C   -0.053240
    14  C   -0.020253
    15  C    0.057159
    16  C   -0.004944
    17  H    0.013449
    18  C    0.019837
    19  C    0.019149
    20  H    0.010548
    21  H    0.017601
    22  H    0.018519
    23  C    0.068591
    24  O   -0.187419
    25  H    0.151378
 Sum of Mulliken charges =  -0.00000

 Dipole moment (field-independent basis, Debye):
    X=              0.0384    Y=             -1.9685    Z=              0.0000  Tot=              1.9689
 Quadrupole moment (field-independent basis, Debye-Ang):
   XX=            -82.6540   YY=            -89.7131   ZZ=           -104.2515
   XY=             -6.7608   XZ=             -0.0000   YZ=              0.0002

  Exact polarizability:     274.737     -65.427     256.128      -0.001       0.002      63.112
 Approx polarizability:     263.008     -22.232     243.379      -0.001       0.001      82.252

                      1                      2                      3
                      A                      A                      A
 Frequencies --     50.1627                58.3025               109.0237
 Red. masses --      6.3637                 5.0587                 5.6541
 Frc consts  --      0.0094                 0.0101                 0.0396
 IR Inten    --      1.0293                 0.0180                 1.0087

                      4                      5                      6
                      A                      A                      A
 Frequencies --    150.4685               199.5955               245.0860
 Red. masses --      4.8965                 5.7919                 5.8055
 Frc consts  --      0.0653                 0.1359                 0.2055
 IR Inten    --      0.0067                 0.3848                 0.0910

                      7                      8                      9
                      A                      A                      A
 Frequencies --    253.8869               286.6067               326.0807
 Red. masses --      8.1959                 6.2319                 5.0161
 Frc consts  --      0.3113                 0.3016                 0.3142
 IR Inten    --      4.6340                 4.1967                 0.4974

                     10                     11                     12
                      A                      A                      A
 Frequencies --    400.3056               440.2033               471.3528
 Red. masses --      8.4507                 3.1694                 3.7652
 Frc consts  --      0.7979                 0.3619                 0.4929
 IR Inten    --      0.2680                 1.9152                 9.2044

                     13                     14                     15
                      A                      A                      A
 Frequencies --    492.1337               513.9686               538.8300
 Red. masses --      4.6606                 8.8272                 3.4413
 Frc consts  --      0.6651                 1.3739                 0.5887
 IR Inten    --      3.7963                 0.3103                 3.9457

                     16                     17                     18
                      A                      A                      A
 Frequencies --    545.1621               573.7404               594.6569
 Red. masses --      8.6480                 3.7102                 7.7150
 Frc consts  --      1.5143                 0.7196                 1.6074
 IR Inten    --      2.7482                 0.1627                 6.7159

                     19                     20                     21
                      A                      A                      A
 Frequencies --    598.5223               655.6414               675.2198
 Red. masses --      1.2134                 3.7154                 6.5790
 Frc consts  --      0.2561                 0.9410                 1.7673
 IR Inten    --     74.3818                20.5161                 4.0331

                     22                     23                     24
                      A                      A                      A
 Frequencies --    688.8525               720.9473               755.6509
 Red. masses --      9.1458                 7.1317                 1.9560
 Frc consts  --      2.5570                 2.1840                 0.6581
 IR Inten    --     49.0412                 1.6320                22.9462

                     25                     26                     27
                      A                      A                      A
 Frequencies --    766.6045               778.7847               788.9357
 Red. masses --      3.7731                 1.3080                 1.9159
 Frc consts  --      1.3065                 0.4674                 0.7026
 IR Inten    --      8.4980                54.0840                38.2469

                     28                     29                     30
                      A                      A                      A
 Frequencies --    838.0917               886.1648               888.4007
 Red. masses --      6.1357                 1.5286                 1.4338
 Frc consts  --      2.5392                 0.7073                 0.6667
 IR Inten    --     27.6294                 3.8612                 0.6234

                     31                     32                     33
                      A                      A                      A
 Frequencies --    890.9913               972.9141               974.0901
 Red. masses --      6.4059                 7.6511                 1.3545
 Frc consts  --      2.9963                 4.2670                 0.7572
 IR Inten    --      2.5992                70.7250                 1.3135

                     34                     35                     36
                      A                      A                      A
 Frequencies --    976.7376              1011.8338              1015.3842
 Red. masses --      1.3645                 1.3014                 1.3047
 Frc consts  --      0.7670                 0.7850                 0.7925
 IR Inten    --      1.3663                 0.3120                 0.0097

                     37                     38                     39
                      A                      A                      A
 Frequencies --   1051.2680              1072.2753              1094.5356
 Red. masses --      2.0227                 2.0576                 4.6372
 Frc consts  --      1.3170                 1.3939                 3.2732
 IR Inten    --      7.9940                16.3373                 6.1920

                     40                     41                     42
                      A                      A                      A
 Frequencies --   1144.4870              1150.2062              1177.1998
 Red. masses --      1.5859                 1.2816                 1.1218
 Frc consts  --      1.2239                 0.9989                 0.9159
 IR Inten    --      6.7041                 5.8392                49.6172

                     43                     44                     45
                      A                      A                      A
 Frequencies --   1184.4567              1224.1591              1275.2502
 Red. masses --      1.1949                 1.5565                 2.0975
 Frc consts  --      0.9877                 1.3743                 2.0098
 IR Inten    --      0.2605               186.8439                65.9130

                     46                     47                     48
                      A                      A                      A
 Frequencies --   1282.3627              1301.5831              1349.2297
 Red. masses --      1.5874                 5.3738                 2.8478
 Frc consts  --      1.5380                 5.3639                 3.0544
 IR Inten    --      2.8034                31.8683                 9.5058

                     49                     50                     51
                      A                      A                      A
 Frequencies --   1366.7692              1371.1940              1400.1364
 Red. masses --      6.5483                 2.3710                 2.3073
 Frc consts  --      7.2072                 2.6265                 2.6649
 IR Inten    --     15.4868                 1.1322                88.0116

                     52                     53                     54
                      A                      A                      A
 Frequencies --   1489.7710              1498.5851              1516.7786
 Red. masses --      2.6356                 2.9780                 3.5579
 Frc consts  --      3.4465                 3.9403                 4.8227
 IR Inten    --     28.3082                 7.6313                93.5408

                     55                     56                     57
                      A                      A                      A
 Frequencies --   1529.8290              1604.7232              1641.6538
 Red. masses --      2.7276                 9.0053                 6.5331
 Frc consts  --      3.7611                13.6630                10.3737
 IR Inten    --     72.1398               195.2653                14.7724

                     58                     59                     60
                      A                      A                      A
 Frequencies --   1648.5060              1684.6539              1709.6036
 Red. masses --      6.0347                 6.9330                 6.5495
 Frc consts  --      9.6624                11.5928                11.2785
 IR Inten    --     92.7214                 1.9185                84.2240

                     61                     62                     63
                      A                      A                      A
 Frequencies --   3197.1345              3210.8320              3211.9732
 Red. masses --      1.0890                 1.0861                 1.0882
 Frc consts  --      6.5585                 6.5973                 6.6147
 IR Inten    --      3.9325                 1.2189                 5.5102

                     64                     65                     66
                      A                      A                      A
 Frequencies --   3222.1119              3230.5180              3232.6473
 Red. masses --      1.0904                 1.0941                 1.0959
 Frc consts  --      6.6702                 6.7274                 6.7472
 IR Inten    --      5.0641                 9.7428                12.3385

                     67                     68                     69
                      A                      A                      A
 Frequencies --   3238.2616              3238.8009              3711.5744
 Red. masses --      1.0996                 1.0997                 1.0661
 Frc consts  --      6.7936                 6.7969                 8.6532
 IR Inten    --     20.8463                 9.9031               441.8358

 - Thermochemistry -
 -------------------
 Temperature   298.150 Kelvin.  Pressure   1.00000 Atm.
 Atom     1 has atomic number  6 and mass  12.00000

 Molecular mass:   227.04049 amu.
 Principal axes and moments of inertia in atomic units:
                           1         2         3
     Eigenvalues --  1343.794936406.157337749.95226
           X           -0.69210   0.72180   0.00000
           Y            0.72180   0.69210  -0.00001
           Z            0.00001   0.00001   1.00000
 This molecule is an asymmetric top.
 Rotational symmetry number  1.
 Warning -- assumption of classical behavior for rotation
           may cause significant error
 Rotational temperatures (Kelvin)      0.06445     0.01352     0.01118
 Rotational constants (GHZ):           1.34302     0.28172     0.23287
 Zero-point vibrational energy     498821.3 (Joules/Mol)
                                  119.22115 (Kcal/Mol)
 Warning -- explicit consideration of  19 degrees of freedom as
           vibrations may cause significant error
 Vibrational temperatures:     72.17    83.88   156.86   216.49   287.17
          (Kelvin)            352.62   365.29   412.36   469.16   575.95
                              633.35   678.17   708.07   739.49   775.26
                              784.37   825.48   855.58   861.14   943.32
                              971.49   991.11  1037.28  1087.21  1102.97
                             1120.50  1135.10  1205.83  1274.99  1278.21
                             1281.94  1399.81  1401.50  1405.31  1455.80
                             1460.91  1512.54  1542.76  1574.79  1646.66
                             1654.89  1693.73  1704.17  1761.29  1834.80
                             1845.03  1872.69  1941.24  1966.48  1972.84
                             2014.48  2143.45  2156.13  2182.31  2201.08
                             2308.84  2361.97  2371.83  2423.84  2459.74
                             4599.96  4619.67  4621.31  4635.90  4647.99
                             4651.06  4659.14  4659.91  5340.13

 Zero-point correction=                           0.189991 (Hartree/Particle)
 Thermal correction to Energy=                    0.201887
 Thermal correction to Enthalpy=                  0.202831
 Thermal correction to Gibbs Free Energy=         0.151159
 Sum of electronic and zero-point Energies=          -1028.636358
 Sum of electronic and thermal Energies=             -1028.624463
 Sum of electronic and thermal Enthalpies=           -1028.623518
 Sum of electronic and thermal Free Energies=        -1028.675191

                     E (Thermal)             CV                S
                      KCal/Mol        Cal/Mol-Kelvin    Cal/Mol-Kelvin
 Total                  126.686             48.345            108.754
 Electronic               0.000              0.000              0.000
 Translational            0.889              2.981             42.162
 Rotational               0.889              2.981             32.567
 Vibrational            124.909             42.383             34.025
 Vibration     1          0.595              1.978              4.811
 Vibration     2          0.596              1.974              4.514
 Vibration     3          0.606              1.942              3.286
 Vibration     4          0.618              1.902              2.666
 Vibration     5          0.638              1.840              2.137
 Vibration     6          0.660              1.771              1.766
 Vibration     7          0.665              1.756              1.703
 Vibration     8          0.684              1.699              1.494
 Vibration     9          0.710              1.623              1.279
 Vibration    10          0.766              1.469              0.962
 Vibration    11          0.800              1.382              0.826
 Vibration    12          0.828              1.314              0.734
 Vibration    13          0.848              1.267              0.678
 Vibration    14          0.869              1.219              0.624
 Vibration    15          0.894              1.164              0.568
 Vibration    16          0.900              1.150              0.554
 Vibration    17          0.930              1.088              0.497
 Vibration    18          0.952              1.043              0.459
 Vibration    19          0.957              1.035              0.452

 Optimization completed.
    -- Stationary point found.
 Normal termination of Gaussian 16 at Tue Oct 27 22:50:21 2020.
