 Gaussian 16, Revision C.01,
 Gaussian 16:  ES64L-G16RevC.01  3-Jul-2019

 ----------------------------------------------------------------------
 #p opt=addgic freq wb97xd/cc-pvdz nosymm int=ultrafine scrf=(solvent=C
 arbonTetraChloride)
 ----------------------------------------------------------------------

 ------------------------------------------------
 NM 2D-scan of HBT TD-WB97XD pVDZ in CTC Relaxed.
 ------------------------------------------------
 Symbolic Z-matrix:
 Charge =  0 Multiplicity = 1

 SCF Done:  E(RwB97XD) =  -1028.69711768     A.U. after   15 cycles
 SCF Done:  E(RwB97XD) =  -1028.80717850     A.U. after   13 cycles
 SCF Done:  E(RwB97XD) =  -1028.80447572     A.U. after   15 cycles
 SCF Done:  E(RwB97XD) =  -1028.82667212     A.U. after   12 cycles
 SCF Done:  E(RwB97XD) =  -1028.82766466     A.U. after   11 cycles
 SCF Done:  E(RwB97XD) =  -1028.82778612     A.U. after   11 cycles
 SCF Done:  E(RwB97XD) =  -1028.82780013     A.U. after    9 cycles
 SCF Done:  E(RwB97XD) =  -1028.82780143     A.U. after    8 cycles
 Optimization completed.
    -- Stationary point found.
 Normal termination of Gaussian 16 at Tue Oct 27 22:28:09 2020.

 --------------------------------------------------------------------
 #P Geom=AllCheck Guess=TCheck SCRF=Check GenChk RwB97XD/CC-pVDZ Freq
 --------------------------------------------------------------------

 Structure from the checkpoint file:  "config_2_8.chk"
 ------------------------------------------------
 NM 2D-scan of HBT TD-WB97XD pVDZ in CTC Relaxed.
 ------------------------------------------------
 Charge =  0 Multiplicity = 1

                          Input orientation:
 ---------------------------------------------------------------------
 Center     Atomic      Atomic             Coordinates (Angstroms)
 Number     Number       Type             X           Y           Z
 ---------------------------------------------------------------------
      1          6           0        1.675153   -3.315592   -0.000014
      2          6           0        0.973984   -2.102748   -0.000014
      3          6           0        1.676783   -0.883302   -0.000021
      4          6           0        3.075026   -0.850632   -0.000028
      5          6           0        3.766109   -2.048481   -0.000029
      6          6           0        3.067596   -3.268563   -0.000022
      7          1           0        1.153823   -4.273359   -0.000010
      8          1           0        3.583790    0.113834   -0.000033
      9          1           0        4.856957   -2.049737   -0.000035
     10          1           0        3.627405   -4.205230   -0.000023
     11          7           0        0.902245    0.250339   -0.000019
     12         16           0       -0.752195   -1.760479   -0.000014
     13          6           0       -1.353178    1.086936    0.000005
     14          6           0       -2.746177    0.862631   -0.000005
     15          6           0       -0.901982    2.439848    0.000032
     16          6           0       -3.654186    1.908391    0.000018
     17          1           0       -3.116173   -0.165815   -0.000030
     18          6           0       -1.831834    3.487676    0.000060
     19          6           0       -3.187821    3.230908    0.000054
     20          1           0       -4.724471    1.701669    0.000009
     21          1           0       -1.437459    4.504261    0.000087
     22          1           0       -3.894783    4.062506    0.000076
     23          6           0       -0.371770   -0.007357   -0.000009
     24          8           0        0.379714    2.836235    0.000040
     25          1           0        0.942629    2.038459    0.000031
 ---------------------------------------------------------------------

 SCF Done:  E(RwB97XD) =  -1028.82780143     A.U. after    1 cycles

 Alpha  occ. eigenvalues --  -89.08745 -19.28445 -14.46696 -10.39500 -10.37514
 Alpha  occ. eigenvalues --  -10.34926 -10.34610 -10.32736 -10.32406 -10.31913
 Alpha  occ. eigenvalues --  -10.31582 -10.31437 -10.31365 -10.31341 -10.30277
 Alpha  occ. eigenvalues --  -10.30020  -8.10680  -6.05546  -6.05191  -6.04722
 Alpha  occ. eigenvalues --   -1.16632  -1.08859  -0.97188  -0.96085  -0.91234
 Alpha  occ. eigenvalues --   -0.88511  -0.85278  -0.84529  -0.82890  -0.75456
 Alpha  occ. eigenvalues --   -0.71327  -0.70626  -0.69466  -0.68109  -0.63036
 Alpha  occ. eigenvalues --   -0.60269  -0.58629  -0.58388  -0.56400  -0.54479
 Alpha  occ. eigenvalues --   -0.53814  -0.53118  -0.52574  -0.50865  -0.50369
 Alpha  occ. eigenvalues --   -0.49228  -0.47824  -0.45798  -0.45304  -0.44932
 Alpha  occ. eigenvalues --   -0.43803  -0.42954  -0.42541  -0.39663  -0.37329
 Alpha  occ. eigenvalues --   -0.36144  -0.32058  -0.31716  -0.29099
 Alpha virt. eigenvalues --   -0.00418   0.04871   0.06802   0.07168   0.07536
 Alpha virt. eigenvalues --    0.11552   0.13462   0.15145   0.16064   0.17781
 Alpha virt. eigenvalues --    0.18938   0.20486   0.21691   0.22495   0.22834

 Mulliken charges:
               1
     1  C    0.002292
     2  C   -0.211555
     3  C    0.224550
     4  C   -0.013138
     5  C    0.007162
     6  C   -0.001568
     7  H    0.020009
     8  H    0.016230
     9  H    0.019036
    10  H    0.021264
    11  N   -0.330248
    12  S    0.137428
    13  C   -0.061145
    14  C   -0.019659
    15  C    0.062824
    16  C   -0.006423
    17  H    0.012337
    18  C    0.016895
    19  C    0.019547
    20  H    0.010311
    21  H    0.016966
    22  H    0.018381
    23  C    0.075859
    24  O   -0.192245
    25  H    0.154892
 Sum of Mulliken charges =  -0.00000

 Dipole moment (field-independent basis, Debye):
    X=              0.0606    Y=             -2.1499    Z=              0.0000  Tot=              2.1508
 Quadrupole moment (field-independent basis, Debye-Ang):
   XX=            -82.6893   YY=            -89.8046   ZZ=           -104.2202
   XY=             -6.9306   XZ=             -0.0001   YZ=              0.0002

  Exact polarizability:     274.906     -65.798     256.103      -0.001       0.002      63.080
 Approx polarizability:     263.028     -22.467     243.223      -0.001       0.002      82.249

                      1                      2                      3
                      A                      A                      A
 Frequencies --     52.0583                57.0278               112.9833
 Red. masses --      6.4036                 5.0547                 5.6484
 Frc consts  --      0.0102                 0.0097                 0.0425
 IR Inten    --      0.8261                 0.3211                 1.1635

                      4                      5                      6
                      A                      A                      A
 Frequencies --    151.7619               199.7475               245.6559
 Red. masses --      4.9099                 5.8250                 5.7941
 Frc consts  --      0.0666                 0.1369                 0.2060
 IR Inten    --      0.0000                 0.4827                 0.0519

                      7                      8                      9
                      A                      A                      A
 Frequencies --    261.0760               291.9161               326.5091
 Red. masses --      8.1748                 6.2155                 5.0646
 Frc consts  --      0.3283                 0.3121                 0.3181
 IR Inten    --      3.2611                 5.7114                 0.3808

                     10                     11                     12
                      A                      A                      A
 Frequencies --    401.7308               439.7232               469.8852
 Red. masses --      8.6358                 3.1621                 3.7554
 Frc consts  --      0.8212                 0.3602                 0.4885
 IR Inten    --      0.2220                 2.0696                 8.4005

                     13                     14                     15
                      A                      A                      A
 Frequencies --    496.2896               514.3898               538.9684
 Red. masses --      4.6992                 8.7474                 3.4537
 Frc consts  --      0.6819                 1.3637                 0.5911
 IR Inten    --      5.3331                 0.1173                 3.9519

                     16                     17                     18
                      A                      A                      A
 Frequencies --    546.5418               574.0137               594.1484
 Red. masses --      8.6226                 3.7229                 7.7085
 Frc consts  --      1.5175                 0.7227                 1.6033
 IR Inten    --      2.6194                 0.0071                 6.3745

                     19                     20                     21
                      A                      A                      A
 Frequencies --    640.4094               677.4200               697.9104
 Red. masses --      3.9369                 6.5096                 8.7686
 Frc consts  --      0.9513                 1.7600                 2.5164
 IR Inten    --      6.1777                 6.0659                44.9095

                     22                     23                     24
                      A                      A                      A
 Frequencies --    702.2395               723.2361               755.6817
 Red. masses --      1.2329                 7.5601                 1.9494
 Frc consts  --      0.3582                 2.3299                 0.6559
 IR Inten    --     78.8913                 1.3836                21.0731

                     25                     26                     27
                      A                      A                      A
 Frequencies --    770.7921               778.9676               789.0552
 Red. masses --      3.2198                 1.3349                 1.9119
 Frc consts  --      1.1271                 0.4772                 0.7014
 IR Inten    --     20.5346                45.4430                42.1388

                     28                     29                     30
                      A                      A                      A
 Frequencies --    840.6724               885.7205               888.0255
 Red. masses --      6.0801                 1.5320                 1.4318
 Frc consts  --      2.5317                 0.7081                 0.6652
 IR Inten    --     24.6277                 3.9717                 0.7658

                     31                     32                     33
                      A                      A                      A
 Frequencies --    893.6098               973.4654               976.4703
 Red. masses --      6.4482                 1.3549                 1.3641
 Frc consts  --      3.0338                 0.7565                 0.7663
 IR Inten    --      2.2518                 1.2674                 1.4365

                     34                     35                     36
                      A                      A                      A
 Frequencies --    978.5427              1011.5519              1015.4764
 Red. masses --      7.6279                 1.3008                 1.3047
 Frc consts  --      4.3034                 0.7842                 0.7927
 IR Inten    --     68.5656                 0.3131                 0.0100

                     37                     38                     39
                      A                      A                      A
 Frequencies --   1051.5586              1070.9171              1095.1259
 Red. masses --      2.0225                 2.0248                 4.5648
 Frc consts  --      1.3177                 1.3682                 3.2255
 IR Inten    --      8.0826                13.3799                 6.1751

                     40                     41                     42
                      A                      A                      A
 Frequencies --   1146.1802              1150.6998              1176.5900
 Red. masses --      1.5425                 1.2837                 1.1254
 Frc consts  --      1.1940                 1.0014                 0.9179
 IR Inten    --      5.7627                 5.2514                48.3444

                     43                     44                     45
                      A                      A                      A
 Frequencies --   1184.5135              1235.5178              1280.3668
 Red. masses --      1.1929                 1.6832                 2.1670
 Frc consts  --      0.9861                 1.5138                 2.0931
 IR Inten    --      0.2437               169.9283                80.0483

                     46                     47                     48
                      A                      A                      A
 Frequencies --   1283.5624              1312.8359              1350.8025
 Red. masses --      1.5796                 5.3799                 2.9865
 Frc consts  --      1.5333                 5.4631                 3.2107
 IR Inten    --      7.3966                24.8053                11.5248

                     49                     50                     51
                      A                      A                      A
 Frequencies --   1369.1043              1375.6293              1421.9538
 Red. masses --      8.1609                 2.9292                 1.7513
 Frc consts  --      9.0128                 3.2659                 2.0863
 IR Inten    --     16.0381                 7.9472                80.1868

                     52                     53                     54
                      A                      A                      A
 Frequencies --   1490.8239              1500.0369              1518.9178
 Red. masses --      2.6361                 3.0365                 3.6342
 Frc consts  --      3.4519                 4.0256                 4.9400
 IR Inten    --     28.2812                 8.5329               113.2821

                     55                     56                     57
                      A                      A                      A
 Frequencies --   1534.5112              1599.8207              1643.7872
 Red. masses --      2.6269                 8.5314                 6.5670
 Frc consts  --      3.6445                12.8651                10.4546
 IR Inten    --     66.6855               203.0558                11.8371

                     58                     59                     60
                      A                      A                      A
 Frequencies --   1651.9429              1683.7157              1709.1526
 Red. masses --      5.4795                 6.9071                 6.4380
 Frc consts  --      8.8101                11.5368                11.0806
 IR Inten    --    104.3421                 4.7882                96.8787

                     61                     62                     63
                      A                      A                      A
 Frequencies --   3196.0371              3210.2255              3211.1802
 Red. masses --      1.0892                 1.0883                 1.0861
 Frc consts  --      6.5550                 6.6079                 6.5988
 IR Inten    --      3.5443                 6.1139                 1.4066

                     64                     65                     66
                      A                      A                      A
 Frequencies --   3222.3382              3229.7519              3232.8335
 Red. masses --      1.0905                 1.0941                 1.0959
 Frc consts  --      6.6713                 6.7244                 6.7482
 IR Inten    --      4.8431                 9.8980                11.7982

                     67                     68                     69
                      A                      A                      A
 Frequencies --   3237.5756              3238.8864              3547.3730
 Red. masses --      1.0992                 1.0998                 1.0669
 Frc consts  --      6.7887                 6.7973                 7.9100
 IR Inten    --     18.4374                12.7170               616.0141

 - Thermochemistry -
 -------------------
 Temperature   298.150 Kelvin.  Pressure   1.00000 Atm.
 Atom     1 has atomic number  6 and mass  12.00000

 Molecular mass:   227.04049 amu.
 Principal axes and moments of inertia in atomic units:
                           1         2         3
     Eigenvalues --  1337.088276375.538777712.62704
           X           -0.69472   0.71928   0.00000
           Y            0.71928   0.69472  -0.00001
           Z            0.00001   0.00001   1.00000
 This molecule is an asymmetric top.
 Rotational symmetry number  1.
 Warning -- assumption of classical behavior for rotation
           may cause significant error
 Rotational temperatures (Kelvin)      0.06478     0.01359     0.01123
 Rotational constants (GHZ):           1.34975     0.28307     0.23400
 Zero-point vibrational energy     499069.7 (Joules/Mol)
                                  119.28053 (Kcal/Mol)
 Warning -- explicit consideration of  18 degrees of freedom as
           vibrations may cause significant error
 Vibrational temperatures:     74.90    82.05   162.56   218.35   287.39
          (Kelvin)            353.44   375.63   420.00   469.77   578.00
                              632.66   676.06   714.05   740.09   775.46
                              786.35   825.88   854.85   921.41   974.66
                             1004.14  1010.37  1040.58  1087.26  1109.00
                             1120.76  1135.27  1209.54  1274.35  1277.67
                             1285.71  1400.60  1404.92  1407.90  1455.40
                             1461.04  1512.96  1540.81  1575.64  1649.10
                             1655.60  1692.85  1704.25  1777.63  1842.16
                             1846.76  1888.88  1943.50  1969.84  1979.22
                             2045.87  2144.96  2158.22  2185.38  2207.82
                             2301.79  2365.04  2376.78  2422.49  2459.09
                             4598.38  4618.80  4620.17  4636.23  4646.89
                             4651.33  4658.15  4660.04  5103.88

 Zero-point correction=                           0.190086 (Hartree/Particle)
 Thermal correction to Energy=                    0.201895
 Thermal correction to Enthalpy=                  0.202839
 Thermal correction to Gibbs Free Energy=         0.151352
 Sum of electronic and zero-point Energies=          -1028.637716
 Sum of electronic and thermal Energies=             -1028.625906
 Sum of electronic and thermal Enthalpies=           -1028.624962
 Sum of electronic and thermal Free Energies=        -1028.676449

                     E (Thermal)             CV                S
                      KCal/Mol        Cal/Mol-Kelvin    Cal/Mol-Kelvin
 Total                  126.691             48.050            108.364
 Electronic               0.000              0.000              0.000
 Translational            0.889              2.981             42.162
 Rotational               0.889              2.981             32.553
 Vibrational            124.914             42.088             33.649
 Vibration     1          0.596              1.977              4.738
 Vibration     2          0.596              1.975              4.557
 Vibration     3          0.607              1.939              3.217
 Vibration     4          0.619              1.901              2.650
 Vibration     5          0.638              1.840              2.135
 Vibration     6          0.660              1.770              1.762
 Vibration     7          0.669              1.744              1.655
 Vibration     8          0.687              1.689              1.463
 Vibration     9          0.710              1.622              1.277
 Vibration    10          0.767              1.466              0.956
 Vibration    11          0.800              1.384              0.827
 Vibration    12          0.827              1.317              0.738
 Vibration    13          0.852              1.258              0.667
 Vibration    14          0.869              1.218              0.623
 Vibration    15          0.894              1.164              0.568
 Vibration    16          0.902              1.147              0.551
 Vibration    17          0.930              1.087              0.497
 Vibration    18          0.952              1.044              0.460

 Optimization completed.
    -- Stationary point found.
 Normal termination of Gaussian 16 at Tue Oct 27 22:34:04 2020.
