 Gaussian 16, Revision C.01,
 Gaussian 16:  ES64L-G16RevC.01  3-Jul-2019

 ----------------------------------------------------------------------
 #p opt=addgic freq wb97xd/cc-pvdz nosymm int=ultrafine scrf=(solvent=C
 arbonTetraChloride)
 ----------------------------------------------------------------------

 ------------------------------------------------
 NM 2D-scan of HBT TD-WB97XD pVDZ in CTC Relaxed.
 ------------------------------------------------
 Symbolic Z-matrix:
 Charge =  0 Multiplicity = 1

 SCF Done:  E(RwB97XD) =  -1028.80796627     A.U. after   15 cycles
 SCF Done:  E(RwB97XD) =  -1028.81370514     A.U. after   13 cycles
 SCF Done:  E(RwB97XD) =  -1028.81411947     A.U. after   12 cycles
 SCF Done:  E(RwB97XD) =  -1028.81410967     A.U. after   12 cycles
 SCF Done:  E(RwB97XD) =  -1028.81427219     A.U. after   11 cycles
 SCF Done:  E(RwB97XD) =  -1028.81426476     A.U. after   10 cycles
 SCF Done:  E(RwB97XD) =  -1028.81427361     A.U. after   11 cycles
 SCF Done:  E(RwB97XD) =  -1028.81427648     A.U. after    9 cycles
 Optimization completed.
    -- Stationary point found.
 Normal termination of Gaussian 16 at Tue Oct 27 23:09:19 2020.

 --------------------------------------------------------------------
 #P Geom=AllCheck Guess=TCheck SCRF=Check GenChk RwB97XD/CC-pVDZ Freq
 --------------------------------------------------------------------

 Structure from the checkpoint file:  "config_8_9.chk"
 ------------------------------------------------
 NM 2D-scan of HBT TD-WB97XD pVDZ in CTC Relaxed.
 ------------------------------------------------
 Charge =  0 Multiplicity = 1

                          Input orientation:
 ---------------------------------------------------------------------
 Center     Atomic      Atomic             Coordinates (Angstroms)
 Number     Number       Type             X           Y           Z
 ---------------------------------------------------------------------
      1          6           0        1.642634   -3.256769   -0.000062
      2          6           0        0.998589   -2.021503   -0.000031
      3          6           0        1.721106   -0.819376    0.000008
      4          6           0        3.117857   -0.834176    0.000022
      5          6           0        3.760245   -2.067531   -0.000009
      6          6           0        3.033442   -3.266508   -0.000052
      7          1           0        1.073568   -4.186679   -0.000091
      8          1           0        3.678558    0.100722    0.000054
      9          1           0        4.850493   -2.100911   -0.000001
     10          1           0        3.562865   -4.220009   -0.000074
     11          7           0        0.890170    0.288215    0.000031
     12         16           0       -0.730390   -1.698141   -0.000022
     13          6           0       -1.368615    1.070170    0.000009
     14          6           0       -2.761383    0.825888    0.000031
     15          6           0       -0.842683    2.416231   -0.000022
     16          6           0       -3.658961    1.866737    0.000047
     17          1           0       -3.123078   -0.206231    0.000044
     18          6           0       -1.816796    3.466827    0.000012
     19          6           0       -3.165255    3.194222    0.000043
     20          1           0       -4.732201    1.677022    0.000071
     21          1           0       -1.444605    4.492482    0.000001
     22          1           0       -3.875778    4.024389    0.000058
     23          6           0       -0.408538    0.016584    0.000004
     24          8           0        0.417140    2.655249   -0.000061
     25          1           0        1.009923    1.416379    0.000080
 ---------------------------------------------------------------------

 SCF Done:  E(RwB97XD) =  -1028.81427648     A.U. after    1 cycles

 Alpha  occ. eigenvalues --  -89.09823 -19.22783 -14.50214 -10.40777 -10.36736
 Alpha  occ. eigenvalues --  -10.36353 -10.35768 -10.33072 -10.32610 -10.32278
 Alpha  occ. eigenvalues --  -10.32157 -10.31395 -10.30892 -10.30878 -10.29362
 Alpha  occ. eigenvalues --  -10.28942  -8.11864  -6.06731  -6.06361  -6.05889
 Alpha  occ. eigenvalues --   -1.13117  -1.09894  -0.98190  -0.95419  -0.92935
 Alpha  occ. eigenvalues --   -0.89111  -0.86278  -0.83890  -0.82351  -0.75744
 Alpha  occ. eigenvalues --   -0.72019  -0.71493  -0.68781  -0.68159  -0.64160
 Alpha  occ. eigenvalues --   -0.60868  -0.59605  -0.57074  -0.55706  -0.55483
 Alpha  occ. eigenvalues --   -0.54776  -0.53611  -0.52740  -0.50719  -0.49947
 Alpha  occ. eigenvalues --   -0.49287  -0.47803  -0.46590  -0.45401  -0.44938
 Alpha  occ. eigenvalues --   -0.44382  -0.43179  -0.41819  -0.40596  -0.36583
 Alpha  occ. eigenvalues --   -0.33368  -0.33212  -0.31568  -0.27162
 Alpha virt. eigenvalues --   -0.01061   0.04041   0.06244   0.06933   0.08615
 Alpha virt. eigenvalues --    0.11013   0.14011   0.14807   0.16278   0.17607
 Alpha virt. eigenvalues --    0.19099   0.20477   0.21398   0.21800   0.23007

 Mulliken charges:
               1
     1  C    0.015156
     2  C   -0.234850
     3  C    0.270755
     4  C   -0.010170
     5  C    0.009176
     6  C    0.002968
     7  H    0.023742
     8  H    0.029226
     9  H    0.025489
    10  H    0.025161
    11  N   -0.216538
    12  S    0.181513
    13  C   -0.113256
    14  C   -0.013053
    15  C    0.116944
    16  C   -0.025568
    17  H    0.007520
    18  C   -0.013322
    19  C    0.024592
    20  H    0.003867
    21  H    0.005180
    22  H    0.014574
    23  C    0.071517
    24  O   -0.394093
    25  H    0.193469
 Sum of Mulliken charges =  -0.00000

 Dipole moment (field-independent basis, Debye):
    X=              1.1601    Y=             -4.6557    Z=              0.0002  Tot=              4.7981
 Quadrupole moment (field-independent basis, Debye-Ang):
   XX=            -82.5338   YY=            -93.4435   ZZ=           -104.0051
   XY=             -7.0690   XZ=              0.0001   YZ=              0.0007

  Exact polarizability:     282.560     -79.685     274.754      -0.001       0.002      62.898
 Approx polarizability:     265.339     -29.209     252.879      -0.001       0.002      82.076

 ******    1 imaginary frequencies (negative Signs) ******

                      1                      2                      3
                      A                      A                      A
 Frequencies --   -683.9683                57.8637                76.1604
 Red. masses --      1.3739                 5.5669                 5.0754
 Frc consts  --      0.3787                 0.0110                 0.0173
 IR Inten    --    506.5148                 0.8977                 0.9098

                      4                      5                      6
                      A                      A                      A
 Frequencies --    145.2614               150.1623               201.9094
 Red. masses --      5.5164                 5.2329                 6.2247
 Frc consts  --      0.0686                 0.0695                 0.1495
 IR Inten    --      1.0115                 1.0605                 0.0822

                      7                      8                      9
                      A                      A                      A
 Frequencies --    241.6987               280.9755               316.6125
 Red. masses --      6.2598                 7.0583                 5.3372
 Frc consts  --      0.2155                 0.3283                 0.3152
 IR Inten    --      0.5952                 1.7404                 0.6014

                     10                     11                     12
                      A                      A                      A
 Frequencies --    395.9643               419.9548               432.4920
 Red. masses --      5.5735                10.6916                 3.1670
 Frc consts  --      0.5149                 1.1110                 0.3490
 IR Inten    --      1.5607                 1.3448                 0.8952

                     13                     14                     15
                      A                      A                      A
 Frequencies --    455.4506               514.4940               536.3498
 Red. masses --      3.6152                 8.8154                 3.0565
 Frc consts  --      0.4418                 1.3748                 0.5180
 IR Inten    --      9.9386                 7.4925                 4.4491

                     16                     17                     18
                      A                      A                      A
 Frequencies --    551.8285               566.6135               577.5776
 Red. masses --      8.8826                 3.6971                 7.1353
 Frc consts  --      1.5937                 0.6993                 1.4024
 IR Inten    --      7.0563                 0.0759                14.7216

                     19                     20                     21
                      A                      A                      A
 Frequencies --    610.7787               646.8367               699.4733
 Red. masses --      7.0452                 6.4366                 6.0874
 Frc consts  --      1.5485                 1.5867                 1.7548
 IR Inten    --     11.4435                 0.0034                15.5582

                     22                     23                     24
                      A                      A                      A
 Frequencies --    723.3547               752.8624               765.1148
 Red. masses --      6.5865                 2.5083                 1.5033
 Frc consts  --      2.0305                 0.8376                 0.5185
 IR Inten    --     21.1502                13.3895                46.5540

                     25                     26                     27
                      A                      A                      A
 Frequencies --    775.9376               778.3810               779.6231
 Red. masses --      6.4054                 2.3343                 1.6711
 Frc consts  --      2.2722                 0.8333                 0.5984
 IR Inten    --     38.8132                 7.0298                57.7966

                     28                     29                     30
                      A                      A                      A
 Frequencies --    852.4295               878.8136               884.8698
 Red. masses --      6.2495                 1.7626                 1.3854
 Frc consts  --      2.6755                 0.8021                 0.6391
 IR Inten    --     16.0009                 8.8257                 0.4750

                     31                     32                     33
                      A                      A                      A
 Frequencies --    938.8512               968.2052               973.2015
 Red. masses --      6.4043                 1.3325                 1.3606
 Frc consts  --      3.3259                 0.7359                 0.7593
 IR Inten    --     12.9196                 0.4626                 1.4141

                     34                     35                     36
                      A                      A                      A
 Frequencies --   1014.3265              1015.9006              1022.7108
 Red. masses --      1.3055                 1.3049                 6.7287
 Frc consts  --      0.7914                 0.7935                 4.1465
 IR Inten    --      0.2415                 0.0007                 4.9514

                     37                     38                     39
                      A                      A                      A
 Frequencies --   1051.1637              1054.8511              1107.1429
 Red. masses --      2.0177                 2.0191                 3.5017
 Frc consts  --      1.3136                 1.3237                 2.5289
 IR Inten    --      4.6144                10.7621                 4.4156

                     40                     41                     42
                      A                      A                      A
 Frequencies --   1120.9832              1158.5414              1159.5237
 Red. masses --      1.0643                 1.4039                 1.2911
 Frc consts  --      0.7880                 1.1102                 1.0228
 IR Inten    --     72.3304                 9.8163                 8.0543

                     43                     44                     45
                      A                      A                      A
 Frequencies --   1179.0675              1187.1382              1257.2313
 Red. masses --      1.1258                 1.1946                 1.8855
 Frc consts  --      0.9221                 0.9919                 1.7559
 IR Inten    --     69.1002                 1.5785                29.4588

                     46                     47                     48
                      A                      A                      A
 Frequencies --   1289.6415              1329.3261              1361.7176
 Red. masses --      1.5399                 3.0251                 3.6319
 Frc consts  --      1.5089                 3.1495                 3.9678
 IR Inten    --     20.3836               274.9598                12.7769

                     49                     50                     51
                      A                      A                      A
 Frequencies --   1377.0108              1393.8551              1411.6531
 Red. masses --      5.0132                 5.5840                 2.8713
 Frc consts  --      5.6007                 6.3920                 3.3712
 IR Inten    --     19.5219                 5.2854                25.1907

                     52                     53                     54
                      A                      A                      A
 Frequencies --   1493.8037              1503.6249              1518.7744
 Red. masses --      2.7143                 2.8069                 3.3237
 Frc consts  --      3.5686                 3.7390                 4.5171
 IR Inten    --     20.8769                24.6246                25.0551

                     55                     56                     57
                      A                      A                      A
 Frequencies --   1572.1715              1590.3156              1606.4768
 Red. masses --      5.8543                 4.6359                 7.1507
 Frc consts  --      8.5256                 6.9080                10.8729
 IR Inten    --   2028.2000               164.2368               112.8547

                     58                     59                     60
                      A                      A                      A
 Frequencies --   1659.6555              1680.8237              1710.0169
 Red. masses --      6.9971                 6.8050                 6.4355
 Frc consts  --     11.3554                11.3271                11.0874
 IR Inten    --     10.6044                14.2152               194.4788

                     61                     62                     63
                      A                      A                      A
 Frequencies --   2147.6375              3187.0851              3197.2096
 Red. masses --      1.1226                 1.0893                 1.0884
 Frc consts  --      3.0506                 6.5188                 6.5554
 IR Inten    --    466.8980                 4.1821                12.8802

                     64                     65                     66
                      A                      A                      A
 Frequencies --   3216.2031              3224.5329              3226.7220
 Red. masses --      1.0864                 1.0943                 1.0910
 Frc consts  --      6.6213                 6.7035                 6.6925
 IR Inten    --      1.7213                19.9722                 3.3323

                     67                     68                     69
                      A                      A                      A
 Frequencies --   3235.7555              3237.1524              3242.9661
 Red. masses --      1.0973                 1.0961                 1.0996
 Frc consts  --      6.7692                 6.7676                 6.8134
 IR Inten    --     18.5149                 7.0436                 9.6746

 - Thermochemistry -
 -------------------
 Temperature   298.150 Kelvin.  Pressure   1.00000 Atm.
 Atom     1 has atomic number  6 and mass  12.00000

 Molecular mass:   227.04049 amu.
 Principal axes and moments of inertia in atomic units:
                           1         2         3
     Eigenvalues --  1298.251356253.961897552.21324
           X           -0.70564   0.70857   0.00000
           Y            0.70857   0.70564  -0.00000
           Z            0.00001  -0.00000   1.00000
 This molecule is an asymmetric top.
 Rotational symmetry number  1.
 Warning -- assumption of classical behavior for rotation
           may cause significant error
 Rotational temperatures (Kelvin)      0.06672     0.01385     0.01147
 Rotational constants (GHZ):           1.39013     0.28858     0.23897
    1 imaginary frequencies ignored.
 Zero-point vibrational energy     488631.5 (Joules/Mol)
                                  116.78574 (Kcal/Mol)
 Warning -- explicit consideration of  18 degrees of freedom as
           vibrations may cause significant error
 Vibrational temperatures:     83.25   109.58   209.00   216.05   290.50
          (Kelvin)            347.75   404.26   455.53   569.70   604.22
                              622.26   655.29   740.24   771.69   793.96
                              815.23   831.01   878.77   930.65  1006.39
                             1040.75  1083.20  1100.83  1116.40  1119.92
                             1121.70  1226.46  1264.42  1273.13  1350.80
                             1393.03  1400.22  1459.39  1461.65  1471.45
                             1512.39  1517.70  1592.93  1612.84  1666.88
                             1668.30  1696.42  1708.03  1808.88  1855.51
                             1912.60  1959.21  1981.21  2005.45  2031.05
                             2149.25  2163.38  2185.18  2262.00  2288.11
                             2311.36  2387.87  2418.33  2460.33  3089.97
                             4585.50  4600.07  4627.40  4639.38  4642.53
                             4655.53  4657.54  4665.90

 Zero-point correction=                           0.186110 (Hartree/Particle)
 Thermal correction to Energy=                    0.197469
 Thermal correction to Enthalpy=                  0.198413
 Thermal correction to Gibbs Free Energy=         0.148109
 Sum of electronic and zero-point Energies=          -1028.628167
 Sum of electronic and thermal Energies=             -1028.616808
 Sum of electronic and thermal Enthalpies=           -1028.615863
 Sum of electronic and thermal Free Energies=        -1028.666168

                     E (Thermal)             CV                S
                      KCal/Mol        Cal/Mol-Kelvin    Cal/Mol-Kelvin
 Total                  123.914             46.555            105.875
 Electronic               0.000              0.000              0.000
 Translational            0.889              2.981             42.162
 Rotational               0.889              2.981             32.483
 Vibrational            122.136             40.593             31.229
 Vibration     1          0.596              1.974              4.529
 Vibration     2          0.599              1.965              3.987
 Vibration     3          0.617              1.908              2.733
 Vibration     4          0.618              1.902              2.670
 Vibration     5          0.639              1.837              2.116
 Vibration     6          0.658              1.776              1.790
 Vibration     7          0.681              1.709              1.528
 Vibration     8          0.703              1.642              1.328
 Vibration     9          0.763              1.479              0.978
 Vibration    10          0.783              1.427              0.892
 Vibration    11          0.793              1.399              0.851
 Vibration    12          0.814              1.349              0.779
 Vibration    13          0.870              1.218              0.623
 Vibration    14          0.891              1.170              0.573
 Vibration    15          0.907              1.136              0.540
 Vibration    16          0.923              1.103              0.511
 Vibration    17          0.934              1.080              0.490
 Vibration    18          0.970              1.009              0.431

 Optimization completed.
    -- Stationary point found.
 Normal termination of Gaussian 16 at Tue Oct 27 23:15:27 2020.
