 Gaussian 16, Revision C.01,
 Gaussian 16:  ES64L-G16RevC.01  3-Jul-2019

 ----------------------------------------------------------------------
 #p opt=addgic freq wb97xd/cc-pvdz nosymm int=ultrafine scrf=(solvent=C
 arbonTetraChloride)
 ----------------------------------------------------------------------

 ------------------------------------------------
 NM 2D-scan of HBT TD-WB97XD pVDZ in CTC Relaxed.
 ------------------------------------------------
 Symbolic Z-matrix:
 Charge =  0 Multiplicity = 1

 SCF Done:  E(RwB97XD) =  -1028.81722319     A.U. after   15 cycles
 SCF Done:  E(RwB97XD) =  -1028.82424477     A.U. after   13 cycles
 SCF Done:  E(RwB97XD) =  -1028.82452453     A.U. after   12 cycles
 SCF Done:  E(RwB97XD) =  -1028.82517626     A.U. after   12 cycles
 SCF Done:  E(RwB97XD) =  -1028.82535502     A.U. after   11 cycles
 SCF Done:  E(RwB97XD) =  -1028.82535720     A.U. after    9 cycles
 SCF Done:  E(RwB97XD) =  -1028.82535261     A.U. after   10 cycles
 SCF Done:  E(RwB97XD) =  -1028.82535798     A.U. after   10 cycles
 Optimization completed.
    -- Stationary point found.
 Normal termination of Gaussian 16 at Wed Oct 28 00:04:21 2020.

 --------------------------------------------------------------------
 #P Geom=AllCheck Guess=TCheck SCRF=Check GenChk RwB97XD/CC-pVDZ Freq
 --------------------------------------------------------------------

 Structure from the checkpoint file:  "config_5_12.chk"
 ------------------------------------------------
 NM 2D-scan of HBT TD-WB97XD pVDZ in CTC Relaxed.
 ------------------------------------------------
 Charge =  0 Multiplicity = 1

                          Input orientation:
 ---------------------------------------------------------------------
 Center     Atomic      Atomic             Coordinates (Angstroms)
 Number     Number       Type             X           Y           Z
 ---------------------------------------------------------------------
      1          6           0        1.604993   -3.261579   -0.000063
      2          6           0        1.001056   -2.006675   -0.000044
      3          6           0        1.743314   -0.816729    0.000000
      4          6           0        3.143024   -0.880700    0.000026
      5          6           0        3.749719   -2.132944    0.000008
      6          6           0        2.991778   -3.313770   -0.000036
      7          1           0        1.004813   -4.171734   -0.000096
      8          1           0        3.734759    0.035204    0.000061
      9          1           0        4.838802   -2.197207    0.000030
     10          1           0        3.494913   -4.281557   -0.000049
     11          7           0        0.940746    0.315310    0.000017
     12         16           0       -0.711300   -1.652048   -0.000063
     13          6           0       -1.349847    1.090273    0.000014
     14          6           0       -2.719757    0.802549    0.000043
     15          6           0       -0.885000    2.431497    0.000003
     16          6           0       -3.660277    1.820800    0.000065
     17          1           0       -3.049930   -0.239278    0.000055
     18          6           0       -1.858884    3.455972    0.000022
     19          6           0       -3.214300    3.148767    0.000051
     20          1           0       -4.725488    1.589819    0.000091
     21          1           0       -1.518726    4.492445    0.000009
     22          1           0       -3.943340    3.961840    0.000064
     23          6           0       -0.341997    0.044400   -0.000008
     24          8           0        0.407076    2.691254   -0.000036
     25          1           0        0.905692    1.767086   -0.000059
 ---------------------------------------------------------------------

 SCF Done:  E(RwB97XD) =  -1028.82535798     A.U. after    1 cycles

 Alpha  occ. eigenvalues --  -89.08869 -19.26582 -14.47405 -10.39583 -10.37071
 Alpha  occ. eigenvalues --  -10.35405 -10.34886 -10.32429 -10.32007 -10.31761
 Alpha  occ. eigenvalues --  -10.31744 -10.31712 -10.31697 -10.31323 -10.30037
 Alpha  occ. eigenvalues --  -10.29964  -8.10970  -6.05818  -6.05456  -6.05021
 Alpha  occ. eigenvalues --   -1.15585  -1.09290  -0.97452  -0.96115  -0.92063
 Alpha  occ. eigenvalues --   -0.88687  -0.85622  -0.84297  -0.83052  -0.75584
 Alpha  occ. eigenvalues --   -0.71493  -0.70648  -0.69360  -0.68183  -0.63344
 Alpha  occ. eigenvalues --   -0.60779  -0.59076  -0.58211  -0.56267  -0.54538
 Alpha  occ. eigenvalues --   -0.54486  -0.53412  -0.52737  -0.50972  -0.50112
 Alpha  occ. eigenvalues --   -0.49517  -0.47207  -0.46144  -0.45378  -0.45098
 Alpha  occ. eigenvalues --   -0.44048  -0.42856  -0.42685  -0.40019  -0.36357
 Alpha  occ. eigenvalues --   -0.36270  -0.32357  -0.31621  -0.28795
 Alpha virt. eigenvalues --   -0.00555   0.04665   0.06778   0.07446   0.07748
 Alpha virt. eigenvalues --    0.11259   0.14507   0.15124   0.16771   0.17957
 Alpha virt. eigenvalues --    0.19017   0.20971   0.21750   0.22547   0.22656

 Mulliken charges:
               1
     1  C    0.015283
     2  C   -0.222825
     3  C    0.244564
     4  C   -0.015206
     5  C    0.005158
     6  C    0.002859
     7  H    0.019372
     8  H    0.022035
     9  H    0.021616
    10  H    0.022367
    11  N   -0.344005
    12  S    0.158316
    13  C   -0.065932
    14  C   -0.025399
    15  C    0.086234
    16  C   -0.011101
    17  H    0.014162
    18  C   -0.004622
    19  C    0.021505
    20  H    0.008344
    21  H    0.013793
    22  H    0.017930
    23  C    0.083456
    24  O   -0.248098
    25  H    0.180195
 Sum of Mulliken charges =  -0.00000

 Dipole moment (field-independent basis, Debye):
    X=              0.1753    Y=             -3.1298    Z=             -0.0000  Tot=              3.1347
 Quadrupole moment (field-independent basis, Debye-Ang):
   XX=            -82.6937   YY=            -90.7342   ZZ=           -103.9936
   XY=             -7.2595   XZ=             -0.0001   YZ=              0.0003

  Exact polarizability:     275.227     -68.928     256.316      -0.001       0.002      62.869
 Approx polarizability:     262.525     -24.037     242.726      -0.000       0.002      82.148

                      1                      2                      3
                      A                      A                      A
 Frequencies --     14.7592                64.9344               125.2016
 Red. masses --      5.3634                 6.0617                 5.5943
 Frc consts  --      0.0007                 0.0151                 0.0517
 IR Inten    --      0.0238                 1.3221                 2.7851

                      4                      5                      6
                      A                      A                      A
 Frequencies --    152.3069               197.2355               243.8620
 Red. masses --      5.0620                 6.0381                 5.6568
 Frc consts  --      0.0692                 0.1384                 0.1982
 IR Inten    --      0.2181                 0.5499                 0.0866

                      7                      8                      9
                      A                      A                      A
 Frequencies --    276.1061               328.6186               335.7484
 Red. masses --      7.3316                 5.1497                 6.0740
 Frc consts  --      0.3293                 0.3277                 0.4034
 IR Inten    --      0.6564                 0.1715                15.7159

                     10                     11                     12
                      A                      A                      A
 Frequencies --    419.6849               435.7974               462.5891
 Red. masses --     10.5417                 3.1063                 3.6098
 Frc consts  --      1.0940                 0.3476                 0.4551
 IR Inten    --      0.0540                 1.8943                 8.1788

                     13                     14                     15
                      A                      A                      A
 Frequencies --    515.4671               525.2211               538.2227
 Red. masses --      7.7752                 5.9948                 3.4509
 Frc consts  --      1.2172                 0.9743                 0.5890
 IR Inten    --      3.1120                24.2656                 3.4899

                     16                     17                     18
                      A                      A                      A
 Frequencies --    560.5008               575.4265               590.7651
 Red. masses --      7.0336                 3.7071                 7.6158
 Frc consts  --      1.3019                 0.7232                 1.5660
 IR Inten    --      7.6970                 0.0610                 2.5796

                     19                     20                     21
                      A                      A                      A
 Frequencies --    648.3353               686.4209               727.1664
 Red. masses --      6.3657                 6.4168                 6.5630
 Frc consts  --      1.5765                 1.7814                 2.0446
 IR Inten    --      0.0089                 7.5231                20.3235

                     22                     23                     24
                      A                      A                      A
 Frequencies --    755.8574               764.9672               768.5781
 Red. masses --      2.0344                10.0176                 2.7915
 Frc consts  --      0.6848                 3.4538                 0.9716
 IR Inten    --     25.9971                18.8808                 4.8903

                     25                     26                     27
                      A                      A                      A
 Frequencies --    775.1650               784.6553               853.5782
 Red. masses --      1.4550                 1.8937                 5.9870
 Frc consts  --      0.5151                 0.6869                 2.5701
 IR Inten    --     56.6255                41.0077                15.1741

                     28                     29                     30
                      A                      A                      A
 Frequencies --    882.1801               886.2506               906.9667
 Red. masses --      1.5718                 1.4084                 6.7473
 Frc consts  --      0.7207                 0.6517                 3.2701
 IR Inten    --      5.3577                 0.3754                 4.6333

                     31                     32                     33
                      A                      A                      A
 Frequencies --    967.7050               975.0829              1008.4209
 Red. masses --      1.3599                 1.3643                 7.4927
 Frc consts  --      0.7503                 0.7643                 4.4893
 IR Inten    --      1.2883                 1.1289                50.0106

                     34                     35                     36
                      A                      A                      A
 Frequencies --   1010.5611              1015.7756              1053.1341
 Red. masses --      1.3019                 1.3052                 2.0027
 Frc consts  --      0.7834                 0.7934                 1.3087
 IR Inten    --      0.1088                 0.0113                 9.4071

                     37                     38                     39
                      A                      A                      A
 Frequencies --   1053.7986              1067.0166              1103.2773
 Red. masses --      1.0632                 1.9019                 3.7078
 Frc consts  --      0.6957                 1.2758                 2.6591
 IR Inten    --     73.0162                 8.5239                 5.0180

                     40                     41                     42
                      A                      A                      A
 Frequencies --   1151.6114              1157.1107              1173.3221
 Red. masses --      1.4602                 1.3571                 1.1318
 Frc consts  --      1.1410                 1.0706                 0.9180
 IR Inten    --     13.7391                 2.5759                39.2925

                     43                     44                     45
                      A                      A                      A
 Frequencies --   1184.6633              1261.4794              1288.0799
 Red. masses --      1.2123                 1.8979                 1.5950
 Frc consts  --      1.0024                 1.7795                 1.5592
 IR Inten    --      0.3151                77.2294                 2.2973

                     46                     47                     48
                      A                      A                      A
 Frequencies --   1306.2662              1318.4276              1362.5517
 Red. masses --      3.3767                 2.8920                 4.4024
 Frc consts  --      3.3948                 2.9619                 4.8155
 IR Inten    --    246.9029                32.6363                 6.6830

                     49                     50                     51
                      A                      A                      A
 Frequencies --   1379.2156              1380.6948              1487.1809
 Red. masses --      3.6477                 7.1088                 2.9488
 Frc consts  --      4.0882                 7.9844                 3.8426
 IR Inten    --     17.1401                 8.7964                14.5141

                     52                     53                     54
                      A                      A                      A
 Frequencies --   1492.1567              1495.6955              1518.9163
 Red. masses --      2.5594                 2.7807                 3.9193
 Frc consts  --      3.3575                 3.6651                 5.3276
 IR Inten    --      8.2755                31.5781                92.5564

                     55                     56                     57
                      A                      A                      A
 Frequencies --   1577.2342              1612.3038              1655.1355
 Red. masses --      6.4409                 3.4039                 6.9098
 Frc consts  --      9.4404                 5.2134                11.1527
 IR Inten    --    276.8103                 6.0178                15.2361

                     58                     59                     60
                      A                      A                      A
 Frequencies --   1675.0385              1699.3667              1738.2838
 Red. masses --      6.5759                 6.7431                 1.5280
 Frc consts  --     10.8707                11.4732                 2.7203
 IR Inten    --     86.7742               206.2427               370.7605

                     61                     62                     63
                      A                      A                      A
 Frequencies --   2264.5806              3197.4814              3207.1480
 Red. masses --      1.1092                 1.0889                 1.0887
 Frc consts  --      3.3514                 6.5595                 6.5980
 IR Inten    --   1657.9342                 4.1033                 7.0335

                     64                     65                     66
                      A                      A                      A
 Frequencies --   3213.0706              3223.6626              3228.3244
 Red. masses --      1.0862                 1.0907                 1.0937
 Frc consts  --      6.6066                 6.6779                 6.7157
 IR Inten    --      1.6812                 3.4371                13.8211

                     67                     68                     69
                      A                      A                      A
 Frequencies --   3233.9050              3236.8642              3239.9637
 Red. masses --      1.0960                 1.0987                 1.0997
 Frc consts  --      6.7531                 6.7820                 6.8013
 IR Inten    --      8.8401                17.5597                13.1984

 - Thermochemistry -
 -------------------
 Temperature   298.150 Kelvin.  Pressure   1.00000 Atm.
 Atom     1 has atomic number  6 and mass  12.00000

 Molecular mass:   227.04049 amu.
 Principal axes and moments of inertia in atomic units:
                           1         2         3
     Eigenvalues --  1282.994146275.644557558.63869
           X           -0.70524   0.70897  -0.00000
           Y            0.70897   0.70524  -0.00001
           Z            0.00001   0.00001   1.00000
 This molecule is an asymmetric top.
 Rotational symmetry number  1.
 Warning -- assumption of classical behavior for rotation
           may cause significant error
 Rotational temperatures (Kelvin)      0.06751     0.01380     0.01146
 Rotational constants (GHZ):           1.40666     0.28758     0.23877
 Zero-point vibrational energy     496552.4 (Joules/Mol)
                                  118.67887 (Kcal/Mol)
 Warning -- explicit consideration of  18 degrees of freedom as
           vibrations may cause significant error
 Vibrational temperatures:     21.24    93.43   180.14   219.14   283.78
          (Kelvin)            350.86   397.26   472.81   483.07   603.83
                              627.02   665.56   741.64   755.68   774.38
                              806.44   827.91   849.98   932.81   987.61
                             1046.23  1087.51  1100.62  1105.81  1115.29
                             1128.94  1228.11  1269.26  1275.12  1304.92
                             1392.31  1402.93  1450.89  1453.97  1461.47
                             1515.23  1516.18  1535.20  1587.37  1656.91
                             1664.82  1688.15  1704.47  1814.99  1853.26
                             1879.43  1896.92  1960.41  1984.38  1986.51
                             2139.72  2146.88  2151.97  2185.38  2269.29
                             2319.75  2381.37  2410.01  2445.01  2501.00
                             3258.23  4600.46  4614.37  4622.89  4638.13
                             4644.84  4652.87  4657.13  4661.59

 Zero-point correction=                           0.189127 (Hartree/Particle)
 Thermal correction to Energy=                    0.200743
 Thermal correction to Enthalpy=                  0.201687
 Thermal correction to Gibbs Free Energy=         0.149642
 Sum of electronic and zero-point Energies=          -1028.636231
 Sum of electronic and thermal Energies=             -1028.624615
 Sum of electronic and thermal Enthalpies=           -1028.623671
 Sum of electronic and thermal Free Energies=        -1028.675716

                     E (Thermal)             CV                S
                      KCal/Mol        Cal/Mol-Kelvin    Cal/Mol-Kelvin
 Total                  125.968             47.034            109.539
 Electronic               0.000              0.000              0.000
 Translational            0.889              2.981             42.162
 Rotational               0.889              2.981             32.476
 Vibrational            124.191             41.072             34.901
 Vibration     1          0.593              1.986              7.238
 Vibration     2          0.597              1.971              4.301
 Vibration     3          0.610              1.928              3.018
 Vibration     4          0.619              1.900              2.643
 Vibration     5          0.637              1.844              2.159
 Vibration     6          0.659              1.773              1.775
 Vibration     7          0.678              1.718              1.558
 Vibration     8          0.712              1.618              1.267
 Vibration     9          0.717              1.604              1.232
 Vibration    10          0.782              1.427              0.893
 Vibration    11          0.796              1.392              0.840
 Vibration    12          0.820              1.333              0.759
 Vibration    13          0.871              1.216              0.621
 Vibration    14          0.880              1.194              0.598
 Vibration    15          0.893              1.166              0.569
 Vibration    16          0.916              1.117              0.523
 Vibration    17          0.932              1.084              0.494
 Vibration    18          0.948              1.051              0.466

 Optimization completed.
    -- Stationary point found.
 Normal termination of Gaussian 16 at Wed Oct 28 00:11:09 2020.
