 Gaussian 16, Revision C.01,
 Gaussian 16:  ES64L-G16RevC.01  3-Jul-2019

 ----------------------------------------------------------------------
 #p opt=addgic freq wb97xd/cc-pvdz nosymm int=ultrafine scrf=(solvent=C
 arbonTetraChloride)
 ----------------------------------------------------------------------

 ------------------------------------------------
 NM 2D-scan of HBT TD-WB97XD pVDZ in CTC Relaxed.
 ------------------------------------------------
 Symbolic Z-matrix:
 Charge =  0 Multiplicity = 1

 SCF Done:  E(RwB97XD) =  -1028.81057271     A.U. after   15 cycles
 SCF Done:  E(RwB97XD) =  -1028.81610398     A.U. after   13 cycles
 SCF Done:  E(RwB97XD) =  -1028.81729985     A.U. after   13 cycles
 SCF Done:  E(RwB97XD) =  -1028.81768059     A.U. after   12 cycles
 SCF Done:  E(RwB97XD) =  -1028.81786799     A.U. after   12 cycles
 SCF Done:  E(RwB97XD) =  -1028.81791566     A.U. after   11 cycles
 SCF Done:  E(RwB97XD) =  -1028.81791867     A.U. after    9 cycles
 Optimization completed.
    -- Stationary point found.
 Normal termination of Gaussian 16 at Tue Oct 27 22:25:58 2020.

 --------------------------------------------------------------------
 #P Geom=AllCheck Guess=TCheck SCRF=Check GenChk RwB97XD/CC-pVDZ Freq
 --------------------------------------------------------------------

 Structure from the checkpoint file:  "config_7_8.chk"
 ------------------------------------------------
 NM 2D-scan of HBT TD-WB97XD pVDZ in CTC Relaxed.
 ------------------------------------------------
 Charge =  0 Multiplicity = 1

                          Input orientation:
 ---------------------------------------------------------------------
 Center     Atomic      Atomic             Coordinates (Angstroms)
 Number     Number       Type             X           Y           Z
 ---------------------------------------------------------------------
      1          6           0        1.656995   -3.251346   -0.000039
      2          6           0        1.006779   -2.019744   -0.000024
      3          6           0        1.716785   -0.813369   -0.000008
      4          6           0        3.115654   -0.820134   -0.000006
      5          6           0        3.765462   -2.049789   -0.000019
      6          6           0        3.046305   -3.253747   -0.000036
      7          1           0        1.092306   -4.183816   -0.000052
      8          1           0        3.671434    0.117789    0.000007
      9          1           0        4.855963   -2.077125   -0.000018
     10          1           0        3.581332   -4.204167   -0.000047
     11          7           0        0.874739    0.283113    0.000004
     12         16           0       -0.723383   -1.709088   -0.000023
     13          6           0       -1.383788    1.067310    0.000017
     14          6           0       -2.767574    0.838762    0.000020
     15          6           0       -0.849852    2.396254    0.000028
     16          6           0       -3.661831    1.895386    0.000032
     17          1           0       -3.139493   -0.189405    0.000012
     18          6           0       -1.795006    3.458584    0.000037
     19          6           0       -3.157367    3.206904    0.000040
     20          1           0       -4.736309    1.712306    0.000035
     21          1           0       -1.412012    4.480152    0.000043
     22          1           0       -3.853628    4.048633    0.000047
     23          6           0       -0.410525   -0.000973    0.000002
     24          8           0        0.434740    2.600233    0.000026
     25          1           0        0.925232    1.550850    0.000013
 ---------------------------------------------------------------------

 SCF Done:  E(RwB97XD) =  -1028.81791867     A.U. after    1 cycles

 Alpha  occ. eigenvalues --  -89.09417 -19.24593 -14.48350 -10.40165 -10.36681
 Alpha  occ. eigenvalues --  -10.35934 -10.35318 -10.32765 -10.32318 -10.32024
 Alpha  occ. eigenvalues --  -10.31953 -10.31559 -10.31375 -10.31064 -10.29659
 Alpha  occ. eigenvalues --  -10.29424  -8.11479  -6.06337  -6.05968  -6.05521
 Alpha  occ. eigenvalues --   -1.14256  -1.09787  -0.97785  -0.95707  -0.92437
 Alpha  occ. eigenvalues --   -0.88869  -0.85884  -0.83998  -0.82861  -0.75714
 Alpha  occ. eigenvalues --   -0.71650  -0.70826  -0.68982  -0.68376  -0.63566
 Alpha  occ. eigenvalues --   -0.60865  -0.59366  -0.57671  -0.56001  -0.54985
 Alpha  occ. eigenvalues --   -0.54575  -0.53551  -0.52506  -0.51044  -0.49835
 Alpha  occ. eigenvalues --   -0.49685  -0.47232  -0.46379  -0.45236  -0.45166
 Alpha  occ. eigenvalues --   -0.44169  -0.43113  -0.42158  -0.40373  -0.36384
 Alpha  occ. eigenvalues --   -0.34838  -0.32791  -0.31543  -0.28042
 Alpha virt. eigenvalues --   -0.00773   0.04356   0.06639   0.07341   0.08001
 Alpha virt. eigenvalues --    0.11073   0.14233   0.14944   0.16406   0.17780
 Alpha virt. eigenvalues --    0.19122   0.20724   0.21696   0.22212   0.22816

 Mulliken charges:
               1
     1  C    0.014842
     2  C   -0.233659
     3  C    0.268519
     4  C   -0.011458
     5  C    0.007503
     6  C    0.003177
     7  H    0.021523
     8  H    0.025863
     9  H    0.023715
    10  H    0.023893
    11  N   -0.292531
    12  S    0.170294
    13  C   -0.094757
    14  C   -0.017150
    15  C    0.106048
    16  C   -0.019124
    17  H    0.008344
    18  C   -0.011582
    19  C    0.023011
    20  H    0.006073
    21  H    0.009117
    22  H    0.016043
    23  C    0.076590
    24  O   -0.320671
    25  H    0.196376
 Sum of Mulliken charges =   0.00000

 Dipole moment (field-independent basis, Debye):
    X=              0.7160    Y=             -3.8653    Z=             -0.0000  Tot=              3.9311
 Quadrupole moment (field-independent basis, Debye-Ang):
   XX=            -82.6842   YY=            -91.8026   ZZ=           -103.9823
   XY=             -7.1213   XZ=             -0.0001   YZ=              0.0001

  Exact polarizability:     278.544     -72.921     263.355      -0.001       0.002      62.895
 Approx polarizability:     264.254     -26.226     246.675      -0.000       0.002      82.149

 ******    1 imaginary frequencies (negative Signs) ******

                      1                      2                      3
                      A                      A                      A
 Frequencies --   -727.9271                40.0968                66.1202
 Red. masses --      1.1807                 5.0807                 6.2413
 Frc consts  --      0.3686                 0.0048                 0.0161
 IR Inten    --   1553.0094                 0.0226                 1.5232

                      4                      5                      6
                      A                      A                      A
 Frequencies --    143.4219               153.0583               199.0156
 Red. masses --      5.6352                 5.1225                 6.1055
 Frc consts  --      0.0683                 0.0707                 0.1425
 IR Inten    --      3.4404                 0.5354                 0.2475

                      7                      8                      9
                      A                      A                      A
 Frequencies --    243.1361               279.4571               324.5630
 Red. masses --      5.8558                 7.1123                 5.2447
 Frc consts  --      0.2040                 0.3273                 0.3255
 IR Inten    --      0.2561                 6.3681                 0.4014

                     10                     11                     12
                      A                      A                      A
 Frequencies --    389.8049               424.6897               434.3999
 Red. masses --      5.9688                11.0805                 3.1257
 Frc consts  --      0.5344                 1.1775                 0.3475
 IR Inten    --     13.0335                 8.6212                 1.7905

                     13                     14                     15
                      A                      A                      A
 Frequencies --    459.1220               516.7636               539.2199
 Red. masses --      3.6149                 8.7499                 3.3379
 Frc consts  --      0.4490                 1.3767                 0.5718
 IR Inten    --      8.6853                 3.7418                 3.7880

                     16                     17                     18
                      A                      A                      A
 Frequencies --    559.5269               572.5074               583.0606
 Red. masses --      8.1772                 3.6595                 7.9214
 Frc consts  --      1.5083                 0.7067                 1.5866
 IR Inten    --     10.3323                 0.1202                 2.5304

                     19                     20                     21
                      A                      A                      A
 Frequencies --    649.1251               656.6464               696.9616
 Red. masses --      6.5151                 6.8165                 6.5886
 Frc consts  --      1.6174                 1.7317                 1.8857
 IR Inten    --      0.0062               128.3731                 6.1860

                     22                     23                     24
                      A                      A                      A
 Frequencies --    729.6693               754.8033               768.2613
 Red. masses --      6.4794                 2.2539                 1.7955
 Frc consts  --      2.0325                 0.7566                 0.6244
 IR Inten    --      1.5144                19.5256                26.5921

                     25                     26                     27
                      A                      A                      A
 Frequencies --    776.3144               776.4686               782.5496
 Red. masses --      8.9947                 2.0104                 1.7436
 Frc consts  --      3.1938                 0.7141                 0.6291
 IR Inten    --     25.1399                37.6746                43.2114

                     28                     29                     30
                      A                      A                      A
 Frequencies --    854.7559               880.5101               885.8646
 Red. masses --      6.1699                 1.6318                 1.3959
 Frc consts  --      2.6559                 0.7454                 0.6454
 IR Inten    --     18.0674                 6.6284                 0.4166

                     31                     32                     33
                      A                      A                      A
 Frequencies --    932.5285               967.9266               975.0301
 Red. masses --      7.1649                 1.3487                 1.3614
 Frc consts  --      3.6710                 0.7445                 0.7626
 IR Inten    --     16.2985                 0.8924                 1.2513

                     34                     35                     36
                      A                      A                      A
 Frequencies --   1011.0906              1013.2667              1016.5649
 Red. masses --      1.3022                 7.4263                 1.3051
 Frc consts  --      0.7844                 4.4923                 0.7946
 IR Inten    --      0.2744                11.8285                 0.0003

                     37                     38                     39
                      A                      A                      A
 Frequencies --   1054.2150              1062.6946              1103.1043
 Red. masses --      2.0105                 1.9256                 3.7144
 Frc consts  --      1.3165                 1.2812                 2.6630
 IR Inten    --      7.4029                 9.1380                 4.2909

                     40                     41                     42
                      A                      A                      A
 Frequencies --   1153.4897              1157.4080              1172.4815
 Red. masses --      1.4609                 1.3283                 1.0571
 Frc consts  --      1.1452                 1.0484                 0.8562
 IR Inten    --     11.1623                 0.5553                68.3931

                     43                     44                     45
                      A                      A                      A
 Frequencies --   1175.6147              1186.0270              1260.3449
 Red. masses --      1.0991                 1.1877                 1.9409
 Frc consts  --      0.8950                 0.9844                 1.8165
 IR Inten    --     96.9457                 1.0736                67.3239

                     46                     47                     48
                      A                      A                      A
 Frequencies --   1289.8432              1321.3071              1358.8444
 Red. masses --      1.5222                 3.1970                 3.3050
 Frc consts  --      1.4921                 3.2885                 3.5955
 IR Inten    --      4.9499               341.8560                 7.1915

                     49                     50                     51
                      A                      A                      A
 Frequencies --   1383.8834              1384.4376              1397.0434
 Red. masses --      6.5339                 6.3612                 2.4159
 Frc consts  --      7.3726                 7.1836                 2.7781
 IR Inten    --     10.0008                23.2145                13.6097

                     52                     53                     54
                      A                      A                      A
 Frequencies --   1492.8775              1501.9151              1520.3838
 Red. masses --      2.8059                 2.8390                 3.5569
 Frc consts  --      3.6844                 3.7732                 4.8443
 IR Inten    --     26.0723                22.2576                29.9481

                     55                     56                     57
                      A                      A                      A
 Frequencies --   1569.3053              1581.2547              1615.3345
 Red. masses --      6.3911                 4.5825                 5.7775
 Frc consts  --      9.2734                 6.7508                 8.8821
 IR Inten    --   1210.4282               235.5906               144.6895

                     58                     59                     60
                      A                      A                      A
 Frequencies --   1661.7210              1683.3840              1709.2005
 Red. masses --      7.0190                 6.7975                 6.7384
 Frc consts  --     11.4194                11.3492                11.5983
 IR Inten    --      3.9634                 9.9897               192.8621

                     61                     62                     63
                      A                      A                      A
 Frequencies --   1894.5075              3190.9212              3200.2229
 Red. masses --      1.0995                 1.0892                 1.0886
 Frc consts  --      2.3250                 6.5344                 6.5689
 IR Inten    --     93.5694                 4.2065                 9.2551

                     64                     65                     66
                      A                      A                      A
 Frequencies --   3214.9174              3224.3765              3225.9884
 Red. masses --      1.0865                 1.0939                 1.0909
 Frc consts  --      6.6162                 6.7009                 6.6890
 IR Inten    --      2.1585                16.1555                 3.4562

                     67                     68                     69
                      A                      A                      A
 Frequencies --   3235.8036              3236.7242              3242.2973
 Red. masses --      1.0976                 1.0960                 1.0996
 Frc consts  --      6.7713                 6.7654                 6.8106
 IR Inten    --     18.0878                 7.6595                11.3169

 - Thermochemistry -
 -------------------
 Temperature   298.150 Kelvin.  Pressure   1.00000 Atm.
 Atom     1 has atomic number  6 and mass  12.00000

 Molecular mass:   227.04049 amu.
 Principal axes and moments of inertia in atomic units:
                           1         2         3
     Eigenvalues --  1290.194236246.805477536.99970
           X            0.70726   0.70696   0.00000
           Y           -0.70696   0.70726  -0.00001
           Z           -0.00001   0.00001   1.00000
 This molecule is an asymmetric top.
 Rotational symmetry number  1.
 Warning -- assumption of classical behavior for rotation
           may cause significant error
 Rotational temperatures (Kelvin)      0.06713     0.01387     0.01149
 Rotational constants (GHZ):           1.39881     0.28891     0.23945
    1 imaginary frequencies ignored.
 Zero-point vibrational energy     487587.0 (Joules/Mol)
                                  116.53608 (Kcal/Mol)
 Warning -- explicit consideration of  17 degrees of freedom as
           vibrations may cause significant error
 Vibrational temperatures:     57.69    95.13   206.35   220.22   286.34
          (Kelvin)            349.82   402.08   466.97   560.84   611.03
                              625.00   660.57   743.51   775.82   805.03
                              823.71   838.89   933.95   944.77  1002.77
                             1049.83  1085.99  1105.36  1116.94  1117.17
                             1125.91  1229.80  1266.86  1274.56  1341.70
                             1392.63  1402.85  1454.73  1457.86  1462.61
                             1516.78  1528.98  1587.12  1659.61  1665.25
                             1686.94  1691.45  1706.43  1813.36  1855.80
                             1901.07  1955.07  1991.10  1991.90  2010.03
                             2147.92  2160.92  2187.49  2257.88  2275.07
                             2324.11  2390.85  2422.01  2459.16  2725.77
                             4591.02  4604.41  4625.55  4639.16  4641.48
                             4655.60  4656.92  4664.94

 Zero-point correction=                           0.185712 (Hartree/Particle)
 Thermal correction to Energy=                    0.197075
 Thermal correction to Enthalpy=                  0.198019
 Thermal correction to Gibbs Free Energy=         0.147324
 Sum of electronic and zero-point Energies=          -1028.632207
 Sum of electronic and thermal Energies=             -1028.620844
 Sum of electronic and thermal Enthalpies=           -1028.619899
 Sum of electronic and thermal Free Energies=        -1028.670595

                     E (Thermal)             CV                S
                      KCal/Mol        Cal/Mol-Kelvin    Cal/Mol-Kelvin
 Total                  123.666             46.370            106.697
 Electronic               0.000              0.000              0.000
 Translational            0.889              2.981             42.162
 Rotational               0.889              2.981             32.474
 Vibrational            121.889             40.408             32.061
 Vibration     1          0.594              1.981              5.254
 Vibration     2          0.598              1.970              4.266
 Vibration     3          0.616              1.910              2.758
 Vibration     4          0.619              1.899              2.634
 Vibration     5          0.637              1.841              2.142
 Vibration     6          0.659              1.774              1.780
 Vibration     7          0.680              1.712              1.537
 Vibration     8          0.709              1.626              1.287
 Vibration     9          0.758              1.492              1.001
 Vibration    10          0.787              1.417              0.876
 Vibration    11          0.795              1.395              0.844
 Vibration    12          0.817              1.341              0.769
 Vibration    13          0.872              1.213              0.618
 Vibration    14          0.894              1.163              0.567
 Vibration    15          0.915              1.119              0.525
 Vibration    16          0.929              1.091              0.499
 Vibration    17          0.940              1.068              0.480

 Optimization completed.
    -- Stationary point found.
 Normal termination of Gaussian 16 at Tue Oct 27 22:32:08 2020.
