 Gaussian 16, Revision C.01,
 Gaussian 16:  ES64L-G16RevC.01  3-Jul-2019

 ----------------------------------------------------------------------
 #p opt=addgic freq wb97xd/cc-pvdz nosymm int=ultrafine scrf=(solvent=C
 arbonTetraChloride)
 ----------------------------------------------------------------------

 ------------------------------------------------
 NM 2D-scan of HBT TD-WB97XD pVDZ in CTC Relaxed.
 ------------------------------------------------
 Symbolic Z-matrix:
 Charge =  0 Multiplicity = 1

 SCF Done:  E(RwB97XD) =  -1028.80775923     A.U. after   15 cycles
 SCF Done:  E(RwB97XD) =  -1028.81442776     A.U. after   13 cycles
 SCF Done:  E(RwB97XD) =  -1028.81592720     A.U. after   12 cycles
 SCF Done:  E(RwB97XD) =  -1028.81634380     A.U. after   12 cycles
 SCF Done:  E(RwB97XD) =  -1028.81646842     A.U. after   11 cycles
 SCF Done:  E(RwB97XD) =  -1028.81649594     A.U. after   11 cycles
 SCF Done:  E(RwB97XD) =  -1028.81649760     A.U. after    9 cycles
 Optimization completed.
    -- Stationary point found.
 Normal termination of Gaussian 16 at Wed Oct 28 00:47:03 2020.

 --------------------------------------------------------------------
 #P Geom=AllCheck Guess=TCheck SCRF=Check GenChk RwB97XD/CC-pVDZ Freq
 --------------------------------------------------------------------

 Structure from the checkpoint file:  "config_6_15.chk"
 ------------------------------------------------
 NM 2D-scan of HBT TD-WB97XD pVDZ in CTC Relaxed.
 ------------------------------------------------
 Charge =  0 Multiplicity = 1

                          Input orientation:
 ---------------------------------------------------------------------
 Center     Atomic      Atomic             Coordinates (Angstroms)
 Number     Number       Type             X           Y           Z
 ---------------------------------------------------------------------
      1          6           0        1.558212   -3.239793   -0.000050
      2          6           0        1.010706   -1.962611   -0.000034
      3          6           0        1.780323   -0.790969   -0.000008
      4          6           0        3.177781   -0.914611   -0.000001
      5          6           0        3.733790   -2.195048   -0.000015
      6          6           0        2.939351   -3.350379   -0.000039
      7          1           0        0.914596   -4.119809   -0.000069
      8          1           0        3.814724   -0.029509    0.000018
      9          1           0        4.820096   -2.296702   -0.000008
     10          1           0        3.406917   -4.335647   -0.000048
     11          7           0        0.973395    0.351016    0.000009
     12         16           0       -0.691864   -1.594131   -0.000037
     13          6           0       -1.335480    1.099823    0.000031
     14          6           0       -2.692972    0.764686    0.000051
     15          6           0       -0.880995    2.443478    0.000024
     16          6           0       -3.661306    1.753430    0.000050
     17          1           0       -2.990563   -0.286810    0.000065
     18          6           0       -1.895340    3.441470    0.000013
     19          6           0       -3.242853    3.091956    0.000024
     20          1           0       -4.720465    1.496314    0.000065
     21          1           0       -1.596044    4.490727   -0.000002
     22          1           0       -3.993398    3.885658    0.000015
     23          6           0       -0.315742    0.080746    0.000006
     24          8           0        0.405140    2.677714    0.000025
     25          1           0        0.932373    1.684653    0.000022
 ---------------------------------------------------------------------

 SCF Done:  E(RwB97XD) =  -1028.81649760     A.U. after    1 cycles

 Alpha  occ. eigenvalues --  -89.08954 -19.25414 -14.48219 -10.39727 -10.36850
 Alpha  occ. eigenvalues --  -10.35991 -10.34967 -10.32506 -10.32365 -10.31939
 Alpha  occ. eigenvalues --  -10.31844 -10.31615 -10.31262 -10.31214 -10.29857
 Alpha  occ. eigenvalues --  -10.29839  -8.11133  -6.05975  -6.05610  -6.05182
 Alpha  occ. eigenvalues --   -1.14605  -1.09503  -0.97678  -0.96077  -0.92520
 Alpha  occ. eigenvalues --   -0.88787  -0.85946  -0.84052  -0.83001  -0.75637
 Alpha  occ. eigenvalues --   -0.71638  -0.70942  -0.69179  -0.67992  -0.63526
 Alpha  occ. eigenvalues --   -0.60905  -0.59318  -0.57955  -0.56154  -0.54821
 Alpha  occ. eigenvalues --   -0.54582  -0.53571  -0.52750  -0.50973  -0.49885
 Alpha  occ. eigenvalues --   -0.49523  -0.46900  -0.46358  -0.45281  -0.45204
 Alpha  occ. eigenvalues --   -0.44274  -0.43002  -0.42424  -0.40256  -0.36343
 Alpha  occ. eigenvalues --   -0.35563  -0.32567  -0.31585  -0.28442
 Alpha virt. eigenvalues --   -0.00671   0.04503   0.06555   0.07732   0.07747
 Alpha virt. eigenvalues --    0.11152   0.14815   0.15063   0.17132   0.17906
 Alpha virt. eigenvalues --    0.19066   0.20882   0.21702   0.22288   0.22751

 Mulliken charges:
               1
     1  C    0.020148
     2  C   -0.222537
     3  C    0.251176
     4  C   -0.017109
     5  C    0.003941
     6  C    0.005223
     7  H    0.020146
     8  H    0.025121
     9  H    0.023175
    10  H    0.023187
    11  N   -0.326420
    12  S    0.166824
    13  C   -0.068099
    14  C   -0.028836
    15  C    0.103712
    16  C   -0.014308
    17  H    0.016445
    18  C   -0.016104
    19  C    0.022125
    20  H    0.006844
    21  H    0.011615
    22  H    0.017324
    23  C    0.080393
    24  O   -0.302277
    25  H    0.198293
 Sum of Mulliken charges =  -0.00000

 Dipole moment (field-independent basis, Debye):
    X=              0.3824    Y=             -3.7274    Z=             -0.0000  Tot=              3.7470
 Quadrupole moment (field-independent basis, Debye-Ang):
   XX=            -82.5977   YY=            -91.6572   ZZ=           -103.9232
   XY=             -7.2223   XZ=             -0.0001   YZ=              0.0000

  Exact polarizability:     276.098     -71.413     258.645      -0.001       0.002      62.805
 Approx polarizability:     262.804     -25.085     244.158      -0.000       0.001      82.125

 ******    2 imaginary frequencies (negative Signs) ******

                      1                      2                      3
                      A                      A                      A
 Frequencies --   -224.4675               -15.1932                66.0124
 Red. masses --      2.2173                 5.2086                 6.1755
 Frc consts  --      0.0658                 0.0007                 0.0159
 IR Inten    --    607.3885                 0.0561                 1.2515

                      4                      5                      6
                      A                      A                      A
 Frequencies --    151.9482               184.7598               198.5792
 Red. masses --      5.0936                 4.7569                 6.2562
 Frc consts  --      0.0693                 0.0957                 0.1454
 IR Inten    --      0.5443                77.4001                 0.3756

                      7                      8                      9
                      A                      A                      A
 Frequencies --    242.6667               289.1644               327.9056
 Red. masses --      5.6427                 6.6862                 5.1838
 Frc consts  --      0.1958                 0.3294                 0.3284
 IR Inten    --      0.1593                23.2792                 0.1490

                     10                     11                     12
                      A                      A                      A
 Frequencies --    420.4444               434.6057               443.0444
 Red. masses --      6.4598                 3.0985                 6.5154
 Frc consts  --      0.6728                 0.3448                 0.7535
 IR Inten    --     36.6977                 1.3988                78.0225

                     13                     14                     15
                      A                      A                      A
 Frequencies --    459.8985               519.9316               537.5853
 Red. masses --      3.5480                 8.5349                 3.3830
 Frc consts  --      0.4421                 1.3594                 0.5760
 IR Inten    --      8.7255                 6.8216                 3.4802

                     16                     17                     18
                      A                      A                      A
 Frequencies --    566.4501               575.0255               584.3090
 Red. masses --      7.4291                 3.7049                 7.8992
 Frc consts  --      1.4045                 0.7218                 1.5890
 IR Inten    --     13.4288                 0.0907                 1.3133

                     19                     20                     21
                      A                      A                      A
 Frequencies --    648.5583               687.5522               727.9736
 Red. masses --      6.4408                 6.2336                 6.3002
 Frc consts  --      1.5962                 1.7362                 1.9671
 IR Inten    --      0.0039                27.2369                80.4334

                     22                     23                     24
                      A                      A                      A
 Frequencies --    755.3642               768.6537               774.3139
 Red. masses --      2.1161                 1.9481                 1.8802
 Frc consts  --      0.7114                 0.6781                 0.6642
 IR Inten    --     24.5791                21.2382                36.9123

                     25                     26                     27
                      A                      A                      A
 Frequencies --    779.5153               782.6118               833.1371
 Red. masses --      9.0415                 1.8473                 3.6001
 Frc consts  --      3.2370                 0.6666                 1.4723
 IR Inten    --     48.9421                46.4378               366.7969

                     28                     29                     30
                      A                      A                      A
 Frequencies --    862.4814               879.2600               886.0652
 Red. masses --      6.0275                 1.6032                 1.3940
 Frc consts  --      2.6417                 0.7302                 0.6448
 IR Inten    --     75.9344                 6.2356                 0.4324

                     31                     32                     33
                      A                      A                      A
 Frequencies --    950.9697               964.2129               974.5456
 Red. masses --      5.1317                 1.3598                 1.3641
 Frc consts  --      2.7343                 0.7449                 0.7633
 IR Inten    --    220.0196                 0.9987                 1.5020

                     34                     35                     36
                      A                      A                      A
 Frequencies --   1010.5899              1015.5123              1025.3382
 Red. masses --      1.3042                 1.3058                 7.1272
 Frc consts  --      0.7848                 0.7934                 4.4147
 IR Inten    --      0.2794                 0.0014                 3.3260

                     37                     38                     39
                      A                      A                      A
 Frequencies --   1053.0778              1067.1971              1109.8390
 Red. masses --      1.9892                 1.8906                 3.0887
 Frc consts  --      1.2997                 1.2687                 2.2415
 IR Inten    --      4.1072                11.3229                 5.5505

                     40                     41                     42
                      A                      A                      A
 Frequencies --   1150.9454              1159.5969              1161.9862
 Red. masses --      1.0554                 1.4511                 1.4050
 Frc consts  --      0.8238                 1.1496                 1.1177
 IR Inten    --     70.6133                 6.6740                 1.3109

                     43                     44                     45
                      A                      A                      A
 Frequencies --   1178.4883              1184.3062              1263.8308
 Red. masses --      1.1056                 1.2546                 2.0432
 Frc consts  --      0.9047                 1.0368                 1.9228
 IR Inten    --    105.0027                 1.1632                58.1805

                     46                     47                     48
                      A                      A                      A
 Frequencies --   1290.6965              1315.5358              1341.4733
 Red. masses --      1.5625                 4.1931                 2.3864
 Frc consts  --      1.5336                 4.2755                 2.5303
 IR Inten    --      0.7355               239.4566                65.7542

                     49                     50                     51
                      A                      A                      A
 Frequencies --   1380.8725              1382.6516              1410.6493
 Red. masses --      5.3716                 3.3590                 4.4188
 Frc consts  --      6.0348                 3.7834                 5.1807
 IR Inten    --     22.2650                23.4314                65.9291

                     52                     53                     54
                      A                      A                      A
 Frequencies --   1486.0319              1497.3194              1509.8757
 Red. masses --      2.7256                 2.7758                 3.1328
 Frc consts  --      3.5463                 3.6666                 4.2078
 IR Inten    --     45.4321                11.6670                40.2159

                     55                     56                     57
                      A                      A                      A
 Frequencies --   1576.2350              1595.5947              1631.6661
 Red. masses --      5.8208                 4.1640                 5.8299
 Frc consts  --      8.5207                 6.2461                 9.1448
 IR Inten    --    299.0175               800.7941               407.4845

                     58                     59                     60
                      A                      A                      A
 Frequencies --   1659.0622              1683.9388              1709.5531
 Red. masses --      6.9426                 6.6266                 6.2271
 Frc consts  --     11.2590                11.0713                10.7226
 IR Inten    --     26.0878                49.0649               187.6520

                     61                     62                     63
                      A                      A                      A
 Frequencies --   1868.0289              3198.2025              3205.2474
 Red. masses --      1.0981                 1.0882                 1.0891
 Frc consts  --      2.2576                 6.5581                 6.5922
 IR Inten    --     86.9938                 3.2973                 8.9186

                     64                     65                     66
                      A                      A                      A
 Frequencies --   3211.4003              3221.2421              3225.7994
 Red. masses --      1.0862                 1.0906                 1.0937
 Frc consts  --      6.6001                 6.6677                 6.7052
 IR Inten    --      1.6745                 2.3841                17.0026

                     67                     68                     69
                      A                      A                      A
 Frequencies --   3230.8269              3236.2367              3237.8184
 Red. masses --      1.0958                 1.0986                 1.1000
 Frc consts  --      6.7394                 6.7788                 6.7943
 IR Inten    --      7.1873                17.9804                13.0393

 - Thermochemistry -
 -------------------
 Temperature   298.150 Kelvin.  Pressure   1.00000 Atm.
 Atom     1 has atomic number  6 and mass  12.00000

 Molecular mass:   227.04049 amu.
 Principal axes and moments of inertia in atomic units:
                           1         2         3
     Eigenvalues --  1265.456746242.684037508.14077
           X            0.70824   0.70597   0.00000
           Y           -0.70597   0.70824  -0.00001
           Z           -0.00001   0.00001   1.00000
 This molecule is an asymmetric top.
 Rotational symmetry number  1.
 Warning -- assumption of classical behavior for rotation
           may cause significant error
 Rotational temperatures (Kelvin)      0.06844     0.01387     0.01154
 Rotational constants (GHZ):           1.42616     0.28910     0.24037
    2 imaginary frequencies ignored.
 Zero-point vibrational energy     489058.6 (Joules/Mol)
                                  116.88781 (Kcal/Mol)
 Warning -- explicit consideration of  16 degrees of freedom as
           vibrations may cause significant error
 Vibrational temperatures:     94.98   218.62   265.83   285.71   349.14
          (Kelvin)            416.04   471.78   604.93   625.30   637.44
                              661.69   748.07   773.47   815.00   827.33
                              840.69   933.13   989.23  1047.39  1086.80
                             1105.92  1114.06  1121.55  1126.00  1198.70
                             1240.92  1265.06  1274.85  1368.23  1387.29
                             1402.15  1454.01  1461.10  1475.23  1515.14
                             1535.46  1596.81  1655.95  1668.40  1671.84
                             1695.58  1703.95  1818.37  1857.02  1892.76
                             1930.08  1986.77  1989.33  2029.61  2138.07
                             2154.31  2172.37  2267.85  2295.70  2347.60
                             2387.02  2422.81  2459.67  2687.68  4601.50
                             4611.64  4620.49  4634.65  4641.21  4648.44
                             4656.22  4658.50

 Zero-point correction=                           0.186273 (Hartree/Particle)
 Thermal correction to Energy=                    0.196580
 Thermal correction to Enthalpy=                  0.197524
 Thermal correction to Gibbs Free Energy=         0.149767
 Sum of electronic and zero-point Energies=          -1028.630225
 Sum of electronic and thermal Energies=             -1028.619918
 Sum of electronic and thermal Enthalpies=           -1028.618974
 Sum of electronic and thermal Free Energies=        -1028.666730

                     E (Thermal)             CV                S
                      KCal/Mol        Cal/Mol-Kelvin    Cal/Mol-Kelvin
 Total                  123.356             43.850            100.512
 Electronic               0.000              0.000              0.000
 Translational            0.889              2.981             42.162
 Rotational               0.889              2.981             32.450
 Vibrational            121.578             37.888             25.899
 Vibration     1          0.597              1.970              4.269
 Vibration     2          0.619              1.901              2.648
 Vibration     3          0.631              1.861              2.280
 Vibration     4          0.637              1.842              2.146
 Vibration     5          0.659              1.775              1.783
 Vibration     6          0.686              1.694              1.479
 Vibration     7          0.711              1.620              1.270
 Vibration     8          0.783              1.426              0.890
 Vibration     9          0.795              1.395              0.844
 Vibration    10          0.803              1.376              0.817
 Vibration    11          0.818              1.339              0.766
 Vibration    12          0.875              1.206              0.610
 Vibration    13          0.893              1.167              0.571
 Vibration    14          0.922              1.104              0.511
 Vibration    15          0.931              1.085              0.495
 Vibration    16          0.941              1.065              0.477

                           ! Non-Optimized Parameters !
 Normal termination of Gaussian 16 at Wed Oct 28 00:53:30 2020.
