 Gaussian 16, Revision C.01,
 Gaussian 16:  ES64L-G16RevC.01  3-Jul-2019

 ----------------------------------------------------------------------
 #p opt=addgic freq wb97xd/cc-pvdz nosymm int=ultrafine scrf=(solvent=C
 arbonTetraChloride)
 ----------------------------------------------------------------------

 ------------------------------------------------
 NM 2D-scan of HBT TD-WB97XD pVDZ in CTC Relaxed.
 ------------------------------------------------
 Symbolic Z-matrix:
 Charge =  0 Multiplicity = 1

 SCF Done:  E(RwB97XD) =  -1028.78748490     A.U. after   16 cycles
 SCF Done:  E(RwB97XD) =  -1028.80468723     A.U. after   14 cycles
 SCF Done:  E(RwB97XD) =  -1028.80431543     A.U. after   13 cycles
 SCF Done:  E(RwB97XD) =  -1028.80599007     A.U. after   12 cycles
 SCF Done:  E(RwB97XD) =  -1028.80601966     A.U. after   11 cycles
 SCF Done:  E(RwB97XD) =  -1028.80602098     A.U. after    9 cycles
 Optimization completed.
    -- Stationary point found.
 Normal termination of Gaussian 16 at Tue Oct 27 20:32:23 2020.

 --------------------------------------------------------------------
 #P Geom=AllCheck Guess=TCheck SCRF=Check GenChk RwB97XD/CC-pVDZ Freq
 --------------------------------------------------------------------

 Structure from the checkpoint file:  "config_10_1.chk"
 ------------------------------------------------
 NM 2D-scan of HBT TD-WB97XD pVDZ in CTC Relaxed.
 ------------------------------------------------
 Charge =  0 Multiplicity = 1

                          Input orientation:
 ---------------------------------------------------------------------
 Center     Atomic      Atomic             Coordinates (Angstroms)
 Number     Number       Type             X           Y           Z
 ---------------------------------------------------------------------
      1          6           0        1.765482   -3.264559   -0.000014
      2          6           0        1.012183   -2.089626    0.000001
      3          6           0        1.664181   -0.860919   -0.000008
      4          6           0        3.052339   -0.737356   -0.000028
      5          6           0        3.795468   -1.908541   -0.000041
      6          6           0        3.156461   -3.155844   -0.000035
      7          1           0        1.286803   -4.243806   -0.000011
      8          1           0        3.519454    0.247633   -0.000035
      9          1           0        4.884837   -1.857580   -0.000057
     10          1           0        3.756966   -4.066258   -0.000048
     11          7           0        0.773714    0.176296   -0.000006
     12         16           0       -0.752784   -1.826765    0.000021
     13          6           0       -1.429910    1.040769    0.000011
     14          6           0       -2.843711    0.927589   -0.000014
     15          6           0       -0.804476    2.371100    0.000043
     16          6           0       -3.661020    2.036606   -0.000006
     17          1           0       -3.291946   -0.070241   -0.000048
     18          6           0       -1.717582    3.489492    0.000073
     19          6           0       -3.077769    3.329306    0.000044
     20          1           0       -4.745084    1.921858   -0.000031
     21          1           0       -1.258897    4.479658    0.000122
     22          1           0       -3.725096    4.209825    0.000064
     23          6           0       -0.531020   -0.076756    0.000012
     24          8           0        0.442808    2.565519    0.000103
     25          1           0        1.041640    1.180566   -0.000039
 ---------------------------------------------------------------------

 SCF Done:  E(RwB97XD) =  -1028.80602098     A.U. after    1 cycles

 Alpha  occ. eigenvalues --  -89.10319 -19.21913 -14.50598 -10.41540 -10.36673
 Alpha  occ. eigenvalues --  -10.36337 -10.36074 -10.33415 -10.32756 -10.32501
 Alpha  occ. eigenvalues --  -10.32316 -10.31268 -10.31198 -10.30631 -10.29134
 Alpha  occ. eigenvalues --  -10.28556  -8.12244  -6.07138  -6.06751  -6.06252
 Alpha  occ. eigenvalues --   -1.13562  -1.10169  -0.98495  -0.94923  -0.92975
 Alpha  occ. eigenvalues --   -0.89332  -0.86281  -0.84075  -0.81864  -0.75847
 Alpha  occ. eigenvalues --   -0.72954  -0.71441  -0.69342  -0.67960  -0.64511
 Alpha  occ. eigenvalues --   -0.60826  -0.59731  -0.56814  -0.55901  -0.55796
 Alpha  occ. eigenvalues --   -0.54920  -0.53594  -0.52785  -0.50762  -0.49786
 Alpha  occ. eigenvalues --   -0.49108  -0.48092  -0.46648  -0.45561  -0.44872
 Alpha  occ. eigenvalues --   -0.44446  -0.42951  -0.41710  -0.40528  -0.36757
 Alpha  occ. eigenvalues --   -0.33520  -0.32276  -0.31626  -0.26573
 Alpha virt. eigenvalues --   -0.01264   0.03793   0.06284   0.06622   0.09062
 Alpha virt. eigenvalues --    0.10949   0.12092   0.14678   0.15950   0.17434
 Alpha virt. eigenvalues --    0.19162   0.20221   0.21305   0.21682   0.22892

 Mulliken charges:
               1
     1  C    0.008064
     2  C   -0.250756
     3  C    0.269600
     4  C   -0.010227
     5  C    0.013598
     6  C    0.000730
     7  H    0.026144
     8  H    0.033376
     9  H    0.027093
    10  H    0.026084
    11  N   -0.121390
    12  S    0.179722
    13  C   -0.146850
    14  C   -0.000487
    15  C    0.117172
    16  C   -0.032619
    17  H    0.000666
    18  C   -0.015493
    19  C    0.027105
    20  H    0.003414
    21  H    0.002220
    22  H    0.013142
    23  C    0.078335
    24  O   -0.392309
    25  H    0.143663
 Sum of Mulliken charges =  -0.00000

 Dipole moment (field-independent basis, Debye):
    X=              1.6364    Y=             -4.8632    Z=             -0.0003  Tot=              5.1311
 Quadrupole moment (field-independent basis, Debye-Ang):
   XX=            -82.4935   YY=            -93.7193   ZZ=           -104.0839
   XY=             -7.0375   XZ=             -0.0003   YZ=             -0.0003

  Exact polarizability:     287.103     -84.481     283.987      -0.001       0.003      63.061
 Approx polarizability:     267.766     -32.591     256.457      -0.000       0.002      82.134

                      1                      2                      3
                      A                      A                      A
 Frequencies --     34.7107                63.8446               116.4384
 Red. masses --      4.9863                 6.3395                 5.6775
 Frc consts  --      0.0035                 0.0152                 0.0454
 IR Inten    --      0.1546                 2.5649                 1.2492

                      4                      5                      6
                      A                      A                      A
 Frequencies --    135.1371               195.5007               236.0484
 Red. masses --      5.0962                 5.8108                 6.0256
 Frc consts  --      0.0548                 0.1309                 0.1978
 IR Inten    --      0.8907                 0.0013                 0.7098

                      7                      8                      9
                      A                      A                      A
 Frequencies --    268.9859               308.0247               334.4328
 Red. masses --      7.4579                 5.3365                 6.1843
 Frc consts  --      0.3179                 0.2983                 0.4075
 IR Inten    --      4.2910                 1.3245                 8.9434

                     10                     11                     12
                      A                      A                      A
 Frequencies --    400.5394               430.2853               447.9302
 Red. masses --     11.0388                 3.2193                 3.6179
 Frc consts  --      1.0434                 0.3512                 0.4277
 IR Inten    --      4.8942                 0.8946                10.4426

                     13                     14                     15
                      A                      A                      A
 Frequencies --    508.7040               533.1035               542.1100
 Red. masses --      8.6095                 2.9274                 8.8415
 Frc consts  --      1.3127                 0.4902                 1.5309
 IR Inten    --      7.4711                 5.8511                 7.4149

                     16                     17                     18
                      A                      A                      A
 Frequencies --    562.2520               566.8642               588.6026
 Red. masses --      3.6871                 6.9918                 6.8934
 Frc consts  --      0.6867                 1.3237                 1.4071
 IR Inten    --      0.0083                 0.7514                39.2216

                     19                     20                     21
                      A                      A                      A
 Frequencies --    637.9670               656.0876               700.6845
 Red. masses --      5.9941                 5.5978                 6.6430
 Frc consts  --      1.4374                 1.4197                 1.9216
 IR Inten    --      0.1063                 3.4237                34.0778

                     22                     23                     24
                      A                      A                      A
 Frequencies --    732.8476               750.2791               761.9838
 Red. masses --      8.2532                 2.5328                 1.5039
 Frc consts  --      2.6116                 0.8400                 0.5145
 IR Inten    --     52.5071                11.2938                47.3702

                     25                     26                     27
                      A                      A                      A
 Frequencies --    774.1495               776.4400               831.6815
 Red. masses --      2.0244                 1.7349                 5.8380
 Frc consts  --      0.7148                 0.6162                 2.3792
 IR Inten    --     46.1591                11.4438                20.8973

                     28                     29                     30
                      A                      A                      A
 Frequencies --    875.5868               879.9554               885.8900
 Red. masses --      1.5449                 1.4908                 4.0629
 Frc consts  --      0.6978                 0.6801                 1.8787
 IR Inten    --      0.5072                 1.7516                 4.4683

                     31                     32                     33
                      A                      A                      A
 Frequencies --    911.4502               953.7944               969.1840
 Red. masses --      1.1874                 4.9492                 1.3258
 Frc consts  --      0.5812                 2.6527                 0.7338
 IR Inten    --     83.9668                48.5856                 0.4064

                     34                     35                     36
                      A                      A                      A
 Frequencies --    971.0896              1014.6016              1015.6657
 Red. masses --      1.3588                 1.3045                 1.3024
 Frc consts  --      0.7549                 0.7912                 0.7916
 IR Inten    --      1.9131                 0.0434                 0.4644

                     37                     38                     39
                      A                      A                      A
 Frequencies --   1046.2399              1053.5094              1076.1709
 Red. masses --      2.2110                 2.0941                 3.8836
 Frc consts  --      1.4260                 1.3694                 2.6500
 IR Inten    --     11.9946                11.3380                27.0089

                     40                     41                     42
                      A                      A                      A
 Frequencies --   1115.3668              1151.9889              1158.2478
 Red. masses --      2.3333                 1.3188                 1.2001
 Frc consts  --      1.7103                 1.0312                 0.9486
 IR Inten    --    150.6732                 7.3228                62.4856

                     43                     44                     45
                      A                      A                      A
 Frequencies --   1181.9211              1196.1561              1267.5820
 Red. masses --      1.1433                 1.2781                 1.8128
 Frc consts  --      0.9410                 1.0775                 1.7161
 IR Inten    --      7.6759                20.6664                22.3783

                     46                     47                     48
                      A                      A                      A
 Frequencies --   1287.0642              1317.0151              1366.1316
 Red. masses --      1.5201                 2.8949                 3.2154
 Frc consts  --      1.4836                 2.9585                 3.5356
 IR Inten    --      4.4360                78.7773               129.5308

                     49                     50                     51
                      A                      A                      A
 Frequencies --   1379.2933              1392.4262              1419.0971
 Red. masses --      6.1592                 4.3507                 2.4245
 Frc consts  --      6.9038                 4.9699                 2.8767
 IR Inten    --     13.9475                60.5289                21.4776

                     52                     53                     54
                      A                      A                      A
 Frequencies --   1493.5257              1505.3482              1527.6069
 Red. masses --      2.6601                 2.7775                 3.2618
 Frc consts  --      3.4960                 3.7084                 4.4846
 IR Inten    --     26.3925               296.4775               212.1049

                     55                     56                     57
                      A                      A                      A
 Frequencies --   1572.3503              1614.4943              1616.3621
 Red. masses --      4.5094                 4.9648                 6.5453
 Frc consts  --      6.5685                 7.6248                10.0753
 IR Inten    --    767.0366               642.1043               209.9659

                     58                     59                     60
                      A                      A                      A
 Frequencies --   1677.3996              1685.1283              1713.1514
 Red. masses --      7.1590                 7.1711                 5.9992
 Frc consts  --     11.8680                11.9978                10.3737
 IR Inten    --      3.3603               235.0525               122.5644

                     61                     62                     63
                      A                      A                      A
 Frequencies --   3032.8535              3179.9378              3193.3862
 Red. masses --      1.0993                 1.0894                 1.0881
 Frc consts  --      5.9575                 6.4904                 6.5379
 IR Inten    --    477.8148                 5.8027                13.5226

                     64                     65                     66
                      A                      A                      A
 Frequencies --   3217.3140              3221.2198              3226.5692
 Red. masses --      1.0863                 1.0940                 1.0907
 Frc consts  --      6.6249                 6.6879                 6.6902
 IR Inten    --      1.2013                19.7532                 2.3288

                     67                     68                     69
                      A                      A                      A
 Frequencies --   3230.1332              3235.1687              3242.3858
 Red. masses --      1.0975                 1.0963                 1.1001
 Frc consts  --      6.7468                 6.7603                 6.8144
 IR Inten    --     21.7946                 5.6508                11.2149

 - Thermochemistry -
 -------------------
 Temperature   298.150 Kelvin.  Pressure   1.00000 Atm.
 Atom     1 has atomic number  6 and mass  12.00000

 Molecular mass:   227.04049 amu.
 Principal axes and moments of inertia in atomic units:
                           1         2         3
     Eigenvalues --  1326.960316296.596967623.55726
           X           -0.70443   0.70977  -0.00000
           Y            0.70977   0.70443  -0.00001
           Z            0.00001   0.00001   1.00000
 This molecule is an asymmetric top.
 Rotational symmetry number  1.
 Warning -- assumption of classical behavior for rotation
           may cause significant error
 Rotational temperatures (Kelvin)      0.06527     0.01376     0.01136
 Rotational constants (GHZ):           1.36006     0.28662     0.23673
 Zero-point vibrational energy     496243.3 (Joules/Mol)
                                  118.60499 (Kcal/Mol)
 Warning -- explicit consideration of  18 degrees of freedom as
           vibrations may cause significant error
 Vibrational temperatures:     49.94    91.86   167.53   194.43   281.28
          (Kelvin)            339.62   387.01   443.18   481.17   576.29
                              619.08   644.47   731.91   767.02   779.98
                              808.96   815.59   846.87   917.89   943.96
                             1008.13  1054.40  1079.48  1096.32  1113.83
                             1117.12  1196.60  1259.77  1266.06  1274.60
                             1311.37  1372.30  1394.44  1397.18  1459.79
                             1461.32  1505.31  1515.77  1548.37  1604.76
                             1657.46  1666.46  1700.52  1721.00  1823.77
                             1851.80  1894.89  1965.56  1984.50  2003.39
                             2041.76  2148.85  2165.86  2197.89  2262.26
                             2322.90  2325.58  2413.40  2424.52  2464.84
                             4363.60  4575.22  4594.57  4629.00  4634.62
                             4642.31  4647.44  4654.69  4665.07

 Zero-point correction=                           0.189009 (Hartree/Particle)
 Thermal correction to Energy=                    0.200824
 Thermal correction to Enthalpy=                  0.201768
 Thermal correction to Gibbs Free Energy=         0.150001
 Sum of electronic and zero-point Energies=          -1028.617012
 Sum of electronic and thermal Energies=             -1028.605197
 Sum of electronic and thermal Enthalpies=           -1028.604253
 Sum of electronic and thermal Free Energies=        -1028.656020

                     E (Thermal)             CV                S
                      KCal/Mol        Cal/Mol-Kelvin    Cal/Mol-Kelvin
 Total                  126.019             47.918            108.952
 Electronic               0.000              0.000              0.000
 Translational            0.889              2.981             42.162
 Rotational               0.889              2.981             32.521
 Vibrational            124.241             41.956             34.268
 Vibration     1          0.594              1.983              5.540
 Vibration     2          0.597              1.972              4.335
 Vibration     3          0.608              1.936              3.159
 Vibration     4          0.613              1.918              2.872
 Vibration     5          0.636              1.846              2.175
 Vibration     6          0.655              1.786              1.832
 Vibration     7          0.673              1.730              1.603
 Vibration     8          0.698              1.658              1.373
 Vibration     9          0.716              1.607              1.239
 Vibration    10          0.766              1.469              0.961
 Vibration    11          0.791              1.404              0.858
 Vibration    12          0.807              1.365              0.802
 Vibration    13          0.864              1.231              0.637
 Vibration    14          0.888              1.177              0.580
 Vibration    15          0.897              1.157              0.561
 Vibration    16          0.918              1.113              0.519
 Vibration    17          0.923              1.103              0.510
 Vibration    18          0.946              1.056              0.470

 Optimization completed.
    -- Stationary point found.
 Normal termination of Gaussian 16 at Tue Oct 27 20:38:45 2020.
