 Gaussian 16, Revision C.01,
 Gaussian 16:  ES64L-G16RevC.01  3-Jul-2019

 ----------------------------------------------------------------------
 #p opt=addgic freq wb97xd/cc-pvdz nosymm int=ultrafine scrf=(solvent=C
 arbonTetraChloride)
 ----------------------------------------------------------------------

 ------------------------------------------------
 NM 2D-scan of HBT TD-WB97XD pVDZ in CTC Relaxed.
 ------------------------------------------------
 Symbolic Z-matrix:
 Charge =  0 Multiplicity = 1

 SCF Done:  E(RwB97XD) =  -1028.74764982     A.U. after   15 cycles
 SCF Done:  E(RwB97XD) =  -1028.81463541     A.U. after   13 cycles
 SCF Done:  E(RwB97XD) =  -1028.82015635     A.U. after   13 cycles
 SCF Done:  E(RwB97XD) =  -1028.82286045     A.U. after   13 cycles
 SCF Done:  E(RwB97XD) =  -1028.82297732     A.U. after   11 cycles
 SCF Done:  E(RwB97XD) =  -1028.82300055     A.U. after   10 cycles
 SCF Done:  E(RwB97XD) =  -1028.82300264     A.U. after    9 cycles
 SCF Done:  E(RwB97XD) =  -1028.82300271     A.U. after    7 cycles
 Optimization completed.
    -- Stationary point found.
 Normal termination of Gaussian 16 at Tue Oct 27 21:17:27 2020.

 --------------------------------------------------------------------
 #P Geom=AllCheck Guess=TCheck SCRF=Check GenChk RwB97XD/CC-pVDZ Freq
 --------------------------------------------------------------------

 Structure from the checkpoint file:  "config_3_3.chk"
 ------------------------------------------------
 NM 2D-scan of HBT TD-WB97XD pVDZ in CTC Relaxed.
 ------------------------------------------------
 Charge =  0 Multiplicity = 1

                          Input orientation:
 ---------------------------------------------------------------------
 Center     Atomic      Atomic             Coordinates (Angstroms)
 Number     Number       Type             X           Y           Z
 ---------------------------------------------------------------------
      1          6           0        1.744505   -3.309921    0.000110
      2          6           0        0.979313   -2.133485    0.000038
      3          6           0        1.637308   -0.891263   -0.000136
      4          6           0        3.031064   -0.784314   -0.000259
      5          6           0        3.780636   -1.943855   -0.000196
      6          6           0        3.135033   -3.193213   -0.000008
      7          1           0        1.276658   -4.294938    0.000223
      8          1           0        3.485153    0.207035   -0.000390
      9          1           0        4.870320   -1.894903   -0.000286
     10          1           0        3.736972   -4.103491    0.000032
     11          7           0        0.829421    0.209998   -0.000146
     12         16           0       -0.765560   -1.842320    0.000021
     13          6           0       -1.394254    1.060935    0.000063
     14          6           0       -2.798768    0.913496   -0.000005
     15          6           0       -0.880606    2.398005    0.000125
     16          6           0       -3.650732    2.007922   -0.000096
     17          1           0       -3.223745   -0.093436   -0.000042
     18          6           0       -1.755804    3.491655    0.000037
     19          6           0       -3.121585    3.307050   -0.000088
     20          1           0       -4.730240    1.855368   -0.000182
     21          1           0       -1.305395    4.484621    0.000117
     22          1           0       -3.786096    4.172926   -0.000139
     23          6           0       -0.439230   -0.065343    0.000048
     24          8           0        0.412483    2.749869    0.000480
     25          1           0        0.938106    1.924868    0.000774
 ---------------------------------------------------------------------

 SCF Done:  E(RwB97XD) =  -1028.82300271     A.U. after    1 cycles

 Alpha  occ. eigenvalues --  -89.08983 -19.28049 -14.46599 -10.39710 -10.37417
 Alpha  occ. eigenvalues --  -10.35106 -10.34572 -10.32896 -10.32559 -10.31888
 Alpha  occ. eigenvalues --  -10.31669 -10.31473 -10.31417 -10.31238 -10.30194
 Alpha  occ. eigenvalues --  -10.29853  -8.10857  -6.05733  -6.05375  -6.04893
 Alpha  occ. eigenvalues --   -1.16468  -1.09026  -0.97173  -0.95973  -0.91120
 Alpha  occ. eigenvalues --   -0.88505  -0.85191  -0.84409  -0.82958  -0.75478
 Alpha  occ. eigenvalues --   -0.71242  -0.70601  -0.69463  -0.68076  -0.62923
 Alpha  occ. eigenvalues --   -0.60326  -0.58612  -0.58312  -0.56280  -0.54434
 Alpha  occ. eigenvalues --   -0.53870  -0.53151  -0.52381  -0.50996  -0.50256
 Alpha  occ. eigenvalues --   -0.49327  -0.47803  -0.45803  -0.45260  -0.44902
 Alpha  occ. eigenvalues --   -0.43690  -0.42841  -0.42656  -0.39703  -0.37097
 Alpha  occ. eigenvalues --   -0.36124  -0.32184  -0.31641  -0.28983
 Alpha virt. eigenvalues --   -0.00447   0.04782   0.06872   0.07215   0.07322
 Alpha virt. eigenvalues --    0.11480   0.12733   0.15096   0.15826   0.17689
 Alpha virt. eigenvalues --    0.18993   0.20483   0.21719   0.22461   0.22763

 Mulliken charges:
               1
     1  C   -0.001662
     2  C   -0.217234
     3  C    0.240627
     4  C   -0.012537
     5  C    0.008491
     6  C   -0.002340
     7  H    0.021379
     8  H    0.017551
     9  H    0.019500
    10  H    0.021756
    11  N   -0.328704
    12  S    0.138422
    13  C   -0.079549
    14  C   -0.014773
    15  C    0.072091
    16  C   -0.009367
    17  H    0.008762
    18  C    0.016822
    19  C    0.019465
    20  H    0.010220
    21  H    0.016088
    22  H    0.017750
    23  C    0.076237
    24  O   -0.195102
    25  H    0.156106
 Sum of Mulliken charges =  -0.00000

 Dipole moment (field-independent basis, Debye):
    X=              0.2438    Y=             -2.2020    Z=              0.0003  Tot=              2.2155
 Quadrupole moment (field-independent basis, Debye-Ang):
   XX=            -82.6786   YY=            -89.8346   ZZ=           -104.2685
   XY=             -6.9631   XZ=              0.0007   YZ=             -0.0004

  Exact polarizability:     275.684     -65.425     257.125      -0.001      -0.002      63.155
 Approx polarizability:     263.850     -22.414     243.916      -0.000      -0.004      82.328

                      1                      2                      3
                      A                      A                      A
 Frequencies --     43.2200                51.9914               116.3416
 Red. masses --      5.6923                 5.7669                 5.6829
 Frc consts  --      0.0063                 0.0092                 0.0453
 IR Inten    --      0.0983                 1.1386                 0.9554

                      4                      5                      6
                      A                      A                      A
 Frequencies --    150.6003               199.5053               244.7573
 Red. masses --      4.8398                 5.6842                 5.8250
 Frc consts  --      0.0647                 0.1333                 0.2056
 IR Inten    --      0.0006                 0.3745                 0.0816

                      7                      8                      9
                      A                      A                      A
 Frequencies --    265.0058               303.1360               324.3669
 Red. masses --      7.9881                 6.4392                 5.0532
 Frc consts  --      0.3305                 0.3486                 0.3133
 IR Inten    --      1.2894                 5.8751                 0.5470

                     10                     11                     12
                      A                      A                      A
 Frequencies --    397.0411               439.6348               468.3476
 Red. masses --      8.8962                 3.1604                 3.7437
 Frc consts  --      0.8263                 0.3599                 0.4838
 IR Inten    --      0.3239                 2.0701                 8.8215

                     13                     14                     15
                      A                      A                      A
 Frequencies --    505.3695               513.1856               539.1990
 Red. masses --      4.6868                 8.7709                 3.4698
 Frc consts  --      0.7052                 1.3610                 0.5944
 IR Inten    --      4.6904                 0.0745                 4.0463

                     16                     17                     18
                      A                      A                      A
 Frequencies --    546.4522               573.0519               595.0704
 Red. masses --      8.6884                 3.6956                 7.6930
 Frc consts  --      1.5286                 0.7150                 1.6050
 IR Inten    --      2.8987                 0.0149                 6.1495

                     19                     20                     21
                      A                      A                      A
 Frequencies --    641.5057               677.5705               689.0969
 Red. masses --      4.7736                 6.5391                 8.3418
 Frc consts  --      1.1574                 1.7688                 2.3338
 IR Inten    --      2.3976                22.9512                33.6157

                     22                     23                     24
                      A                      A                      A
 Frequencies --    719.6316               724.4480               754.3572
 Red. masses --      7.8076                 1.2882                 1.9261
 Frc consts  --      2.3823                 0.3983                 0.6458
 IR Inten    --      1.9849                65.7451                18.9243

                     25                     26                     27
                      A                      A                      A
 Frequencies --    773.3451               779.3980               789.4311
 Red. masses --      2.1878                 1.4987                 1.8752
 Frc consts  --      0.7709                 0.5364                 0.6886
 IR Inten    --     43.4480                32.8131                45.1193

                     28                     29                     30
                      A                      A                      A
 Frequencies --    838.5721               885.2383               886.2257
 Red. masses --      6.0941                 1.5080                 1.4601
 Frc consts  --      2.5249                 0.6963                 0.6756
 IR Inten    --     25.0580                 5.4863                 0.0791

                     31                     32                     33
                      A                      A                      A
 Frequencies --    897.6645               972.7354               975.1533
 Red. masses --      6.4272                 1.3550                 1.3640
 Frc consts  --      3.0514                 0.7554                 0.7642
 IR Inten    --      0.6655                 1.2620                 1.3820

                     34                     35                     36
                      A                      A                      A
 Frequencies --    975.2290              1011.3290              1014.7072
 Red. masses --      7.5895                 1.2996                 1.3058
 Frc consts  --      4.2528                 0.7832                 0.7921
 IR Inten    --     72.5447                 0.3005                 0.0091

                     37                     38                     39
                      A                      A                      A
 Frequencies --   1049.7616              1069.0472              1089.2425
 Red. masses --      2.0431                 2.0334                 4.7305
 Frc consts  --      1.3265                 1.3692                 3.3068
 IR Inten    --      8.0177                13.8149                 5.8627

                     40                     41                     42
                      A                      A                      A
 Frequencies --   1143.7642              1149.8400              1174.9842
 Red. masses --      1.5612                 1.2690                 1.1190
 Frc consts  --      1.2033                 0.9885                 0.9102
 IR Inten    --      8.8934                 5.8030                49.5499

                     43                     44                     45
                      A                      A                      A
 Frequencies --   1182.7079              1236.5660              1278.8207
 Red. masses --      1.1808                 1.7647                 2.1864
 Frc consts  --      0.9731                 1.5899                 2.1067
 IR Inten    --      0.1329               167.0372                83.8051

                     46                     47                     48
                      A                      A                      A
 Frequencies --   1281.5838              1303.7573              1355.3934
 Red. masses --      1.5722                 5.1156                 3.1833
 Frc consts  --      1.5215                 5.1232                 3.4456
 IR Inten    --      3.6777                18.2012                16.5964

                     49                     50                     51
                      A                      A                      A
 Frequencies --   1368.0181              1378.4524              1430.2070
 Red. masses --      6.6590                 2.9939                 1.7058
 Frc consts  --      7.3425                 3.3518                 2.0558
 IR Inten    --     17.9409                 6.0083                80.5233

                     52                     53                     54
                      A                      A                      A
 Frequencies --   1490.4462              1495.5359              1517.2497
 Red. masses --      2.6263                 3.1925                 3.3811
 Frc consts  --      3.4374                 4.2070                 4.5859
 IR Inten    --     20.5011                23.3725               129.5873

                     55                     56                     57
                      A                      A                      A
 Frequencies --   1538.9030              1602.4409              1643.0486
 Red. masses --      2.6919                 8.4443                 6.1326
 Frc consts  --      3.7561                12.7755                 9.7543
 IR Inten    --     32.4183               203.3066                23.1941

                     58                     59                     60
                      A                      A                      A
 Frequencies --   1650.4843              1683.6538              1708.3629
 Red. masses --      5.4651                 6.8848                 6.4453
 Frc consts  --      8.7715                11.4987                11.0829
 IR Inten    --     98.5354                 6.6303                93.2949

                     61                     62                     63
                      A                      A                      A
 Frequencies --   3193.1161              3208.5205              3210.6334
 Red. masses --      1.0892                 1.0884                 1.0861
 Frc consts  --      6.5434                 6.6013                 6.5961
 IR Inten    --      3.5360                 6.3078                 0.5372

                     64                     65                     66
                      A                      A                      A
 Frequencies --   3221.2635              3228.3115              3230.0934
 Red. masses --      1.0901                 1.0939                 1.0959
 Frc consts  --      6.6645                 6.7170                 6.7368
 IR Inten    --      3.5765                12.1121                13.7866

                     67                     68                     69
                      A                      A                      A
 Frequencies --   3235.5644              3238.1025              3501.8994
 Red. masses --      1.0995                 1.1002                 1.0661
 Frc consts  --      6.7815                 6.7965                 7.7033
 IR Inten    --     16.7903                13.5238               729.4502

 - Thermochemistry -
 -------------------
 Temperature   298.150 Kelvin.  Pressure   1.00000 Atm.
 Atom     1 has atomic number  6 and mass  12.00000

 Molecular mass:   227.04049 amu.
 Principal axes and moments of inertia in atomic units:
                           1         2         3
     Eigenvalues --  1354.324726356.559067710.88374
           X           -0.69493   0.71907  -0.00000
           Y            0.71907   0.69493  -0.00002
           Z            0.00001   0.00002   1.00000
 This molecule is an asymmetric top.
 Rotational symmetry number  1.
 Warning -- assumption of classical behavior for rotation
           may cause significant error
 Rotational temperatures (Kelvin)      0.06395     0.01363     0.01123
 Rotational constants (GHZ):           1.33258     0.28392     0.23405
 Zero-point vibrational energy     498673.5 (Joules/Mol)
                                  119.18582 (Kcal/Mol)
 Warning -- explicit consideration of  18 degrees of freedom as
           vibrations may cause significant error
 Vibrational temperatures:     62.18    74.80   167.39   216.68   287.04
          (Kelvin)            352.15   381.28   436.15   466.69   571.25
                              632.54   673.85   727.11   738.36   775.79
                              786.22   824.49   856.17   922.98   974.87
                              991.46  1035.39  1042.32  1085.35  1112.67
                             1121.38  1135.82  1206.52  1273.66  1275.08
                             1291.54  1399.55  1403.03  1403.14  1455.08
                             1459.94  1510.37  1538.12  1567.18  1645.62
                             1654.36  1690.54  1701.65  1779.14  1839.94
                             1843.91  1875.82  1950.11  1968.27  1983.29
                             2057.75  2144.42  2151.74  2182.98  2214.14
                             2305.56  2363.98  2374.68  2422.40  2457.95
                             4594.18  4616.35  4619.39  4634.68  4644.82
                             4647.38  4655.26  4658.91  5038.45

 Zero-point correction=                           0.189935 (Hartree/Particle)
 Thermal correction to Energy=                    0.201752
 Thermal correction to Enthalpy=                  0.202696
 Thermal correction to Gibbs Free Energy=         0.150998
 Sum of electronic and zero-point Energies=          -1028.633068
 Sum of electronic and thermal Energies=             -1028.621251
 Sum of electronic and thermal Enthalpies=           -1028.620307
 Sum of electronic and thermal Free Energies=        -1028.672005

                     E (Thermal)             CV                S
                      KCal/Mol        Cal/Mol-Kelvin    Cal/Mol-Kelvin
 Total                  126.601             48.026            108.808
 Electronic               0.000              0.000              0.000
 Translational            0.889              2.981             42.162
 Rotational               0.889              2.981             32.562
 Vibrational            124.824             42.065             34.083
 Vibration     1          0.595              1.980              5.106
 Vibration     2          0.596              1.977              4.740
 Vibration     3          0.608              1.936              3.160
 Vibration     4          0.618              1.902              2.665
 Vibration     5          0.638              1.841              2.138
 Vibration     6          0.660              1.771              1.768
 Vibration     7          0.671              1.737              1.629
 Vibration     8          0.695              1.668              1.400
 Vibration     9          0.709              1.627              1.288
 Vibration    10          0.764              1.476              0.974
 Vibration    11          0.800              1.384              0.828
 Vibration    12          0.826              1.320              0.742
 Vibration    13          0.861              1.238              0.645
 Vibration    14          0.868              1.221              0.626
 Vibration    15          0.894              1.163              0.567
 Vibration    16          0.902              1.147              0.552
 Vibration    17          0.929              1.090              0.498
 Vibration    18          0.953              1.042              0.458

 Optimization completed.
    -- Stationary point found.
 Normal termination of Gaussian 16 at Tue Oct 27 21:24:29 2020.
