 Gaussian 16, Revision C.01,
 Gaussian 16:  ES64L-G16RevC.01  3-Jul-2019

 ----------------------------------------------------------------------
 #p opt=addgic freq wb97xd/cc-pvdz nosymm int=ultrafine scrf=(solvent=C
 arbonTetraChloride)
 ----------------------------------------------------------------------

 ------------------------------------------------
 NM 2D-scan of HBT TD-WB97XD pVDZ in CTC Relaxed.
 ------------------------------------------------
 Symbolic Z-matrix:
 Charge =  0 Multiplicity = 1

 SCF Done:  E(RwB97XD) =  -1028.81348400     A.U. after   15 cycles
 SCF Done:  E(RwB97XD) =  -1028.82011707     A.U. after   13 cycles
 SCF Done:  E(RwB97XD) =  -1028.82165187     A.U. after   13 cycles
 SCF Done:  E(RwB97XD) =  -1028.82187962     A.U. after   12 cycles
 SCF Done:  E(RwB97XD) =  -1028.82193642     A.U. after   10 cycles
 SCF Done:  E(RwB97XD) =  -1028.82194288     A.U. after   10 cycles
 Optimization completed.
    -- Stationary point found.
 Normal termination of Gaussian 16 at Tue Oct 27 23:21:35 2020.

 --------------------------------------------------------------------
 #P Geom=AllCheck Guess=TCheck SCRF=Check GenChk RwB97XD/CC-pVDZ Freq
 --------------------------------------------------------------------

 Structure from the checkpoint file:  "config_6_10.chk"
 ------------------------------------------------
 NM 2D-scan of HBT TD-WB97XD pVDZ in CTC Relaxed.
 ------------------------------------------------
 Charge =  0 Multiplicity = 1

                          Input orientation:
 ---------------------------------------------------------------------
 Center     Atomic      Atomic             Coordinates (Angstroms)
 Number     Number       Type             X           Y           Z
 ---------------------------------------------------------------------
      1          6           0        1.630931   -3.255139   -0.000034
      2          6           0        1.005391   -2.011071   -0.000020
      3          6           0        1.731401   -0.813227   -0.000009
      4          6           0        3.131127   -0.850026   -0.000012
      5          6           0        3.758255   -2.092117   -0.000024
      6          6           0        3.018928   -3.284139   -0.000035
      7          1           0        1.047026   -4.175737   -0.000042
      8          1           0        3.706332    0.076226   -0.000004
      9          1           0        4.848167   -2.138890   -0.000025
     10          1           0        3.537229   -4.243842   -0.000044
     11          7           0        0.907053    0.300261    0.000001
     12         16           0       -0.715935   -1.679362   -0.000012
     13          6           0       -1.368375    1.078712    0.000018
     14          6           0       -2.744323    0.820252    0.000019
     15          6           0       -0.867601    2.412401    0.000031
     16          6           0       -3.662313    1.858768    0.000030
     17          1           0       -3.095351   -0.214973    0.000010
     18          6           0       -1.826015    3.456486    0.000038
     19          6           0       -3.186401    3.177675    0.000037
     20          1           0       -4.732492    1.651986    0.000031
     21          1           0       -1.464741    4.485880    0.000045
     22          1           0       -3.898571    4.005763    0.000043
     23          6           0       -0.376049    0.021343    0.000003
     24          8           0        0.423269    2.637932    0.000033
     25          1           0        0.910455    1.663122    0.000019
 ---------------------------------------------------------------------

 SCF Done:  E(RwB97XD) =  -1028.82194288     A.U. after    1 cycles

 Alpha  occ. eigenvalues --  -89.09104 -19.25705 -14.47722 -10.39812 -10.36898
 Alpha  occ. eigenvalues --  -10.35618 -10.35060 -10.32569 -10.32150 -10.31865
 Alpha  occ. eigenvalues --  -10.31812 -10.31666 -10.31568 -10.31209 -10.29873
 Alpha  occ. eigenvalues --  -10.29740  -8.11192  -6.06044  -6.05678  -6.05239
 Alpha  occ. eigenvalues --   -1.15007  -1.09521  -0.97583  -0.95945  -0.92212
 Alpha  occ. eigenvalues --   -0.88753  -0.85727  -0.84124  -0.83037  -0.75642
 Alpha  occ. eigenvalues --   -0.71524  -0.70696  -0.69225  -0.68263  -0.63409
 Alpha  occ. eigenvalues --   -0.60839  -0.59205  -0.57995  -0.56148  -0.54699
 Alpha  occ. eigenvalues --   -0.54543  -0.53487  -0.52616  -0.51028  -0.49926
 Alpha  occ. eigenvalues --   -0.49667  -0.47141  -0.46258  -0.45292  -0.45152
 Alpha  occ. eigenvalues --   -0.44084  -0.42994  -0.42458  -0.40169  -0.36310
 Alpha  occ. eigenvalues --   -0.35702  -0.32543  -0.31573  -0.28496
 Alpha virt. eigenvalues --   -0.00634   0.04535   0.06737   0.07581   0.07674
 Alpha virt. eigenvalues --    0.11172   0.14434   0.15044   0.16603   0.17881
 Alpha virt. eigenvalues --    0.19068   0.20864   0.21757   0.22410   0.22722

 Mulliken charges:
               1
     1  C    0.015291
     2  C   -0.228331
     3  C    0.257346
     4  C   -0.013421
     5  C    0.006124
     6  C    0.003147
     7  H    0.020234
     8  H    0.023709
     9  H    0.022562
    10  H    0.023040
    11  N   -0.325578
    12  S    0.163713
    13  C   -0.078218
    14  C   -0.021700
    15  C    0.095691
    16  C   -0.014705
    17  H    0.011260
    18  C   -0.008485
    19  C    0.022028
    20  H    0.007394
    21  H    0.011774
    22  H    0.017139
    23  C    0.080008
    24  O   -0.277799
    25  H    0.187777
 Sum of Mulliken charges =  -0.00000

 Dipole moment (field-independent basis, Debye):
    X=              0.4133    Y=             -3.4463    Z=             -0.0000  Tot=              3.4710
 Quadrupole moment (field-independent basis, Debye-Ang):
   XX=            -82.6808   YY=            -91.1557   ZZ=           -103.9822
   XY=             -7.2089   XZ=             -0.0001   YZ=              0.0001

  Exact polarizability:     276.532     -70.349     258.768      -0.001       0.002      62.877
 Approx polarizability:     263.247     -24.869     244.046      -0.001       0.002      82.151

                      1                      2                      3
                      A                      A                      A
 Frequencies --     20.3551                65.9215               123.2121
 Red. masses --      5.2838                 6.1420                 5.4758
 Frc consts  --      0.0013                 0.0157                 0.0490
 IR Inten    --      0.0283                 1.3888                 8.4861

                      4                      5                      6
                      A                      A                      A
 Frequencies --    152.7193               197.5537               243.4612
 Red. masses --      5.0836                 6.0476                 5.7203
 Frc consts  --      0.0699                 0.1391                 0.1998
 IR Inten    --      0.3461                 0.4040                 0.1490

                      7                      8                      9
                      A                      A                      A
 Frequencies --    274.8817               327.3567               329.1286
 Red. masses --      7.2115                 5.1880                 5.2146
 Frc consts  --      0.3210                 0.3276                 0.3328
 IR Inten    --      2.7904                 0.2576                56.1900

                     10                     11                     12
                      A                      A                      A
 Frequencies --    419.5917               435.0093               460.9316
 Red. masses --     10.3709                 3.1095                 3.6077
 Frc consts  --      1.0758                 0.3467                 0.4516
 IR Inten    --      1.0558                 1.9136                 8.3219

                     13                     14                     15
                      A                      A                      A
 Frequencies --    501.0135               519.8109               538.8136
 Red. masses --      4.9425                 7.8460                 3.4140
 Frc consts  --      0.7310                 1.2491                 0.5840
 IR Inten    --     68.5665                16.0001                 3.5767

                     16                     17                     18
                      A                      A                      A
 Frequencies --    562.8410               574.4418               588.9755
 Red. masses --      7.0757                 3.6837                 7.7019
 Frc consts  --      1.3207                 0.7162                 1.5741
 IR Inten    --     13.2955                 0.0871                 1.5757

                     19                     20                     21
                      A                      A                      A
 Frequencies --    648.8359               688.4165               724.4249
 Red. masses --      6.4401                 6.2966                 6.5733
 Frc consts  --      1.5974                 1.7582                 2.0324
 IR Inten    --      0.0098                14.3920                27.9586

                     22                     23                     24
                      A                      A                      A
 Frequencies --    755.4978               768.8699               771.5229
 Red. masses --      2.1229                 2.2246                 9.6135
 Frc consts  --      0.7139                 0.7748                 3.3715
 IR Inten    --     23.2368                13.6000                20.0574

                     25                     26                     27
                      A                      A                      A
 Frequencies --    775.5394               783.6418               854.1283
 Red. masses --      1.6721                 1.8276                 6.0472
 Frc consts  --      0.5926                 0.6612                 2.5993
 IR Inten    --     48.8203                42.2604                13.6150

                     28                     29                     30
                      A                      A                      A
 Frequencies --    881.4700               885.8938               911.5304
 Red. masses --      1.5919                 1.4033                 6.4558
 Frc consts  --      0.7287                 0.6489                 3.1604
 IR Inten    --      5.8062                 0.4049                20.3323

                     31                     32                     33
                      A                      A                      A
 Frequencies --    967.5856               974.9743              1006.8848
 Red. masses --      1.3561                 1.3633                 7.0776
 Frc consts  --      0.7480                 0.7635                 4.2276
 IR Inten    --      1.0905                 1.2174                84.6091

                     34                     35                     36
                      A                      A                      A
 Frequencies --   1010.5034              1016.1630              1053.6258
 Red. masses --      1.3020                 1.3054                 2.0197
 Frc consts  --      0.7833                 0.7942                 1.3210
 IR Inten    --      0.2454                 0.0002                12.6790

                     37                     38                     39
                      A                      A                      A
 Frequencies --   1066.1632              1102.5406              1122.3459
 Red. masses --      1.9039                 3.8433                 1.0588
 Frc consts  --      1.2751                 2.7526                 0.7858
 IR Inten    --      6.3718                 5.6745                70.0624

                     40                     41                     42
                      A                      A                      A
 Frequencies --   1145.2078              1156.3042              1165.7108
 Red. masses --      1.5201                 1.3939                 1.3582
 Frc consts  --      1.1746                 1.0981                 1.0874
 IR Inten    --     87.4860                 3.5472                 3.7815

                     43                     44                     45
                      A                      A                      A
 Frequencies --   1184.9716              1214.1303              1263.6920
 Red. masses --      1.2002                 1.5982                 2.0675
 Frc consts  --      0.9930                 1.3881                 1.9453
 IR Inten    --     10.1138               391.9962                57.1693

                     46                     47                     48
                      A                      A                      A
 Frequencies --   1289.9971              1314.5762              1359.3675
 Red. masses --      1.5197                 3.2621                 3.6236
 Frc consts  --      1.4900                 3.3214                 3.9452
 IR Inten    --      0.7237               276.3437                 3.9438

                     49                     50                     51
                      A                      A                      A
 Frequencies --   1381.4542              1384.2165              1425.3199
 Red. masses --      4.3737                 4.8891                 2.5185
 Frc consts  --      4.9178                 5.5194                 3.0145
 IR Inten    --     12.6670                16.3776                62.3448

                     52                     53                     54
                      A                      A                      A
 Frequencies --   1490.7653              1499.1496              1517.4718
 Red. masses --      2.7316                 2.7869                 3.5751
 Frc consts  --      3.5767                 3.6904                 4.8505
 IR Inten    --     28.0702                20.8924                60.0718

                     55                     56                     57
                      A                      A                      A
 Frequencies --   1576.7767              1609.9388              1650.0328
 Red. masses --      6.2042                 3.8688                 5.0302
 Frc consts  --      9.0882                 5.9081                 8.0691
 IR Inten    --    295.2095               121.4324               690.8263

                     58                     59                     60
                      A                      A                      A
 Frequencies --   1662.4606              1693.2248              1724.8374
 Red. masses --      6.4098                 6.3130                 2.9200
 Frc consts  --     10.4375                10.6640                 5.1183
 IR Inten    --    173.1133               262.6347               539.1235

                     61                     62                     63
                      A                      A                      A
 Frequencies --   1903.2404              3194.7280              3203.7527
 Red. masses --      1.1296                 1.0891                 1.0887
 Frc consts  --      2.4107                 6.5493                 6.5841
 IR Inten    --    457.4831                 4.0967                 8.0212

                     64                     65                     66
                      A                      A                      A
 Frequencies --   3214.2492              3225.1329              3226.4837
 Red. masses --      1.0863                 1.0908                 1.0938
 Frc consts  --      6.6123                 6.6848                 6.7087
 IR Inten    --      1.9367                 3.5412                14.9355

                     67                     68                     69
                      A                      A                      A
 Frequencies --   3235.6372              3236.6232              3241.3921
 Red. masses --      1.0960                 1.0981                 1.0996
 Frc consts  --      6.7606                 6.7775                 6.8070
 IR Inten    --      8.3894                17.4530                12.4456

 - Thermochemistry -
 -------------------
 Temperature   298.150 Kelvin.  Pressure   1.00000 Atm.
 Atom     1 has atomic number  6 and mass  12.00000

 Molecular mass:   227.04049 amu.
 Principal axes and moments of inertia in atomic units:
                           1         2         3
     Eigenvalues --  1284.573966260.023447544.59739
           X           -0.70666   0.70755   0.00000
           Y            0.70755   0.70666  -0.00001
           Z            0.00001   0.00001   1.00000
 This molecule is an asymmetric top.
 Rotational symmetry number  1.
 Warning -- assumption of classical behavior for rotation
           may cause significant error
 Rotational temperatures (Kelvin)      0.06743     0.01384     0.01148
 Rotational constants (GHZ):           1.40493     0.28830     0.23921
 Zero-point vibrational energy     493444.2 (Joules/Mol)
                                  117.93599 (Kcal/Mol)
 Warning -- explicit consideration of  18 degrees of freedom as
           vibrations may cause significant error
 Vibrational temperatures:     29.29    94.85   177.27   219.73   284.24
          (Kelvin)            350.29   395.49   470.99   473.54   603.70
                              625.88   663.18   720.85   747.89   775.23
                              809.80   826.49   847.40   933.53   990.48
                             1042.29  1086.99  1106.23  1110.05  1115.83
                             1127.49  1228.90  1268.24  1274.60  1311.49
                             1392.14  1402.77  1448.68  1453.89  1462.03
                             1515.93  1533.97  1586.31  1614.81  1647.70
                             1663.66  1677.20  1704.91  1746.86  1818.17
                             1856.02  1891.38  1955.83  1987.60  1991.58
                             2050.72  2144.88  2156.94  2183.30  2268.63
                             2316.34  2374.03  2391.91  2436.17  2481.66
                             2738.34  4596.50  4609.49  4624.59  4640.25
                             4642.19  4655.36  4656.78  4663.64

 Zero-point correction=                           0.187943 (Hartree/Particle)
 Thermal correction to Energy=                    0.199574
 Thermal correction to Enthalpy=                  0.200518
 Thermal correction to Gibbs Free Energy=         0.148733
 Sum of electronic and zero-point Energies=          -1028.634000
 Sum of electronic and thermal Energies=             -1028.622369
 Sum of electronic and thermal Enthalpies=           -1028.621425
 Sum of electronic and thermal Free Energies=        -1028.673210

                     E (Thermal)             CV                S
                      KCal/Mol        Cal/Mol-Kelvin    Cal/Mol-Kelvin
 Total                  125.234             47.125            108.990
 Electronic               0.000              0.000              0.000
 Translational            0.889              2.981             42.162
 Rotational               0.889              2.981             32.473
 Vibrational            123.457             41.163             34.355
 Vibration     1          0.593              1.986              6.599
 Vibration     2          0.597              1.971              4.272
 Vibration     3          0.610              1.930              3.049
 Vibration     4          0.619              1.900              2.638
 Vibration     5          0.637              1.843              2.156
 Vibration     6          0.659              1.774              1.777
 Vibration     7          0.677              1.720              1.565
 Vibration     8          0.711              1.621              1.273
 Vibration     9          0.712              1.617              1.264
 Vibration    10          0.782              1.428              0.893
 Vibration    11          0.796              1.394              0.842
 Vibration    12          0.819              1.337              0.763
 Vibration    13          0.856              1.248              0.656
 Vibration    14          0.875              1.206              0.610
 Vibration    15          0.894              1.164              0.568
 Vibration    16          0.919              1.112              0.518
 Vibration    17          0.931              1.087              0.496
 Vibration    18          0.946              1.055              0.469

 Optimization completed.
    -- Stationary point found.
 Normal termination of Gaussian 16 at Tue Oct 27 23:28:14 2020.
