 Gaussian 16, Revision C.01,
 Gaussian 16:  ES64L-G16RevC.01  3-Jul-2019

 ----------------------------------------------------------------------
 #p opt=addgic freq wb97xd/cc-pvdz nosymm int=ultrafine scrf=(solvent=C
 arbonTetraChloride)
 ----------------------------------------------------------------------

 ------------------------------------------------
 NM 2D-scan of HBT TD-WB97XD pVDZ in CTC Relaxed.
 ------------------------------------------------
 Symbolic Z-matrix:
 Charge =  0 Multiplicity = 1

 SCF Done:  E(RwB97XD) =  -1028.67356958     A.U. after   16 cycles
 SCF Done:  E(RwB97XD) =  -1028.77424971     A.U. after   13 cycles
 SCF Done:  E(RwB97XD) =  -1028.79069312     A.U. after   14 cycles
 SCF Done:  E(RwB97XD) =  -1028.80286994     A.U. after   14 cycles
 SCF Done:  E(RwB97XD) =  -1028.80310762     A.U. after   11 cycles
 SCF Done:  E(RwB97XD) =  -1028.80314101     A.U. after   10 cycles
 SCF Done:  E(RwB97XD) =  -1028.80314209     A.U. after    9 cycles
 Optimization completed.
    -- Stationary point found.
 Normal termination of Gaussian 16 at Tue Oct 27 23:30:57 2020.

 --------------------------------------------------------------------
 #P Geom=AllCheck Guess=TCheck SCRF=Check GenChk RwB97XD/CC-pVDZ Freq
 --------------------------------------------------------------------

 Structure from the checkpoint file:  "config_11_12.chk"
 ------------------------------------------------
 NM 2D-scan of HBT TD-WB97XD pVDZ in CTC Relaxed.
 ------------------------------------------------
 Charge =  0 Multiplicity = 1

                          Input orientation:
 ---------------------------------------------------------------------
 Center     Atomic      Atomic             Coordinates (Angstroms)
 Number     Number       Type             X           Y           Z
 ---------------------------------------------------------------------
      1          6           0        1.618954   -3.278933   -0.000024
      2          6           0        1.005683   -2.032095   -0.000014
      3          6           0        1.759108   -0.869356   -0.000012
      4          6           0        3.152970   -0.898695   -0.000015
      5          6           0        3.767121   -2.149383   -0.000023
      6          6           0        3.010643   -3.325784   -0.000029
      7          1           0        1.027190   -4.194096   -0.000028
      8          1           0        3.735836    0.023069   -0.000013
      9          1           0        4.856240   -2.207090   -0.000026
     10          1           0        3.514276   -4.292809   -0.000036
     11          7           0        0.931133    0.238428   -0.000010
     12         16           0       -0.720277   -1.643156   -0.000004
     13          6           0       -1.361525    1.106321    0.000013
     14          6           0       -2.751882    0.821842    0.000010
     15          6           0       -0.860899    2.480712    0.000036
     16          6           0       -3.689115    1.825453    0.000028
     17          1           0       -3.083005   -0.221013   -0.000008
     18          6           0       -1.915495    3.497127    0.000048
     19          6           0       -3.248305    3.177839    0.000047
     20          1           0       -4.753552    1.589795    0.000026
     21          1           0       -1.588581    4.538945    0.000059
     22          1           0       -3.994449    3.976872    0.000058
     23          6           0       -0.403733    0.066978   -0.000001
     24          8           0        0.355524    2.731918    0.000023
     25          1           0        1.390502    1.119519   -0.000018
 ---------------------------------------------------------------------

 SCF Done:  E(RwB97XD) =  -1028.80314209     A.U. after    1 cycles

 Alpha  occ. eigenvalues --  -89.09902 -19.21204 -14.52034 -10.41593 -10.37013
 Alpha  occ. eigenvalues --  -10.36011 -10.35815 -10.33287 -10.33086 -10.32633
 Alpha  occ. eigenvalues --  -10.32300 -10.31108 -10.30659 -10.30399 -10.29083
 Alpha  occ. eigenvalues --  -10.28571  -8.11953  -6.06840  -6.06447  -6.05957
 Alpha  occ. eigenvalues --   -1.13170  -1.10095  -0.98640  -0.95403  -0.93279
 Alpha  occ. eigenvalues --   -0.89214  -0.86646  -0.83936  -0.81661  -0.75548
 Alpha  occ. eigenvalues --   -0.73986  -0.71880  -0.69397  -0.67855  -0.64570
 Alpha  occ. eigenvalues --   -0.60916  -0.59773  -0.56647  -0.56013  -0.55980
 Alpha  occ. eigenvalues --   -0.55026  -0.53701  -0.52987  -0.50246  -0.49436
 Alpha  occ. eigenvalues --   -0.49010  -0.48277  -0.46735  -0.45648  -0.44726
 Alpha  occ. eigenvalues --   -0.44533  -0.42916  -0.41830  -0.40397  -0.36901
 Alpha  occ. eigenvalues --   -0.33597  -0.31674  -0.31346  -0.26148
 Alpha virt. eigenvalues --   -0.01293   0.03757   0.05941   0.06924   0.09525
 Alpha virt. eigenvalues --    0.11278   0.13574   0.14645   0.15989   0.16986
 Alpha virt. eigenvalues --    0.18306   0.19826   0.21047   0.21610   0.22987

 Mulliken charges:
               1
     1  C    0.014097
     2  C   -0.240937
     3  C    0.226133
     4  C   -0.011563
     5  C    0.011078
     6  C    0.003701
     7  H    0.024223
     8  H    0.030946
     9  H    0.027541
    10  H    0.026007
    11  N   -0.100896
    12  S    0.179416
    13  C   -0.104932
    14  C   -0.012794
    15  C    0.103315
    16  C   -0.034192
    17  H    0.006916
    18  C   -0.038562
    19  C    0.028464
    20  H    0.002166
    21  H    0.001250
    22  H    0.013699
    23  C    0.095434
    24  O   -0.368749
    25  H    0.118239
 Sum of Mulliken charges =  -0.00000

 Dipole moment (field-independent basis, Debye):
    X=              2.0908    Y=             -5.2941    Z=             -0.0001  Tot=              5.6920
 Quadrupole moment (field-independent basis, Debye-Ang):
   XX=            -81.4542   YY=            -95.5706   ZZ=           -103.9916
   XY=             -6.5849   XZ=             -0.0001   YZ=              0.0001

  Exact polarizability:     289.907     -90.380     288.002      -0.002       0.002      62.909
 Approx polarizability:     267.407     -34.895     255.048      -0.001       0.002      81.910

                      1                      2                      3
                      A                      A                      A
 Frequencies --     28.1307                64.0910               109.7177
 Red. masses --      4.5952                 6.4998                 5.6816
 Frc consts  --      0.0021                 0.0157                 0.0403
 IR Inten    --      1.6083                 1.7277                 0.9445

                      4                      5                      6
                      A                      A                      A
 Frequencies --    116.3362               192.0666               226.9931
 Red. masses --      5.3586                 5.8909                 5.8180
 Frc consts  --      0.0427                 0.1280                 0.1766
 IR Inten    --      0.2796                 0.0762                 1.6349

                      7                      8                      9
                      A                      A                      A
 Frequencies --    267.7100               303.1816               304.7313
 Red. masses --      7.6573                 7.1874                 4.8256
 Frc consts  --      0.3233                 0.3893                 0.2640
 IR Inten    --      4.3429                 3.7984                 3.5359

                     10                     11                     12
                      A                      A                      A
 Frequencies --    391.0636               423.6801               443.4435
 Red. masses --      8.1903                 3.1602                 3.4914
 Frc consts  --      0.7380                 0.3342                 0.4045
 IR Inten    --      4.7958                 3.5772                11.3373

                     13                     14                     15
                      A                      A                      A
 Frequencies --    503.1424               504.2346               527.1654
 Red. masses --      1.2704                 8.0510                 2.1060
 Frc consts  --      0.1895                 1.2061                 0.3448
 IR Inten    --     68.7742                 9.9027                 2.6602

                     16                     17                     18
                      A                      A                      A
 Frequencies --    535.5860               547.7535               562.2395
 Red. masses --      7.8971                 6.8280                 3.8101
 Frc consts  --      1.3347                 1.2070                 0.7096
 IR Inten    --      8.6770                 6.2692                 0.0104

                     19                     20                     21
                      A                      A                      A
 Frequencies --    581.5060               635.7433               658.9538
 Red. masses --      7.3283                 6.5704                 6.1340
 Frc consts  --      1.4600                 1.5646                 1.5693
 IR Inten    --     38.4068                 3.8008                 3.0945

                     22                     23                     24
                      A                      A                      A
 Frequencies --    708.1309               740.2685               751.4231
 Red. masses --      5.7419                 7.4561                 2.6640
 Frc consts  --      1.6964                 2.4073                 0.8862
 IR Inten    --     53.9636                48.2622                11.6796

                     25                     26                     27
                      A                      A                      A
 Frequencies --    759.3855               775.1429               779.8029
 Red. masses --      1.4281                 1.5568                 2.4374
 Frc consts  --      0.4852                 0.5511                 0.8733
 IR Inten    --     47.6581                47.4008                23.3915

                     28                     29                     30
                      A                      A                      A
 Frequencies --    831.0138               876.2037               881.5504
 Red. masses --      6.2381                 2.0398                 1.3758
 Frc consts  --      2.5382                 0.9227                 0.6299
 IR Inten    --     22.1578                15.4157                 0.9896

                     31                     32                     33
                      A                      A                      A
 Frequencies --    893.9842               966.8204               968.2673
 Red. masses --      5.1801                 1.3223                 4.1727
 Frc consts  --      2.4392                 0.7282                 2.3049
 IR Inten    --      0.7233                 0.1300                31.4577

                     34                     35                     36
                      A                      A                      A
 Frequencies --    970.1257              1013.8751              1017.2472
 Red. masses --      1.3595                 1.3026                 1.3065
 Frc consts  --      0.7538                 0.7889                 0.7966
 IR Inten    --      1.5079                 0.0099                 0.3376

                     37                     38                     39
                      A                      A                      A
 Frequencies --   1042.7568              1057.3666              1093.0881
 Red. masses --      2.1203                 2.0805                 3.4595
 Frc consts  --      1.3583                 1.3705                 2.4354
 IR Inten    --     10.5567                12.8190                17.5983

                     40                     41                     42
                      A                      A                      A
 Frequencies --   1116.3022              1157.0494              1160.7729
 Red. masses --      1.9798                 1.3543                 1.2017
 Frc consts  --      1.4536                 1.0682                 0.9539
 IR Inten    --     59.8048                 0.5660                72.1139

                     43                     44                     45
                      A                      A                      A
 Frequencies --   1182.0284              1192.9870              1237.8697
 Red. masses --      1.1499                 1.2010                 2.1610
 Frc consts  --      0.9466                 1.0071                 1.9510
 IR Inten    --     24.8820                12.3434                19.0672

                     46                     47                     48
                      A                      A                      A
 Frequencies --   1284.0133              1299.3594              1359.3533
 Red. masses --      2.1610                 1.8354                 2.6149
 Frc consts  --      2.0992                 1.8258                 2.8469
 IR Inten    --     96.8187               111.6382                37.5061

                     49                     50                     51
                      A                      A                      A
 Frequencies --   1388.6461              1394.1225              1413.4986
 Red. masses --      7.0536                 5.5297                 2.1634
 Frc consts  --      8.0139                 6.3322                 2.5467
 IR Inten    --    113.9443                57.2432                 5.3842

                     52                     53                     54
                      A                      A                      A
 Frequencies --   1491.4077              1506.1655              1530.4180
 Red. masses --      2.8897                 3.0283                 3.0505
 Frc consts  --      3.7869                 4.0476                 4.2097
 IR Inten    --    118.9989               695.4515               124.5812

                     55                     56                     57
                      A                      A                      A
 Frequencies --   1543.2806              1595.4642              1652.5647
 Red. masses --      4.5847                 6.9333                 6.3037
 Frc consts  --      6.4336                10.3983                10.1429
 IR Inten    --   1530.6822                82.1348                68.6455

                     58                     59                     60
                      A                      A                      A
 Frequencies --   1681.0672              1695.2339              1730.8420
 Red. masses --      7.1965                 7.7249                 8.7283
 Frc consts  --     11.9823                13.0799                15.4062
 IR Inten    --     54.6341                37.8261               443.8865

                     61                     62                     63
                      A                      A                      A
 Frequencies --   3182.2151              3193.6301              3218.2828
 Red. masses --      1.0889                 1.0878                 1.0864
 Frc consts  --      6.4969                 6.5366                 6.6298
 IR Inten    --      3.9253                14.3658                 1.6305

                     64                     65                     66
                      A                      A                      A
 Frequencies --   3218.5708              3228.6693              3231.1709
 Red. masses --      1.0943                 1.0907                 1.0973
 Frc consts  --      6.6791                 6.6991                 6.7497
 IR Inten    --     31.0436                 2.3018                20.2189

                     67                     68                     69
                      A                      A                      A
 Frequencies --   3236.9864              3244.2703              3837.6031
 Red. masses --      1.0962                 1.0997                 1.0796
 Frc consts  --      6.7671                 6.8195                 9.3673
 IR Inten    --      4.2778                11.8562               125.5161

 - Thermochemistry -
 -------------------
 Temperature   298.150 Kelvin.  Pressure   1.00000 Atm.
 Atom     1 has atomic number  6 and mass  12.00000

 Molecular mass:   227.04049 amu.
 Principal axes and moments of inertia in atomic units:
                           1         2         3
     Eigenvalues --  1280.746696398.462037679.20871
           X           -0.70553   0.70868   0.00000
           Y            0.70868   0.70553  -0.00001
           Z            0.00001   0.00000   1.00000
 This molecule is an asymmetric top.
 Rotational symmetry number  1.
 Warning -- assumption of classical behavior for rotation
           may cause significant error
 Rotational temperatures (Kelvin)      0.06763     0.01354     0.01128
 Rotational constants (GHZ):           1.40913     0.28206     0.23502
 Zero-point vibrational energy     497992.0 (Joules/Mol)
                                  119.02295 (Kcal/Mol)
 Warning -- explicit consideration of  19 degrees of freedom as
           vibrations may cause significant error
 Vibrational temperatures:     40.47    92.21   157.86   167.38   276.34
          (Kelvin)            326.59   385.17   436.21   438.44   562.65
                              609.58   638.02   723.91   725.48   758.47
                              770.59   788.10   808.94   836.66   914.69
                              948.09  1018.84  1065.08  1081.13  1092.59
                             1115.26  1121.96  1195.64  1260.66  1268.35
                             1286.24  1391.04  1393.12  1395.79  1458.74
                             1463.59  1500.29  1521.31  1572.71  1606.11
                             1664.74  1670.09  1700.68  1716.44  1781.02
                             1847.41  1869.49  1955.81  1997.95  2005.83
                             2033.71  2145.80  2167.04  2201.93  2220.44
                             2295.52  2377.67  2418.68  2439.06  2490.30
                             4578.50  4594.92  4630.39  4630.81  4645.33
                             4648.93  4657.30  4667.78  5521.45

 Zero-point correction=                           0.189675 (Hartree/Particle)
 Thermal correction to Energy=                    0.201819
 Thermal correction to Enthalpy=                  0.202763
 Thermal correction to Gibbs Free Energy=         0.150170
 Sum of electronic and zero-point Energies=          -1028.613467
 Sum of electronic and thermal Energies=             -1028.601323
 Sum of electronic and thermal Enthalpies=           -1028.600379
 Sum of electronic and thermal Free Energies=        -1028.652972

                     E (Thermal)             CV                S
                      KCal/Mol        Cal/Mol-Kelvin    Cal/Mol-Kelvin
 Total                  126.643             48.874            110.691
 Electronic               0.000              0.000              0.000
 Translational            0.889              2.981             42.162
 Rotational               0.889              2.981             32.509
 Vibrational            124.866             42.912             36.019
 Vibration     1          0.593              1.984              5.957
 Vibration     2          0.597              1.971              4.327
 Vibration     3          0.606              1.941              3.274
 Vibration     4          0.608              1.936              3.160
 Vibration     5          0.634              1.851              2.208
 Vibration     6          0.651              1.800              1.903
 Vibration     7          0.673              1.732              1.611
 Vibration     8          0.695              1.668              1.399
 Vibration     9          0.696              1.665              1.391
 Vibration    10          0.759              1.489              0.996
 Vibration    11          0.786              1.419              0.880
 Vibration    12          0.803              1.375              0.816
 Vibration    13          0.858              1.243              0.650
 Vibration    14          0.860              1.241              0.648
 Vibration    15          0.882              1.190              0.594
 Vibration    16          0.891              1.171              0.575
 Vibration    17          0.903              1.145              0.549
 Vibration    18          0.918              1.113              0.519
 Vibration    19          0.938              1.071              0.483

 Optimization completed.
    -- Stationary point found.
 Normal termination of Gaussian 16 at Tue Oct 27 23:37:02 2020.
