 Gaussian 16, Revision C.01,
 Gaussian 16:  ES64L-G16RevC.01  3-Jul-2019

 ----------------------------------------------------------------------
 #p opt=addgic freq wb97xd/cc-pvdz nosymm int=ultrafine scrf=(solvent=C
 arbonTetraChloride)
 ----------------------------------------------------------------------

 ------------------------------------------------
 NM 2D-scan of HBT TD-WB97XD pVDZ in CTC Relaxed.
 ------------------------------------------------
 Symbolic Z-matrix:
 Charge =  0 Multiplicity = 1

 SCF Done:  E(RwB97XD) =  -1028.81143983     A.U. after   15 cycles
 SCF Done:  E(RwB97XD) =  -1028.82586540     A.U. after   13 cycles
 SCF Done:  E(RwB97XD) =  -1028.82716499     A.U. after   12 cycles
 SCF Done:  E(RwB97XD) =  -1028.82756581     A.U. after   11 cycles
 SCF Done:  E(RwB97XD) =  -1028.82760165     A.U. after   10 cycles
 SCF Done:  E(RwB97XD) =  -1028.82760429     A.U. after    9 cycles
 Optimization completed.
    -- Stationary point found.
 Normal termination of Gaussian 16 at Tue Oct 27 22:04:17 2020.

 --------------------------------------------------------------------
 #P Geom=AllCheck Guess=TCheck SCRF=Check GenChk RwB97XD/CC-pVDZ Freq
 --------------------------------------------------------------------

 Structure from the checkpoint file:  "config_4_6.chk"
 ------------------------------------------------
 NM 2D-scan of HBT TD-WB97XD pVDZ in CTC Relaxed.
 ------------------------------------------------
 Charge =  0 Multiplicity = 1

                          Input orientation:
 ---------------------------------------------------------------------
 Center     Atomic      Atomic             Coordinates (Angstroms)
 Number     Number       Type             X           Y           Z
 ---------------------------------------------------------------------
      1          6           0        1.696366   -3.291151   -0.000035
      2          6           0        0.987809   -2.084882   -0.000032
      3          6           0        1.674483   -0.860204   -0.000009
      4          6           0        3.072333   -0.812520    0.000014
      5          6           0        3.772468   -2.006902    0.000011
      6          6           0        3.087519   -3.233724   -0.000013
      7          1           0        1.180324   -4.251628   -0.000053
      8          1           0        3.576454    0.154349    0.000033
      9          1           0        4.863271   -1.997627    0.000028
     10          1           0        3.656034   -4.164962   -0.000015
     11          7           0        0.866034    0.248763   -0.000011
     12         16           0       -0.746136   -1.771414   -0.000055
     13          6           0       -1.381720    1.068589   -0.000019
     14          6           0       -2.774764    0.874373   -0.000009
     15          6           0       -0.879649    2.405049    0.000006
     16          6           0       -3.655256    1.946162    0.000047
     17          1           0       -3.168675   -0.145228   -0.000034
     18          6           0       -1.785664    3.478227    0.000071
     19          6           0       -3.150166    3.253803    0.000093
     20          1           0       -4.730975    1.769652    0.000059
     21          1           0       -1.370670    4.486743    0.000094
     22          1           0       -3.835235    4.103786    0.000141
     23          6           0       -0.407819   -0.028034   -0.000039
     24          8           0        0.415494    2.707694   -0.000050
     25          1           0        0.911642    1.837008   -0.000125
 ---------------------------------------------------------------------

 SCF Done:  E(RwB97XD) =  -1028.82760429     A.U. after    1 cycles

 Alpha  occ. eigenvalues --  -89.08976 -19.27458 -14.46841 -10.39666 -10.37254
 Alpha  occ. eigenvalues --  -10.35027 -10.34855 -10.32511 -10.32426 -10.31838
 Alpha  occ. eigenvalues --  -10.31688 -10.31649 -10.31537 -10.31278 -10.30133
 Alpha  occ. eigenvalues --  -10.29886  -8.10935  -6.05800  -6.05440  -6.04978
 Alpha  occ. eigenvalues --   -1.16200  -1.09160  -0.97276  -0.96022  -0.91493
 Alpha  occ. eigenvalues --   -0.88591  -0.85312  -0.84411  -0.83022  -0.75527
 Alpha  occ. eigenvalues --   -0.71331  -0.70528  -0.69409  -0.68251  -0.63064
 Alpha  occ. eigenvalues --   -0.60562  -0.58800  -0.58297  -0.56279  -0.54473
 Alpha  occ. eigenvalues --   -0.54136  -0.53254  -0.52531  -0.51008  -0.50214
 Alpha  occ. eigenvalues --   -0.49476  -0.47649  -0.45940  -0.45333  -0.44981
 Alpha  occ. eigenvalues --   -0.43802  -0.42793  -0.42757  -0.39834  -0.36854
 Alpha  occ. eigenvalues --   -0.36193  -0.32267  -0.31629  -0.28918
 Alpha virt. eigenvalues --   -0.00495   0.04740   0.06904   0.07284   0.07513
 Alpha virt. eigenvalues --    0.11371   0.13546   0.15106   0.16099   0.17865
 Alpha virt. eigenvalues --    0.19001   0.20769   0.21743   0.22556   0.22702

 Mulliken charges:
               1
     1  C    0.005225
     2  C   -0.222311
     3  C    0.244504
     4  C   -0.012753
     5  C    0.007504
     6  C   -0.000434
     7  H    0.020411
     8  H    0.019331
     9  H    0.020277
    10  H    0.021988
    11  N   -0.341404
    12  S    0.147724
    13  C   -0.077071
    14  C   -0.017907
    15  C    0.075896
    16  C   -0.010070
    17  H    0.009760
    18  C    0.009145
    19  C    0.020645
    20  H    0.009516
    21  H    0.015071
    22  H    0.017839
    23  C    0.083228
    24  O   -0.211719
    25  H    0.165603
 Sum of Mulliken charges =   0.00000

 Dipole moment (field-independent basis, Debye):
    X=              0.1947    Y=             -2.5687    Z=             -0.0000  Tot=              2.5760
 Quadrupole moment (field-independent basis, Debye-Ang):
   XX=            -82.7396   YY=            -90.0868   ZZ=           -104.1471
   XY=             -7.1344   XZ=             -0.0002   YZ=              0.0003

  Exact polarizability:     275.506     -66.873     256.699      -0.001       0.003      63.028
 Approx polarizability:     263.257     -23.191     243.231      -0.000       0.003      82.240

                      1                      2                      3
                      A                      A                      A
 Frequencies --     41.4258                58.8849               121.0330
 Red. masses --      5.5379                 5.8727                 5.6577
 Frc consts  --      0.0056                 0.0120                 0.0488
 IR Inten    --      0.0418                 1.2991                 1.3698

                      4                      5                      6
                      A                      A                      A
 Frequencies --    152.6427               199.1088               245.2027
 Red. masses --      4.9433                 5.8375                 5.7791
 Frc consts  --      0.0679                 0.1364                 0.2047
 IR Inten    --      0.0325                 0.5266                 0.0563

                      7                      8                      9
                      A                      A                      A
 Frequencies --    270.3794               321.4188               326.5962
 Red. masses --      7.5557                 6.4731                 5.1198
 Frc consts  --      0.3254                 0.3940                 0.3218
 IR Inten    --      0.8863                 7.2063                 0.3284

                     10                     11                     12
                      A                      A                      A
 Frequencies --    406.0748               438.3361               466.0911
 Red. masses --      9.5707                 3.1456                 3.6971
 Frc consts  --      0.9298                 0.3561                 0.4732
 IR Inten    --      0.2160                 2.1049                 8.2271

                     13                     14                     15
                      A                      A                      A
 Frequencies --    515.0323               522.2975               539.2258
 Red. masses --      8.6281                 4.9817                 3.4742
 Frc consts  --      1.3485                 0.8007                 0.5952
 IR Inten    --      0.4048                10.1434                 3.7167

                     16                     17                     18
                      A                      A                      A
 Frequencies --    549.9259               574.1438               593.8828
 Red. masses --      8.2265                 3.7010                 7.6699
 Frc consts  --      1.4658                 0.7188                 1.5938
 IR Inten    --      2.8147                 0.0510                 5.2630

                     19                     20                     21
                      A                      A                      A
 Frequencies --    647.3223               682.7020               710.0152
 Red. masses --      6.1437                 6.4022                 7.1153
 Frc consts  --      1.5168                 1.7581                 2.1134
 IR Inten    --      0.0111                 9.2818                30.0824

                     22                     23                     24
                      A                      A                      A
 Frequencies --    736.2397               755.1699               764.7515
 Red. masses --      9.7290                 2.0394                 3.0865
 Frc consts  --      3.1071                 0.6853                 1.0635
 IR Inten    --      9.2608                26.5858                 1.0773

                     25                     26                     27
                      A                      A                      A
 Frequencies --    776.3982               786.3444               845.4871
 Red. masses --      1.3393                 1.8737                 5.9680
 Frc consts  --      0.4757                 0.6826                 2.5136
 IR Inten    --     65.8925                33.9390                20.0364

                     28                     29                     30
                      A                      A                      A
 Frequencies --    884.3436               885.5818               899.5954
 Red. masses --      1.5796                 1.3582                 1.1287
 Frc consts  --      0.7278                 0.6276                 0.5382
 IR Inten    --      8.7277                 2.7384                70.2116

                     31                     32                     33
                      A                      A                      A
 Frequencies --    902.3383               971.4228               976.1345
 Red. masses --      6.5594                 1.3561                 1.3628
 Frc consts  --      3.1467                 0.7540                 0.7651
 IR Inten    --      0.9819                 1.0368                 1.9746

                     34                     35                     36
                      A                      A                      A
 Frequencies --    990.3974              1011.0226              1015.7834
 Red. masses --      7.5303                 1.3003                 1.3048
 Frc consts  --      4.3519                 0.7831                 0.7932
 IR Inten    --     62.0976                 0.3708                 0.0213

                     37                     38                     39
                      A                      A                      A
 Frequencies --   1052.3669              1067.6123              1096.0095
 Red. masses --      2.0247                 1.9630                 4.3662
 Frc consts  --      1.3212                 1.3182                 3.0902
 IR Inten    --      8.2251                10.7842                 5.6662

                     40                     41                     42
                      A                      A                      A
 Frequencies --   1147.0170              1152.0428              1174.0198
 Red. masses --      1.4897                 1.2873                 1.1201
 Frc consts  --      1.1547                 1.0067                 0.9097
 IR Inten    --      9.5760                 3.9259                46.9572

                     43                     44                     45
                      A                      A                      A
 Frequencies --   1184.6100              1252.0554              1285.7317
 Red. masses --      1.1857                 1.8657                 1.5463
 Frc consts  --      0.9803                 1.7232                 1.5061
 IR Inten    --      0.4011               120.0710                 1.9681

                     46                     47                     48
                      A                      A                      A
 Frequencies --   1291.1473              1334.7081              1352.1396
 Red. masses --      2.5181                 5.5261                 3.2269
 Frc consts  --      2.4733                 5.8002                 3.4760
 IR Inten    --    149.3128                12.1688                14.2720

                     49                     50                     51
                      A                      A                      A
 Frequencies --   1374.1167              1379.4805              1477.6470
 Red. masses --      7.9891                 3.2136                 2.0305
 Frc consts  --      8.8878                 3.6030                 2.6121
 IR Inten    --     15.1995                16.4301                22.1074

                     52                     53                     54
                      A                      A                      A
 Frequencies --   1492.8718              1498.7249              1521.8975
 Red. masses --      2.6738                 3.1796                 3.9263
 Frc consts  --      3.5109                 4.2079                 5.3580
 IR Inten    --     23.5222                21.5866               126.2410

                     55                     56                     57
                      A                      A                      A
 Frequencies --   1564.4335              1592.2258              1649.4153
 Red. masses --      2.3126                 6.0293                 6.6794
 Frc consts  --      3.3348                 9.0059                10.7065
 IR Inten    --    120.3194               186.5639                 7.6034

                     58                     59                     60
                      A                      A                      A
 Frequencies --   1668.3194              1681.6487              1708.7414
 Red. masses --      3.3382                 6.7838                 5.4953
 Frc consts  --      5.4741                11.3030                 9.4535
 IR Inten    --    168.1867                23.6222               135.5348

                     61                     62                     63
                      A                      A                      A
 Frequencies --   3055.8140              3192.3398              3206.8181
 Red. masses --      1.0709                 1.0896                 1.0883
 Frc consts  --      5.8917                 6.5426                 6.5940
 IR Inten    --   1143.2491                 5.9016                 3.7981

                     64                     65                     66
                      A                      A                      A
 Frequencies --   3212.2155              3223.1892              3227.6718
 Red. masses --      1.0862                 1.0905                 1.0940
 Frc consts  --      6.6034                 6.6750                 6.7152
 IR Inten    --      1.5973                 3.5565                11.3732

                     67                     68                     69
                      A                      A                      A
 Frequencies --   3233.4572              3235.9437              3239.4769
 Red. masses --      1.0960                 1.0987                 1.0998
 Frc consts  --      6.7513                 6.7786                 6.8001
 IR Inten    --      9.4893                17.8722                13.5231

 - Thermochemistry -
 -------------------
 Temperature   298.150 Kelvin.  Pressure   1.00000 Atm.
 Atom     1 has atomic number  6 and mass  12.00000

 Molecular mass:   227.04049 amu.
 Principal axes and moments of inertia in atomic units:
                           1         2         3
     Eigenvalues --  1323.692836319.307557643.00038
           X           -0.69966   0.71447  -0.00000
           Y            0.71447   0.69966  -0.00001
           Z            0.00001   0.00001   1.00000
 This molecule is an asymmetric top.
 Rotational symmetry number  1.
 Warning -- assumption of classical behavior for rotation
           may cause significant error
 Rotational temperatures (Kelvin)      0.06543     0.01371     0.01133
 Rotational constants (GHZ):           1.36341     0.28559     0.23613
 Zero-point vibrational energy     498894.6 (Joules/Mol)
                                  119.23867 (Kcal/Mol)
 Warning -- explicit consideration of  18 degrees of freedom as
           vibrations may cause significant error
 Vibrational temperatures:     59.60    84.72   174.14   219.62   286.47
          (Kelvin)            352.79   389.02   462.45   469.90   584.25
                              630.67   670.60   741.02   751.47   775.83
                              791.22   826.06   854.46   931.35   982.26
                             1021.55  1059.28  1086.52  1100.31  1117.06
                             1131.37  1216.47  1272.37  1274.15  1294.32
                             1298.26  1397.66  1404.44  1424.96  1454.64
                             1461.49  1514.12  1536.06  1576.91  1650.30
                             1657.53  1689.15  1704.39  1801.43  1849.88
                             1857.67  1920.35  1945.43  1977.05  1984.76
                             2126.00  2147.91  2156.33  2189.67  2250.87
                             2290.86  2373.14  2400.34  2419.52  2458.50
                             4396.63  4593.07  4613.90  4621.66  4637.45
                             4643.90  4652.22  4655.80  4660.88

 Zero-point correction=                           0.190019 (Hartree/Particle)
 Thermal correction to Energy=                    0.201684
 Thermal correction to Enthalpy=                  0.202629
 Thermal correction to Gibbs Free Energy=         0.151278
 Sum of electronic and zero-point Energies=          -1028.637585
 Sum of electronic and thermal Energies=             -1028.625920
 Sum of electronic and thermal Enthalpies=           -1028.624976
 Sum of electronic and thermal Free Energies=        -1028.676327

                     E (Thermal)             CV                S
                      KCal/Mol        Cal/Mol-Kelvin    Cal/Mol-Kelvin
 Total                  126.559             47.454            108.077
 Electronic               0.000              0.000              0.000
 Translational            0.889              2.981             42.162
 Rotational               0.889              2.981             32.525
 Vibrational            124.781             41.493             33.390
 Vibration     1          0.594              1.981              5.190
 Vibration     2          0.596              1.974              4.494
 Vibration     3          0.609              1.932              3.084
 Vibration     4          0.619              1.900              2.639
 Vibration     5          0.637              1.841              2.141
 Vibration     6          0.660              1.771              1.765
 Vibration     7          0.674              1.728              1.594
 Vibration     8          0.707              1.633              1.303
 Vibration     9          0.710              1.622              1.277
 Vibration    10          0.771              1.457              0.941
 Vibration    11          0.799              1.387              0.832
 Vibration    12          0.823              1.325              0.749
 Vibration    13          0.870              1.217              0.622
 Vibration    14          0.877              1.201              0.605
 Vibration    15          0.894              1.163              0.567
 Vibration    16          0.905              1.140              0.544
 Vibration    17          0.930              1.087              0.496
 Vibration    18          0.952              1.045              0.460

 Optimization completed.
    -- Stationary point found.
 Normal termination of Gaussian 16 at Tue Oct 27 22:11:23 2020.
