 Gaussian 16, Revision C.01,
 Gaussian 16:  ES64L-G16RevC.01  3-Jul-2019

 ----------------------------------------------------------------------
 #p opt=addgic freq wb97xd/cc-pvdz nosymm int=ultrafine scrf=(solvent=C
 arbonTetraChloride)
 ----------------------------------------------------------------------

 ------------------------------------------------
 NM 2D-scan of HBT TD-WB97XD pVDZ in CTC Relaxed.
 ------------------------------------------------
 Symbolic Z-matrix:
 Charge =  0 Multiplicity = 1

 SCF Done:  E(RwB97XD) =  -1028.81307503     A.U. after   15 cycles
 SCF Done:  E(RwB97XD) =  -1028.82199295     A.U. after   13 cycles
 SCF Done:  E(RwB97XD) =  -1028.82277246     A.U. after   12 cycles
 SCF Done:  E(RwB97XD) =  -1028.82281832     A.U. after   11 cycles
 SCF Done:  E(RwB97XD) =  -1028.82285389     A.U. after   10 cycles
 SCF Done:  E(RwB97XD) =  -1028.82285989     A.U. after    9 cycles
 SCF Done:  E(RwB97XD) =  -1028.82285981     A.U. after    8 cycles
 SCF Done:  E(RwB97XD) =  -1028.82286013     A.U. after    8 cycles
 Optimization completed.
    -- Stationary point found.
 Normal termination of Gaussian 16 at Wed Oct 28 02:13:57 2020.

 --------------------------------------------------------------------
 #P Geom=AllCheck Guess=TCheck SCRF=Check GenChk RwB97XD/CC-pVDZ Freq
 --------------------------------------------------------------------

 Structure from the checkpoint file:  "config_4_18.chk"
 ------------------------------------------------
 NM 2D-scan of HBT TD-WB97XD pVDZ in CTC Relaxed.
 ------------------------------------------------
 Charge =  0 Multiplicity = 1

                          Input orientation:
 ---------------------------------------------------------------------
 Center     Atomic      Atomic             Coordinates (Angstroms)
 Number     Number       Type             X           Y           Z
 ---------------------------------------------------------------------
      1          6           0        1.522637   -3.253964   -0.000146
      2          6           0        1.004403   -1.963463   -0.000101
      3          6           0        1.796624   -0.804006    0.000023
      4          6           0        3.192017   -0.964435    0.000105
      5          6           0        3.720084   -2.256087    0.000065
      6          6           0        2.900392   -3.395032   -0.000059
      7          1           0        0.858877   -4.118928   -0.000239
      8          1           0        3.849047   -0.093925    0.000206
      9          1           0        4.803946   -2.381894    0.000135
     10          1           0        3.346790   -4.390185   -0.000086
     11          7           0        1.029151    0.367762    0.000066
     12         16           0       -0.682583   -1.556603   -0.000163
     13          6           0       -1.305186    1.119552    0.000037
     14          6           0       -2.652562    0.744334    0.000123
     15          6           0       -0.915334    2.474932   -0.000036
     16          6           0       -3.654271    1.700182    0.000134
     17          1           0       -2.921387   -0.314073    0.000196
     18          6           0       -1.948363    3.441448   -0.000029
     19          6           0       -3.285951    3.050575    0.000052
     20          1           0       -4.703249    1.404150    0.000206
     21          1           0       -1.678639    4.498481   -0.000098
     22          1           0       -4.061530    3.819355    0.000050
     23          6           0       -0.258718    0.114804   -0.000002
     24          8           0        0.372488    2.775839   -0.000144
     25          1           0        0.903980    1.884782   -0.000177
 ---------------------------------------------------------------------

 SCF Done:  E(RwB97XD) =  -1028.82286013     A.U. after    1 cycles

 Alpha  occ. eigenvalues --  -89.08499 -19.27241 -14.47506 -10.39352 -10.37223
 Alpha  occ. eigenvalues --  -10.35496 -10.34620 -10.32245 -10.32058 -10.31783
 Alpha  occ. eigenvalues --  -10.31680 -10.31669 -10.31631 -10.31481 -10.30277
 Alpha  occ. eigenvalues --  -10.30186  -8.10692  -6.05528  -6.05167  -6.04746
 Alpha  occ. eigenvalues --   -1.15901  -1.09041  -0.97430  -0.96340  -0.92175
 Alpha  occ. eigenvalues --   -0.88661  -0.85685  -0.84482  -0.82962  -0.75537
 Alpha  occ. eigenvalues --   -0.71630  -0.70762  -0.69396  -0.67972  -0.63420
 Alpha  occ. eigenvalues --   -0.60764  -0.59052  -0.58400  -0.56419  -0.54576
 Alpha  occ. eigenvalues --   -0.54390  -0.53453  -0.52931  -0.50867  -0.50270
 Alpha  occ. eigenvalues --   -0.49266  -0.47114  -0.46104  -0.45496  -0.45107
 Alpha  occ. eigenvalues --   -0.44142  -0.42881  -0.42656  -0.39929  -0.36841
 Alpha  occ. eigenvalues --   -0.36265  -0.32203  -0.31687  -0.29047
 Alpha virt. eigenvalues --   -0.00527   0.04753   0.06683   0.07268   0.08114
 Alpha virt. eigenvalues --    0.11284   0.14713   0.15234   0.17373   0.18043
 Alpha virt. eigenvalues --    0.19030   0.21122   0.21638   0.22577   0.22613

 Mulliken charges:
               1
     1  C    0.019453
     2  C   -0.213131
     3  C    0.225260
     4  C   -0.020249
     5  C    0.002353
     6  C    0.004263
     7  H    0.018475
     8  H    0.021932
     9  H    0.021234
    10  H    0.021855
    11  N   -0.359539
    12  S    0.155190
    13  C   -0.048214
    14  C   -0.033976
    15  C    0.082348
    16  C   -0.007556
    17  H    0.021968
    18  C   -0.006643
    19  C    0.021535
    20  H    0.008969
    21  H    0.015772
    22  H    0.018878
    23  C    0.087888
    24  O   -0.237544
    25  H    0.179479
 Sum of Mulliken charges =  -0.00000

 Dipole moment (field-independent basis, Debye):
    X=             -0.1142    Y=             -3.0426    Z=             -0.0001  Tot=              3.0448
 Quadrupole moment (field-independent basis, Debye-Ang):
   XX=            -82.6596   YY=            -90.6857   ZZ=           -103.9624
   XY=             -7.3508   XZ=             -0.0001   YZ=              0.0004

  Exact polarizability:     273.575     -68.518     254.140       0.001       0.003      62.818
 Approx polarizability:     261.424     -23.470     241.730       0.002       0.003      82.135

 ******    1 imaginary frequencies (negative Signs) ******

                      1                      2                      3
                      A                      A                      A
 Frequencies --    -34.6668                65.3268               133.5945
 Red. masses --      5.4225                 6.0188                 5.6665
 Frc consts  --      0.0038                 0.0151                 0.0596
 IR Inten    --      0.0286                 1.2025                 2.9555

                      4                      5                      6
                      A                      A                      A
 Frequencies --    151.1095               197.0041               243.9560
 Red. masses --      5.0305                 6.1412                 5.5192
 Frc consts  --      0.0677                 0.1404                 0.1935
 IR Inten    --      0.2104                 0.7107                 0.0421

                      7                      8                      9
                      A                      A                      A
 Frequencies --    283.6045               330.2263               330.2816
 Red. masses --      7.5117                 6.1740                 5.1159
 Frc consts  --      0.3560                 0.3967                 0.3288
 IR Inten    --      1.0092                13.0543                 0.2709

                     10                     11                     12
                      A                      A                      A
 Frequencies --    426.5893               436.1494               463.2061
 Red. masses --     10.5535                 3.0882                 3.5599
 Frc consts  --      1.1315                 0.3461                 0.4500
 IR Inten    --      0.0754                 1.5141                 8.3378

                     13                     14                     15
                      A                      A                      A
 Frequencies --    516.7106               526.3547               536.5279
 Red. masses --      7.6412                 6.3983                 3.4576
 Frc consts  --      1.2020                 1.0444                 0.5864
 IR Inten    --      2.7806                16.2341                 3.4133

                     16                     17                     18
                      A                      A                      A
 Frequencies --    563.2077               576.9936               590.4961
 Red. masses --      6.9913                 3.7412                 7.6003
 Frc consts  --      1.3066                 0.7338                 1.5614
 IR Inten    --      5.1739                 0.0435                 2.6762

                     19                     20                     21
                      A                      A                      A
 Frequencies --    647.8317               683.8673               737.5831
 Red. masses --      6.3151                 6.5906                 6.4679
 Frc consts  --      1.5616                 1.8160                 2.0732
 IR Inten    --      0.0089                 4.4190                15.2476

                     22                     23                     24
                      A                      A                      A
 Frequencies --    756.4596               767.8887               768.1739
 Red. masses --      1.9777                 3.3884                 9.8229
 Frc consts  --      0.6668                 1.1772                 3.4151
 IR Inten    --     29.3363                 0.4647                21.6628

                     25                     26                     27
                      A                      A                      A
 Frequencies --    773.1990               785.3177               856.4639
 Red. masses --      1.3383                 1.9515                 6.1306
 Frc consts  --      0.4714                 0.7091                 2.6496
 IR Inten    --     57.2396                42.6936                13.6659

                     28                     29                     30
                      A                      A                      A
 Frequencies --    880.5306               886.8607               895.7707
 Red. masses --      1.5684                 1.4058                 6.7930
 Frc consts  --      0.7165                 0.6515                 3.2115
 IR Inten    --      5.5415                 0.3743                 6.3837

                     31                     32                     33
                      A                      A                      A
 Frequencies --    964.7345               975.2196              1009.7714
 Red. masses --      1.3675                 1.3662                 1.2166
 Frc consts  --      0.7499                 0.7655                 0.7309
 IR Inten    --      1.4378                 1.2333                18.5911

                     34                     35                     36
                      A                      A                      A
 Frequencies --   1012.9181              1015.2502              1015.5129
 Red. masses --      1.1413                 7.8312                 1.2927
 Frc consts  --      0.6899                 4.7558                 0.7855
 IR Inten    --     52.9943                41.4651                 3.9655

                     37                     38                     39
                      A                      A                      A
 Frequencies --   1052.3775              1072.9197              1109.7446
 Red. masses --      2.0025                 1.8768                 3.2123
 Frc consts  --      1.3067                 1.2729                 2.3308
 IR Inten    --      9.3596                 6.0297                 5.6015

                     40                     41                     42
                      A                      A                      A
 Frequencies --   1159.3331              1161.4410              1179.7878
 Red. masses --      1.3952                 1.3955                 1.2288
 Frc consts  --      1.1049                 1.1091                 1.0077
 IR Inten    --      8.2175                 3.6696                30.3455

                     43                     44                     45
                      A                      A                      A
 Frequencies --   1186.1269              1267.5450              1283.8256
 Red. masses --      1.3014                 2.2495                 3.2419
 Frc consts  --      1.0788                 2.1294                 3.1482
 IR Inten    --      6.8208                59.8889               149.3335

                     46                     47                     48
                      A                      A                      A
 Frequencies --   1298.1498              1324.3580              1362.4747
 Red. masses --      1.6916                 2.0927                 3.3450
 Frc consts  --      1.6796                 2.1625                 3.6585
 IR Inten    --     44.3791                71.0470                27.6747

                     49                     50                     51
                      A                      A                      A
 Frequencies --   1374.6020              1381.5949              1483.2830
 Red. masses --      5.2665                 7.5987                 2.6846
 Frc consts  --      5.8631                 8.5457                 3.4800
 IR Inten    --     13.6495                 2.8254                29.7443

                     52                     53                     54
                      A                      A                      A
 Frequencies --   1493.3659              1503.3068              1538.5442
 Red. masses --      2.6621                 2.8255                 3.7035
 Frc consts  --      3.4980                 3.7622                 5.1651
 IR Inten    --     19.7076                29.5875                88.5157

                     55                     56                     57
                      A                      A                      A
 Frequencies --   1576.8990              1619.9284              1651.5030
 Red. masses --      6.5947                 3.1231                 6.9418
 Frc consts  --      9.6617                 4.8287                11.1553
 IR Inten    --    285.1460                 5.7494                 8.5745

                     58                     59                     60
                      A                      A                      A
 Frequencies --   1677.0757              1698.8440              1743.5711
 Red. masses --      6.7331                 6.1725                 1.4987
 Frc consts  --     11.1576                10.4958                 2.6844
 IR Inten    --     33.3590               184.6185               223.5761

                     61                     62                     63
                      A                      A                      A
 Frequencies --   2485.7342              3205.6916              3209.5200
 Red. masses --      1.0915                 1.0861                 1.0862
 Frc consts  --      3.9737                 6.5762                 6.5921
 IR Inten    --   1565.2904                 0.9165                 1.5275

                     64                     65                     66
                      A                      A                      A
 Frequencies --   3210.7726              3219.6898              3227.1353
 Red. masses --      1.0903                 1.0904                 1.0942
 Frc consts  --      6.6226                 6.6596                 6.7137
 IR Inten    --     11.7894                 2.4544                15.1547

                     67                     68                     69
                      A                      A                      A
 Frequencies --   3228.9475              3236.3570              3238.0941
 Red. masses --      1.0958                 1.1000                 1.0991
 Frc consts  --      6.7315                 6.7885                 6.7898
 IR Inten    --      9.0624                16.8224                12.7926

 - Thermochemistry -
 -------------------
 Temperature   298.150 Kelvin.  Pressure   1.00000 Atm.
 Atom     1 has atomic number  6 and mass  12.00000

 Molecular mass:   227.04049 amu.
 Principal axes and moments of inertia in atomic units:
                           1         2         3
     Eigenvalues --  1266.518516280.869737547.38822
           X           -0.70491   0.70929  -0.00000
           Y            0.70929   0.70491  -0.00002
           Z            0.00001   0.00001   1.00000
 This molecule is an asymmetric top.
 Rotational symmetry number  1.
 Warning -- assumption of classical behavior for rotation
           may cause significant error
 Rotational temperatures (Kelvin)      0.06839     0.01379     0.01148
 Rotational constants (GHZ):           1.42496     0.28734     0.23912
    1 imaginary frequencies ignored.
 Zero-point vibrational energy     498048.7 (Joules/Mol)
                                  119.03649 (Kcal/Mol)
 Warning -- explicit consideration of  17 degrees of freedom as
           vibrations may cause significant error
 Vibrational temperatures:     93.99   192.21   217.41   283.44   351.00
          (Kelvin)            408.04   475.12   475.20   613.77   627.52
                              666.45   743.43   757.31   771.94   810.33
                              830.17   849.59   932.09   983.93  1061.22
                             1088.38  1104.82  1105.23  1112.46  1129.90
                             1232.26  1266.89  1275.99  1288.81  1388.04
                             1403.12  1452.84  1457.36  1460.72  1461.10
                             1514.14  1543.69  1596.67  1668.02  1671.05
                             1697.45  1706.57  1823.71  1847.14  1867.75
                             1905.46  1960.30  1977.75  1987.81  2134.11
                             2148.62  2162.92  2213.62  2268.81  2330.72
                             2376.14  2412.94  2444.26  2508.61  3576.42
                             4612.28  4617.78  4619.59  4632.42  4643.13
                             4645.74  4656.40  4658.90

 Zero-point correction=                           0.189697 (Hartree/Particle)
 Thermal correction to Energy=                    0.200373
 Thermal correction to Enthalpy=                  0.201317
 Thermal correction to Gibbs Free Energy=         0.152804
 Sum of electronic and zero-point Energies=          -1028.633163
 Sum of electronic and thermal Energies=             -1028.622487
 Sum of electronic and thermal Enthalpies=           -1028.621543
 Sum of electronic and thermal Free Energies=        -1028.670056

                     E (Thermal)             CV                S
                      KCal/Mol        Cal/Mol-Kelvin    Cal/Mol-Kelvin
 Total                  125.736             45.009            102.105
 Electronic               0.000              0.000              0.000
 Translational            0.889              2.981             42.162
 Rotational               0.889              2.981             32.462
 Vibrational            123.959             39.047             27.481
 Vibration     1          0.597              1.971              4.289
 Vibration     2          0.613              1.920              2.894
 Vibration     3          0.619              1.901              2.658
 Vibration     4          0.636              1.844              2.161
 Vibration     5          0.659              1.773              1.774
 Vibration     6          0.682              1.704              1.512
 Vibration     7          0.713              1.615              1.259
 Vibration     8          0.713              1.615              1.259
 Vibration     9          0.788              1.412              0.870
 Vibration    10          0.797              1.391              0.839
 Vibration    11          0.821              1.332              0.757
 Vibration    12          0.872              1.213              0.618
 Vibration    13          0.881              1.192              0.595
 Vibration    14          0.892              1.169              0.573
 Vibration    15          0.919              1.111              0.517
 Vibration    16          0.933              1.081              0.491
 Vibration    17          0.948              1.052              0.466

 Optimization completed.
    -- Stationary point found.
 Normal termination of Gaussian 16 at Wed Oct 28 02:20:30 2020.
