 Gaussian 16, Revision C.01,
 Gaussian 16:  ES64L-G16RevC.01  3-Jul-2019

 ----------------------------------------------------------------------
 #p opt=addgic freq wb97xd/cc-pvdz nosymm int=ultrafine scrf=(solvent=C
 arbonTetraChloride)
 ----------------------------------------------------------------------

 ------------------------------------------------
 NM 2D-scan of HBT TD-WB97XD pVDZ in CTC Relaxed.
 ------------------------------------------------
 Symbolic Z-matrix:
 Charge =  0 Multiplicity = 1

 SCF Done:  E(RwB97XD) =  -1028.80116695     A.U. after   15 cycles
 SCF Done:  E(RwB97XD) =  -1028.81093226     A.U. after   13 cycles
 SCF Done:  E(RwB97XD) =  -1028.81159973     A.U. after   13 cycles
 SCF Done:  E(RwB97XD) =  -1028.81230895     A.U. after   12 cycles
 SCF Done:  E(RwB97XD) =  -1028.81290289     A.U. after   12 cycles
 SCF Done:  E(RwB97XD) =  -1028.81292950     A.U. after   10 cycles
 SCF Done:  E(RwB97XD) =  -1028.81286439     A.U. after   11 cycles
 SCF Done:  E(RwB97XD) =  -1028.81292931     A.U. after   10 cycles
 SCF Done:  E(RwB97XD) =  -1028.81293481     A.U. after   10 cycles
 Optimization completed.
    -- Stationary point found.
 Normal termination of Gaussian 16 at Wed Oct 28 03:02:23 2020.

 --------------------------------------------------------------------
 #P Geom=AllCheck Guess=TCheck SCRF=Check GenChk RwB97XD/CC-pVDZ Freq
 --------------------------------------------------------------------

 Structure from the checkpoint file:  "config_5_20.chk"
 ------------------------------------------------
 NM 2D-scan of HBT TD-WB97XD pVDZ in CTC Relaxed.
 ------------------------------------------------
 Charge =  0 Multiplicity = 1

                          Input orientation:
 ---------------------------------------------------------------------
 Center     Atomic      Atomic             Coordinates (Angstroms)
 Number     Number       Type             X           Y           Z
 ---------------------------------------------------------------------
      1          6           0        1.491250   -3.231062   -0.000245
      2          6           0        1.016773   -1.926220   -0.000171
      3          6           0        1.826522   -0.780667    0.000038
      4          6           0        3.218190   -0.986423    0.000155
      5          6           0        3.707217   -2.297820    0.000083
      6          6           0        2.861715   -3.416729   -0.000110
      7          1           0        0.795556   -4.070687   -0.000386
      8          1           0        3.908852   -0.142245    0.000315
      9          1           0        4.787594   -2.451108    0.000188
     10          1           0        3.280389   -4.423740   -0.000147
     11          7           0        1.047898    0.395388    0.000141
     12         16           0       -0.663867   -1.515315   -0.000248
     13          6           0       -1.300078    1.124133    0.000107
     14          6           0       -2.636082    0.717832    0.000250
     15          6           0       -0.910033    2.477860   -0.000052
     16          6           0       -3.654931    1.654317    0.000204
     17          1           0       -2.884183   -0.345404    0.000419
     18          6           0       -1.970115    3.427018   -0.000127
     19          6           0       -3.302716    3.009326   -0.000008
     20          1           0       -4.699242    1.342239    0.000321
     21          1           0       -1.729696    4.491339   -0.000292
     22          1           0       -4.090572    3.765917   -0.000075
     23          6           0       -0.243875    0.138944    0.000046
     24          8           0        0.377304    2.744178   -0.000174
     25          1           0        0.920744    1.803711   -0.000117
 ---------------------------------------------------------------------

 SCF Done:  E(RwB97XD) =  -1028.81293481     A.U. after    1 cycles

 Alpha  occ. eigenvalues --  -89.08544 -19.26332 -14.48025 -10.39433 -10.37055
 Alpha  occ. eigenvalues --  -10.35947 -10.34657 -10.32370 -10.32300 -10.31848
 Alpha  occ. eigenvalues --  -10.31746 -10.31670 -10.31430 -10.31286 -10.30215
 Alpha  occ. eigenvalues --  -10.30048  -8.10807  -6.05638  -6.05273  -6.04859
 Alpha  occ. eigenvalues --   -1.15159  -1.09209  -0.97571  -0.96345  -0.92502
 Alpha  occ. eigenvalues --   -0.88719  -0.85921  -0.84261  -0.82977  -0.75571
 Alpha  occ. eigenvalues --   -0.71719  -0.70965  -0.69289  -0.67770  -0.63514
 Alpha  occ. eigenvalues --   -0.60894  -0.59237  -0.58239  -0.56319  -0.54644
 Alpha  occ. eigenvalues --   -0.54591  -0.53627  -0.52885  -0.50905  -0.50090
 Alpha  occ. eigenvalues --   -0.49233  -0.46742  -0.46276  -0.45428  -0.45174
 Alpha  occ. eigenvalues --   -0.44274  -0.42776  -0.42689  -0.40089  -0.36304
 Alpha  occ. eigenvalues --   -0.36270  -0.32368  -0.31625  -0.28821
 Alpha virt. eigenvalues --   -0.00594   0.04628   0.06514   0.07467   0.08160
 Alpha virt. eigenvalues --    0.11187   0.14859   0.15207   0.17605   0.17992
 Alpha virt. eigenvalues --    0.19160   0.21026   0.21649   0.22366   0.22672

 Mulliken charges:
               1
     1  C    0.022444
     2  C   -0.212610
     3  C    0.233380
     4  C   -0.022669
     5  C    0.001068
     6  C    0.006301
     7  H    0.019474
     8  H    0.024780
     9  H    0.022511
    10  H    0.022530
    11  N   -0.352522
    12  S    0.161808
    13  C   -0.051890
    14  C   -0.036572
    15  C    0.099121
    16  C   -0.010302
    17  H    0.024019
    18  C   -0.017284
    19  C    0.021723
    20  H    0.007923
    21  H    0.014242
    22  H    0.018468
    23  C    0.086567
    24  O   -0.276548
    25  H    0.194040
 Sum of Mulliken charges =  -0.00000

 Dipole moment (field-independent basis, Debye):
    X=              0.0425    Y=             -3.5081    Z=             -0.0000  Tot=              3.5083
 Quadrupole moment (field-independent basis, Debye-Ang):
   XX=            -82.5673   YY=            -91.3518   ZZ=           -103.9055
   XY=             -7.3474   XZ=              0.0002   YZ=              0.0004

  Exact polarizability:     274.044     -69.918     255.114       0.002       0.002      62.778
 Approx polarizability:     261.639     -24.038     242.400       0.003       0.002      82.146

 ******    1 imaginary frequencies (negative Signs) ******

                      1                      2                      3
                      A                      A                      A
 Frequencies --    -50.7607                65.4781               120.8240
 Red. masses --      5.3656                 6.2054                 5.4642
 Frc consts  --      0.0081                 0.0157                 0.0470
 IR Inten    --      0.0330                 1.1379                14.4772

                      4                      5                      6
                      A                      A                      A
 Frequencies --    150.5746               197.5342               242.5167
 Red. masses --      5.0062                 6.2817                 5.4741
 Frc consts  --      0.0669                 0.1444                 0.1897
 IR Inten    --      0.4727                 0.5212                 0.0800

                      7                      8                      9
                      A                      A                      A
 Frequencies --    277.2718               321.0577               330.1575
 Red. masses --      6.9600                 5.4832                 5.1253
 Frc consts  --      0.3153                 0.3330                 0.3292
 IR Inten    --      6.3333                49.5644                 0.0293

                     10                     11                     12
                      A                      A                      A
 Frequencies --    434.6012               434.8307               461.0131
 Red. masses --     10.7530                 3.0735                 3.5170
 Frc consts  --      1.1966                 0.3424                 0.4404
 IR Inten    --      0.2635                 1.2787                 8.6005

                     13                     14                     15
                      A                      A                      A
 Frequencies --    495.6107               522.3641               536.2939
 Red. masses --      5.2746                 8.1548                 3.4262
 Frc consts  --      0.7633                 1.3110                 0.5806
 IR Inten    --     57.4964                11.2915                 3.3516

                     16                     17                     18
                      A                      A                      A
 Frequencies --    568.5684               576.9206               586.8276
 Red. masses --      7.1087                 3.7397                 7.5975
 Frc consts  --      1.3540                 0.7334                 1.5415
 IR Inten    --      9.1154                 0.0720                 1.4569

                     19                     20                     21
                      A                      A                      A
 Frequencies --    648.0254               685.5792               742.3851
 Red. masses --      6.3826                 6.5443                 6.4271
 Frc consts  --      1.5792                 1.8123                 2.0870
 IR Inten    --      0.0085                 6.1218                23.4697

                     22                     23                     24
                      A                      A                      A
 Frequencies --    756.3797               768.6542               772.0342
 Red. masses --      2.0947                 2.5069                 1.5625
 Frc consts  --      0.7061                 0.8727                 0.5487
 IR Inten    --     27.1902                 9.3396                45.7301

                     25                     26                     27
                      A                      A                      A
 Frequencies --    781.8274               783.7835               858.1980
 Red. masses --      8.8891                 1.8674                 6.0125
 Frc consts  --      3.2013                 0.6759                 2.6091
 IR Inten    --     30.9830                48.1494                11.0929

                     28                     29                     30
                      A                      A                      A
 Frequencies --    878.4146               886.1179               896.5170
 Red. masses --      1.5805                 1.3955                 6.8126
 Frc consts  --      0.7185                 0.6456                 3.2261
 IR Inten    --      6.0016                 0.4018                26.9718

                     31                     32                     33
                      A                      A                      A
 Frequencies --    962.5487               974.7210              1010.2152
 Red. masses --      1.3675                 1.3660                 1.3051
 Frc consts  --      0.7465                 0.7647                 0.7847
 IR Inten    --      1.1256                 1.4938                 0.2354

                     34                     35                     36
                      A                      A                      A
 Frequencies --   1015.7452              1023.5921              1052.2477
 Red. masses --      1.3060                 7.7018                 2.0383
 Frc consts  --      0.7939                 4.7544                 1.3297
 IR Inten    --      0.0023                46.2972                12.6328

                     37                     38                     39
                      A                      A                      A
 Frequencies --   1065.2550              1103.4264              1112.1907
 Red. masses --      1.8371                 1.0572                 3.0838
 Frc consts  --      1.2283                 0.7584                 2.2475
 IR Inten    --      6.0376                72.5864                 6.9159

                     40                     41                     42
                      A                      A                      A
 Frequencies --   1156.8306              1164.6142              1171.3236
 Red. masses --      1.4331                 1.3954                 1.2279
 Frc consts  --      1.1300                 1.1151                 0.9926
 IR Inten    --     26.1017                 1.9878                18.0025

                     43                     44                     45
                      A                      A                      A
 Frequencies --   1185.2484              1240.0216              1259.7323
 Red. masses --      1.3371                 2.8432                 1.8777
 Frc consts  --      1.1067                 2.5758                 1.7557
 IR Inten    --      9.0098               252.2153               119.2308

                     46                     47                     48
                      A                      A                      A
 Frequencies --   1291.0616              1309.3248              1350.0113
 Red. masses --      1.5274                 3.7393                 3.3097
 Frc consts  --      1.5000                 3.7769                 3.5540
 IR Inten    --     16.5987               162.2547                37.3030

                     49                     50                     51
                      A                      A                      A
 Frequencies --   1372.0922              1380.4276              1469.0241
 Red. masses --      3.1864                 6.5335                 3.1213
 Frc consts  --      3.5344                 7.3354                 3.9687
 IR Inten    --     11.6667                17.7361                93.3000

                     52                     53                     54
                      A                      A                      A
 Frequencies --   1480.5834              1492.8555              1508.3438
 Red. masses --      2.4639                 2.6614                 3.1333
 Frc consts  --      3.1823                 3.4946                 4.2000
 IR Inten    --     73.4392                14.5525                23.2114

                     55                     56                     57
                      A                      A                      A
 Frequencies --   1572.3301              1625.6981              1651.0414
 Red. masses --      5.8332                 4.2586                 6.5919
 Frc consts  --      8.4966                 6.6312                10.5871
 IR Inten    --    262.8858                49.6788               141.5652

                     58                     59                     60
                      A                      A                      A
 Frequencies --   1668.1902              1692.0006              1763.9500
 Red. masses --      5.8795                 6.6670                 1.9331
 Frc consts  --      9.6400                11.2456                 3.5439
 IR Inten    --    357.0480               263.4941              1142.8946

                     61                     62                     63
                      A                      A                      A
 Frequencies --   1846.6811              3203.9191              3209.1315
 Red. masses --      1.1379                 1.0863                 1.0907
 Frc consts  --      2.2863                 6.5698                 6.6179
 IR Inten    --    397.4908                 0.7379                 9.7543

                     64                     65                     66
                      A                      A                      A
 Frequencies --   3210.2261              3219.4200              3224.7371
 Red. masses --      1.0862                 1.0906                 1.0939
 Frc consts  --      6.5951                 6.6600                 6.7025
 IR Inten    --      1.3927                 1.9551                17.7348

                     67                     68                     69
                      A                      A                      A
 Frequencies --   3228.6762              3236.7111              3237.9330
 Red. masses --      1.0957                 1.1002                 1.0987
 Frc consts  --      6.7297                 6.7909                 6.7870
 IR Inten    --      8.5165                16.9512                12.6626

 - Thermochemistry -
 -------------------
 Temperature   298.150 Kelvin.  Pressure   1.00000 Atm.
 Atom     1 has atomic number  6 and mass  12.00000

 Molecular mass:   227.04049 amu.
 Principal axes and moments of inertia in atomic units:
                           1         2         3
     Eigenvalues --  1252.154976247.516697499.67162
           X            0.70798   0.70623  -0.00001
           Y           -0.70623   0.70798  -0.00002
           Z           -0.00001   0.00002   1.00000
 This molecule is an asymmetric top.
 Rotational symmetry number  1.
 Warning -- assumption of classical behavior for rotation
           may cause significant error
 Rotational temperatures (Kelvin)      0.06917     0.01386     0.01155
 Rotational constants (GHZ):           1.44131     0.28887     0.24064
    1 imaginary frequencies ignored.
 Zero-point vibrational energy     493593.8 (Joules/Mol)
                                  117.97176 (Kcal/Mol)
 Warning -- explicit consideration of  17 degrees of freedom as
           vibrations may cause significant error
 Vibrational temperatures:     94.21   173.84   216.64   284.21   348.93
          (Kelvin)            398.93   461.93   475.02   625.29   625.62
                              663.30   713.07   751.57   771.61   818.04
                              830.06   844.31   932.36   986.40  1068.13
                             1088.26  1105.92  1110.78  1124.88  1127.69
                             1234.76  1263.84  1274.93  1289.89  1384.89
                             1402.41  1453.47  1461.43  1472.72  1513.95
                             1532.66  1587.58  1600.19  1664.42  1675.62
                             1685.27  1705.31  1784.11  1812.47  1857.55
                             1883.83  1942.37  1974.13  1986.13  2113.60
                             2130.23  2147.89  2170.17  2262.23  2339.02
                             2375.48  2400.15  2434.41  2537.93  2656.96
                             4609.73  4617.22  4618.80  4632.03  4639.68
                             4645.34  4656.91  4658.66

 Zero-point correction=                           0.188000 (Hartree/Particle)
 Thermal correction to Energy=                    0.198724
 Thermal correction to Enthalpy=                  0.199668
 Thermal correction to Gibbs Free Energy=         0.151023
 Sum of electronic and zero-point Energies=          -1028.624935
 Sum of electronic and thermal Energies=             -1028.614211
 Sum of electronic and thermal Enthalpies=           -1028.613267
 Sum of electronic and thermal Free Energies=        -1028.661912

                     E (Thermal)             CV                S
                      KCal/Mol        Cal/Mol-Kelvin    Cal/Mol-Kelvin
 Total                  124.701             45.065            102.383
 Electronic               0.000              0.000              0.000
 Translational            0.889              2.981             42.162
 Rotational               0.889              2.981             32.439
 Vibrational            122.924             39.103             27.782
 Vibration     1          0.597              1.971              4.285
 Vibration     2          0.609              1.932              3.087
 Vibration     3          0.618              1.902              2.665
 Vibration     4          0.637              1.843              2.156
 Vibration     5          0.659              1.775              1.784
 Vibration     6          0.678              1.715              1.550
 Vibration     7          0.707              1.633              1.305
 Vibration     8          0.713              1.615              1.259
 Vibration     9          0.795              1.395              0.844
 Vibration    10          0.795              1.394              0.843
 Vibration    11          0.819              1.337              0.763
 Vibration    12          0.851              1.260              0.669
 Vibration    13          0.877              1.200              0.605
 Vibration    14          0.891              1.170              0.573
 Vibration    15          0.925              1.099              0.507
 Vibration    16          0.933              1.081              0.491
 Vibration    17          0.944              1.060              0.473

 Optimization completed.
    -- Stationary point found.
 Normal termination of Gaussian 16 at Wed Oct 28 03:09:35 2020.
