 Gaussian 16, Revision C.01,
 Gaussian 16:  ES64L-G16RevC.01  3-Jul-2019

 ----------------------------------------------------------------------
 #p opt=addgic freq wb97xd/cc-pvdz nosymm int=ultrafine scrf=(solvent=C
 arbonTetraChloride)
 ----------------------------------------------------------------------

 ------------------------------------------------
 NM 2D-scan of HBT TD-WB97XD pVDZ in CTC Relaxed.
 ------------------------------------------------
 Symbolic Z-matrix:
 Charge =  0 Multiplicity = 1

 SCF Done:  E(RwB97XD) =  -1028.81378387     A.U. after   15 cycles
 SCF Done:  E(RwB97XD) =  -1028.82050033     A.U. after   13 cycles
 SCF Done:  E(RwB97XD) =  -1028.81989046     A.U. after   13 cycles
 SCF Done:  E(RwB97XD) =  -1028.82216027     A.U. after   12 cycles
 SCF Done:  E(RwB97XD) =  -1028.82218570     A.U. after   10 cycles
 SCF Done:  E(RwB97XD) =  -1028.82218805     A.U. after    9 cycles
 SCF Done:  E(RwB97XD) =  -1028.82218859     A.U. after    9 cycles
 SCF Done:  E(RwB97XD) =  -1028.82218874     A.U. after    7 cycles
 Optimization completed.
    -- Stationary point found.
 Normal termination of Gaussian 16 at Tue Oct 27 21:32:27 2020.

 --------------------------------------------------------------------
 #P Geom=AllCheck Guess=TCheck SCRF=Check GenChk RwB97XD/CC-pVDZ Freq
 --------------------------------------------------------------------

 Structure from the checkpoint file:  "config_6_4.chk"
 ------------------------------------------------
 NM 2D-scan of HBT TD-WB97XD pVDZ in CTC Relaxed.
 ------------------------------------------------
 Charge =  0 Multiplicity = 1

                          Input orientation:
 ---------------------------------------------------------------------
 Center     Atomic      Atomic             Coordinates (Angstroms)
 Number     Number       Type             X           Y           Z
 ---------------------------------------------------------------------
      1          6           0        1.718729   -3.267845   -0.000051
      2          6           0        1.001951   -2.069033   -0.000020
      3          6           0        1.673258   -0.840803    0.000009
      4          6           0        3.069954   -0.775364    0.000013
      5          6           0        3.779724   -1.966259   -0.000017
      6          6           0        3.108770   -3.199401   -0.000049
      7          1           0        1.208731   -4.231359   -0.000074
      8          1           0        3.568607    0.194205    0.000036
      9          1           0        4.870349   -1.946035   -0.000015
     10          1           0        3.685873   -4.125135   -0.000073
     11          7           0        0.826593    0.239052    0.000025
     12         16           0       -0.740746   -1.785858   -0.000009
     13          6           0       -1.408037    1.053452    0.000016
     14          6           0       -2.801734    0.889135    0.000016
     15          6           0       -0.853228    2.374191    0.000020
     16          6           0       -3.656859    1.982889    0.000030
     17          1           0       -3.218088   -0.121636    0.000010
     18          6           0       -1.743862    3.469255    0.000036
     19          6           0       -3.114726    3.275832    0.000042
     20          1           0       -4.736864    1.834843    0.000032
     21          1           0       -1.310811    4.470346    0.000042
     22          1           0       -3.778785    4.142718    0.000055
     23          6           0       -0.448659   -0.050494    0.000011
     24          8           0        0.443535    2.593939    0.000005
     25          1           0        0.894143    1.638811   -0.000001
 ---------------------------------------------------------------------

 SCF Done:  E(RwB97XD) =  -1028.82218874     A.U. after    1 cycles

 Alpha  occ. eigenvalues --  -89.09274 -19.26027 -14.47238 -10.39965 -10.36964
 Alpha  occ. eigenvalues --  -10.35254 -10.35184 -10.32675 -10.32069 -10.31952
 Alpha  occ. eigenvalues --  -10.31845 -10.31772 -10.31702 -10.31140 -10.29889
 Alpha  occ. eigenvalues --  -10.29626  -8.11253  -6.06118  -6.05751  -6.05294
 Alpha  occ. eigenvalues --   -1.15399  -1.09542  -0.97488  -0.95813  -0.91830
 Alpha  occ. eigenvalues --   -0.88709  -0.85478  -0.84191  -0.83046  -0.75637
 Alpha  occ. eigenvalues --   -0.71450  -0.70465  -0.69227  -0.68474  -0.63216
 Alpha  occ. eigenvalues --   -0.60768  -0.59060  -0.58037  -0.56127  -0.54552
 Alpha  occ. eigenvalues --   -0.54489  -0.53430  -0.52409  -0.51117  -0.49951
 Alpha  occ. eigenvalues --   -0.49740  -0.47411  -0.46150  -0.45285  -0.45090
 Alpha  occ. eigenvalues --   -0.43867  -0.42955  -0.42482  -0.40066  -0.36264
 Alpha  occ. eigenvalues --   -0.35830  -0.32551  -0.31544  -0.28536
 Alpha virt. eigenvalues --   -0.00611   0.04542   0.06885   0.07417   0.07606
 Alpha virt. eigenvalues --    0.11179   0.13533   0.15027   0.16109   0.17839
 Alpha virt. eigenvalues --    0.19085   0.20783   0.21760   0.22495   0.22648

 Mulliken charges:
               1
     1  C    0.008216
     2  C   -0.232756
     3  C    0.265438
     4  C   -0.011531
     5  C    0.008254
     6  C    0.000922
     7  H    0.021204
     8  H    0.023044
     9  H    0.022033
    10  H    0.023018
    11  N   -0.324632
    12  S    0.157981
    13  C   -0.093493
    14  C   -0.014926
    15  C    0.091200
    16  C   -0.015394
    17  H    0.006883
    18  C   -0.000560
    19  C    0.022016
    20  H    0.008083
    21  H    0.012019
    22  H    0.016797
    23  C    0.081079
    24  O   -0.253780
    25  H    0.178881
 Sum of Mulliken charges =  -0.00000

 Dipole moment (field-independent basis, Debye):
    X=              0.4881    Y=             -3.1327    Z=             -0.0000  Tot=              3.1705
 Quadrupole moment (field-independent basis, Debye-Ang):
   XX=            -82.7337   YY=            -90.6900   ZZ=           -104.0778
   XY=             -7.1595   XZ=             -0.0001   YZ=              0.0003

  Exact polarizability:     276.871     -68.947     259.161      -0.001       0.003      62.989
 Approx polarizability:     263.968     -24.424     244.356      -0.001       0.002      82.228

 ******    1 imaginary frequencies (negative Signs) ******

                      1                      2                      3
                      A                      A                      A
 Frequencies --     -7.0972                62.7707               123.7908
 Red. masses --      5.5034                 6.0428                 5.6020
 Frc consts  --      0.0002                 0.0140                 0.0506
 IR Inten    --      0.0339                 1.4790                 2.3645

                      4                      5                      6
                      A                      A                      A
 Frequencies --    151.8757               197.5327               244.1540
 Red. masses --      4.9839                 5.8134                 5.7847
 Frc consts  --      0.0677                 0.1336                 0.2032
 IR Inten    --      0.1679                 0.4025                 0.1380

                      7                      8                      9
                      A                      A                      A
 Frequencies --    271.4653               325.4839               341.9430
 Red. masses --      7.3291                 5.1672                 5.9620
 Frc consts  --      0.3182                 0.3225                 0.4107
 IR Inten    --      0.7498                 0.3929                17.7484

                     10                     11                     12
                      A                      A                      A
 Frequencies --    409.4504               436.3679               461.6281
 Red. masses --     10.2516                 3.1313                 3.6482
 Frc consts  --      1.0126                 0.3513                 0.4580
 IR Inten    --      0.3205                 2.0443                 8.4953

                     13                     14                     15
                      A                      A                      A
 Frequencies --    515.1108               523.8724               539.5588
 Red. masses --      8.0803                 5.3292                 3.4472
 Frc consts  --      1.2632                 0.8617                 0.5913
 IR Inten    --      2.1595                34.9269                 3.7047

                     16                     17                     18
                      A                      A                      A
 Frequencies --    556.6229               573.5070               592.4654
 Red. masses --      7.2273                 3.6676                 7.6601
 Frc consts  --      1.3193                 0.7107                 1.5842
 IR Inten    --      9.1324                 0.1023                 3.0350

                     19                     20                     21
                      A                      A                      A
 Frequencies --    648.6049               687.0901               713.0047
 Red. masses --      6.4139                 6.3132                 6.6928
 Frc consts  --      1.5898                 1.7560                 2.0047
 IR Inten    --      0.0173                16.0019                22.6488

                     22                     23                     24
                      A                      A                      A
 Frequencies --    754.6342               758.9434               768.0455
 Red. masses --      2.1087                10.0719                 2.6835
 Frc consts  --      0.7075                 3.4181                 0.9327
 IR Inten    --     22.5643                13.4954                 5.3211

                     25                     26                     27
                      A                      A                      A
 Frequencies --    775.0287               784.4090               848.9491
 Red. masses --      1.4702                 1.8256                 5.9505
 Frc consts  --      0.5203                 0.6618                 2.5268
 IR Inten    --     60.9727                37.3167                16.6604

                     28                     29                     30
                      A                      A                      A
 Frequencies --    882.5184               885.7610               914.7683
 Red. masses --      1.5837                 1.4120                 6.7015
 Frc consts  --      0.7267                 0.6527                 3.3040
 IR Inten    --      5.7335                 0.2359                 0.8438

                     31                     32                     33
                      A                      A                      A
 Frequencies --    968.7850               975.4400               999.2922
 Red. masses --      1.3559                 1.3608                 7.3081
 Frc consts  --      0.7498                 0.7629                 4.2997
 IR Inten    --      1.1844                 0.8764                63.9614

                     34                     35                     36
                      A                      A                      A
 Frequencies --   1010.5873              1016.0707              1053.3136
 Red. masses --      1.2998                 1.3048                 2.0341
 Frc consts  --      0.7821                 0.7937                 1.3296
 IR Inten    --      0.1563                 0.0247                 8.9727

                     37                     38                     39
                      A                      A                      A
 Frequencies --   1065.2534              1073.5934              1096.3533
 Red. masses --      1.9363                 1.0660                 4.1957
 Frc consts  --      1.2946                 0.7239                 2.9714
 IR Inten    --      9.3396                70.5766                 4.4859

                     40                     41                     42
                      A                      A                      A
 Frequencies --   1146.1511              1152.9587              1170.5654
 Red. masses --      1.4883                 1.2929                 1.1393
 Frc consts  --      1.1519                 1.0126                 0.9198
 IR Inten    --     20.6096                 3.0251                39.4732

                     43                     44                     45
                      A                      A                      A
 Frequencies --   1184.6065              1255.3141              1286.7996
 Red. masses --      1.1770                 1.8230                 1.6204
 Frc consts  --      0.9731                 1.6925                 1.5809
 IR Inten    --      0.0292               125.0358                 8.3274

                     46                     47                     48
                      A                      A                      A
 Frequencies --   1299.8518              1321.1528              1349.1456
 Red. masses --      2.7322                 3.2770                 6.4226
 Frc consts  --      2.7198                 3.3700                 6.8878
 IR Inten    --    111.0333               159.4731                 2.1696

                     49                     50                     51
                      A                      A                      A
 Frequencies --   1379.5190              1384.4473              1452.8260
 Red. masses --      5.9597                 2.9795                 2.3466
 Frc consts  --      6.6824                 3.3647                 2.9182
 IR Inten    --      8.6983                18.2591                 4.2513

                     52                     53                     54
                      A                      A                      A
 Frequencies --   1494.1517              1499.2401              1526.9884
 Red. masses --      2.7654                 2.7938                 4.2512
 Frc consts  --      3.6375                 3.6999                 5.8403
 IR Inten    --      6.0770                36.0458                81.7484

                     55                     56                     57
                      A                      A                      A
 Frequencies --   1581.2130              1600.3914              1656.5875
 Red. masses --      6.8578                 3.2469                 6.5483
 Frc consts  --     10.1022                 4.8997                10.5879
 IR Inten    --    286.4895                49.1635                37.4794

                     58                     59                     60
                      A                      A                      A
 Frequencies --   1670.7409              1699.6713              1714.1626
 Red. masses --      5.2637                 7.0534                 1.9928
 Frc consts  --      8.6569                12.0055                 3.4500
 IR Inten    --    261.0057               190.4327               425.0416

                     61                     62                     63
                      A                      A                      A
 Frequencies --   2193.3743              3189.5985              3203.1913
 Red. masses --      1.1101                 1.0897                 1.0884
 Frc consts  --      3.1467                 6.5318                 6.5795
 IR Inten    --   1476.6025                 4.3811                 6.5743

                     64                     65                     66
                      A                      A                      A
 Frequencies --   3213.7432              3224.5827              3225.6575
 Red. masses --      1.0863                 1.0906                 1.0937
 Frc consts  --      6.6101                 6.6813                 6.7047
 IR Inten    --      1.8087                 3.3162                12.7298

                     67                     68                     69
                      A                      A                      A
 Frequencies --   3233.7502              3234.6108              3240.6443
 Red. masses --      1.0985                 1.0960                 1.0998
 Frc consts  --      6.7679                 6.7565                 6.8052
 IR Inten    --     19.0372                 8.5104                13.5033

 - Thermochemistry -
 -------------------
 Temperature   298.150 Kelvin.  Pressure   1.00000 Atm.
 Atom     1 has atomic number  6 and mass  12.00000

 Molecular mass:   227.04049 amu.
 Principal axes and moments of inertia in atomic units:
                           1         2         3
     Eigenvalues --  1313.330966273.584477586.91543
           X           -0.70404   0.71016   0.00000
           Y            0.71016   0.70404  -0.00001
           Z            0.00001   0.00001   1.00000
 This molecule is an asymmetric top.
 Rotational symmetry number  1.
 Warning -- assumption of classical behavior for rotation
           may cause significant error
 Rotational temperatures (Kelvin)      0.06595     0.01381     0.01142
 Rotational constants (GHZ):           1.37417     0.28767     0.23788
    1 imaginary frequencies ignored.
 Zero-point vibrational energy     495216.2 (Joules/Mol)
                                  118.35951 (Kcal/Mol)
 Warning -- explicit consideration of  17 degrees of freedom as
           vibrations may cause significant error
 Vibrational temperatures:     90.31   178.11   218.52   284.21   351.28
          (Kelvin)            390.58   468.30   491.98   589.11   627.84
                              664.18   741.13   753.74   776.30   800.86
                              825.15   852.43   933.20   988.57  1025.85
                             1085.75  1091.95  1105.05  1115.09  1128.59
                             1221.45  1269.75  1274.41  1316.15  1393.87
                             1403.44  1437.76  1454.01  1461.90  1515.48
                             1532.66  1544.66  1577.41  1649.06  1658.85
                             1684.18  1704.38  1806.12  1851.42  1870.20
                             1900.84  1941.12  1984.82  1991.91  2090.29
                             2149.75  2157.07  2197.00  2275.01  2302.61
                             2383.46  2403.82  2445.45  2466.30  3155.78
                             4589.12  4608.68  4623.86  4639.46  4641.00
                             4652.65  4653.88  4662.56

 Zero-point correction=                           0.188618 (Hartree/Particle)
 Thermal correction to Energy=                    0.199355
 Thermal correction to Enthalpy=                  0.200299
 Thermal correction to Gibbs Free Energy=         0.151596
 Sum of electronic and zero-point Energies=          -1028.633571
 Sum of electronic and thermal Energies=             -1028.622834
 Sum of electronic and thermal Enthalpies=           -1028.621889
 Sum of electronic and thermal Free Energies=        -1028.670593

                     E (Thermal)             CV                S
                      KCal/Mol        Cal/Mol-Kelvin    Cal/Mol-Kelvin
 Total                  125.097             45.148            102.506
 Electronic               0.000              0.000              0.000
 Translational            0.889              2.981             42.162
 Rotational               0.889              2.981             32.502
 Vibrational            123.320             39.187             27.841
 Vibration     1          0.597              1.972              4.368
 Vibration     2          0.610              1.929              3.040
 Vibration     3          0.619              1.901              2.649
 Vibration     4          0.637              1.843              2.156
 Vibration     5          0.659              1.772              1.772
 Vibration     6          0.675              1.726              1.587
 Vibration     7          0.710              1.625              1.282
 Vibration     8          0.721              1.592              1.203
 Vibration     9          0.774              1.450              0.929
 Vibration    10          0.797              1.391              0.838
 Vibration    11          0.819              1.335              0.761
 Vibration    12          0.870              1.217              0.621
 Vibration    13          0.879              1.197              0.601
 Vibration    14          0.895              1.163              0.566
 Vibration    15          0.912              1.125              0.531
 Vibration    16          0.930              1.089              0.498
 Vibration    17          0.950              1.048              0.463

 Optimization completed.
    -- Stationary point found.
 Normal termination of Gaussian 16 at Tue Oct 27 21:40:05 2020.
