 Gaussian 16, Revision C.01,
 Gaussian 16:  ES64L-G16RevC.01  3-Jul-2019

 ----------------------------------------------------------------------
 #p opt=addgic freq wb97xd/cc-pvdz nosymm int=ultrafine scrf=(solvent=C
 arbonTetraChloride)
 ----------------------------------------------------------------------

 ------------------------------------------------
 NM 2D-scan of HBT TD-WB97XD pVDZ in CTC Relaxed.
 ------------------------------------------------
 Symbolic Z-matrix:
 Charge =  0 Multiplicity = 1

 SCF Done:  E(RwB97XD) =  -1028.51425479     A.U. after   16 cycles
 SCF Done:  E(RwB97XD) =  -1028.71602016     A.U. after   14 cycles
 SCF Done:  E(RwB97XD) =  -1028.77723197     A.U. after   15 cycles
 SCF Done:  E(RwB97XD) =  -1028.79119434     A.U. after   13 cycles
 SCF Done:  E(RwB97XD) =  -1028.79264627     A.U. after   12 cycles
 SCF Done:  E(RwB97XD) =  -1028.79296032     A.U. after   12 cycles
 SCF Done:  E(RwB97XD) =  -1028.79299061     A.U. after   10 cycles
 SCF Done:  E(RwB97XD) =  -1028.79299315     A.U. after    9 cycles
 Optimization completed.
    -- Stationary point found.
 Normal termination of Gaussian 16 at Tue Oct 27 23:41:19 2020.

 --------------------------------------------------------------------
 #P Geom=AllCheck Guess=TCheck SCRF=Check GenChk RwB97XD/CC-pVDZ Freq
 --------------------------------------------------------------------

 Structure from the checkpoint file:  "config_12_11.chk"
 ------------------------------------------------
 NM 2D-scan of HBT TD-WB97XD pVDZ in CTC Relaxed.
 ------------------------------------------------
 Charge =  0 Multiplicity = 1

                          Input orientation:
 ---------------------------------------------------------------------
 Center     Atomic      Atomic             Coordinates (Angstroms)
 Number     Number       Type             X           Y           Z
 ---------------------------------------------------------------------
      1          6           0        1.637806   -3.283206    0.000063
      2          6           0        1.009743   -2.044089    0.000033
      3          6           0        1.754432   -0.884160   -0.000040
      4          6           0        3.148178   -0.890469   -0.000070
      5          6           0        3.776760   -2.133806   -0.000034
      6          6           0        3.030532   -3.315678    0.000028
      7          1           0        1.057758   -4.205575    0.000107
      8          1           0        3.720208    0.038638   -0.000122
      9          1           0        4.866408   -2.179987   -0.000057
     10          1           0        3.543233   -4.277839    0.000048
     11          7           0        0.917501    0.217699   -0.000093
     12         16           0       -0.720842   -1.649821    0.000060
     13          6           0       -1.380034    1.106703   -0.000042
     14          6           0       -2.770560    0.838412   -0.000086
     15          6           0       -0.859721    2.475414    0.000052
     16          6           0       -3.700704    1.853353   -0.000026
     17          1           0       -3.112701   -0.201064   -0.000174
     18          6           0       -1.910681    3.504399    0.000147
     19          6           0       -3.248566    3.200063    0.000104
     20          1           0       -4.766891    1.625207   -0.000067
     21          1           0       -1.576487    4.544019    0.000250
     22          1           0       -3.987376    4.006027    0.000169
     23          6           0       -0.422469    0.062304   -0.000047
     24          8           0        0.356621    2.692990    0.000085
     25          1           0        1.474369    1.029634   -0.000204
 ---------------------------------------------------------------------

 SCF Done:  E(RwB97XD) =  -1028.79299315     A.U. after    1 cycles

 Alpha  occ. eigenvalues --  -89.09922 -19.21021 -14.52041 -10.41814 -10.36847
 Alpha  occ. eigenvalues --  -10.35936 -10.35773 -10.33334 -10.33162 -10.32702
 Alpha  occ. eigenvalues --  -10.32327 -10.31069 -10.30616 -10.30374 -10.29039
 Alpha  occ. eigenvalues --  -10.28547  -8.11966  -6.06858  -6.06457  -6.05967
 Alpha  occ. eigenvalues --   -1.13227  -1.10228  -0.98667  -0.95426  -0.93294
 Alpha  occ. eigenvalues --   -0.89198  -0.86604  -0.84006  -0.81527  -0.75605
 Alpha  occ. eigenvalues --   -0.74378  -0.71703  -0.69529  -0.67763  -0.64302
 Alpha  occ. eigenvalues --   -0.60903  -0.59794  -0.56610  -0.56025  -0.55990
 Alpha  occ. eigenvalues --   -0.55022  -0.53588  -0.52914  -0.50233  -0.49316
 Alpha  occ. eigenvalues --   -0.49008  -0.48233  -0.46697  -0.45653  -0.44694
 Alpha  occ. eigenvalues --   -0.44526  -0.42873  -0.41773  -0.40367  -0.36940
 Alpha  occ. eigenvalues --   -0.33622  -0.31697  -0.31096  -0.26023
 Alpha virt. eigenvalues --   -0.01336   0.03713   0.05977   0.06921   0.09672
 Alpha virt. eigenvalues --    0.11298   0.13282   0.14572   0.15903   0.16685
 Alpha virt. eigenvalues --    0.18143   0.19767   0.21056   0.21630   0.22965

 Mulliken charges:
               1
     1  C    0.011834
     2  C   -0.242308
     3  C    0.209518
     4  C   -0.014318
     5  C    0.011443
     6  C    0.003910
     7  H    0.024255
     8  H    0.032012
     9  H    0.027896
    10  H    0.026137
    11  N   -0.087435
    12  S    0.177613
    13  C   -0.105386
    14  C   -0.011750
    15  C    0.103611
    16  C   -0.035758
    17  H    0.005586
    18  C   -0.046382
    19  C    0.028941
    20  H    0.002085
    21  H    0.000785
    22  H    0.013666
    23  C    0.106369
    24  O   -0.357785
    25  H    0.115462
 Sum of Mulliken charges =  -0.00000

 Dipole moment (field-independent basis, Debye):
    X=              2.2845    Y=             -5.3064    Z=             -0.0003  Tot=              5.7773
 Quadrupole moment (field-independent basis, Debye-Ang):
   XX=            -81.1831   YY=            -95.4971   ZZ=           -104.0004
   XY=             -6.5283   XZ=             -0.0007   YZ=             -0.0006

  Exact polarizability:     291.905     -92.326     289.684      -0.002       0.003      62.934
 Approx polarizability:     268.757     -36.324     255.036      -0.001       0.001      81.931

 ******    1 imaginary frequencies (negative Signs) ******

                      1                      2                      3
                      A                      A                      A
 Frequencies --    -82.2224                53.8982                70.8401
 Red. masses --      2.7662                 5.5978                 6.0576
 Frc consts  --      0.0110                 0.0096                 0.0179
 IR Inten    --     12.9519                 0.0030                 2.4191

                      4                      5                      6
                      A                      A                      A
 Frequencies --    107.1971               186.0186               210.6694
 Red. masses --      5.6970                 4.6370                 4.4176
 Frc consts  --      0.0386                 0.0945                 0.1155
 IR Inten    --      0.9045                 3.4115                15.4851

                      7                      8                      9
                      A                      A                      A
 Frequencies --    267.0111               272.7148               300.8105
 Red. masses --      7.7298                 2.2704                 7.3775
 Frc consts  --      0.3247                 0.0995                 0.3933
 IR Inten    --      4.1019                27.8667                 3.9431

                     10                     11                     12
                      A                      A                      A
 Frequencies --    339.3295               384.7445               432.2002
 Red. masses --      2.6015                 7.6509                 2.9155
 Frc consts  --      0.1765                 0.6673                 0.3209
 IR Inten    --     23.0881                 4.5870                 4.4544

                     13                     14                     15
                      A                      A                      A
 Frequencies --    441.3892               501.6689               521.5177
 Red. masses --      3.4818                 7.8458                 2.6714
 Frc consts  --      0.3997                 1.1634                 0.4281
 IR Inten    --      6.7394                 9.3291                 3.0695

                     16                     17                     18
                      A                      A                      A
 Frequencies --    532.7905               544.6064               562.8019
 Red. masses --      7.1373                 7.3788                 3.7857
 Frc consts  --      1.1937                 1.2894                 0.7065
 IR Inten    --      5.0633                10.2626                 0.0085

                     19                     20                     21
                      A                      A                      A
 Frequencies --    580.4774               629.2547               659.8929
 Red. masses --      7.4215                 6.9230                 6.2792
 Frc consts  --      1.4734                 1.6151                 1.6110
 IR Inten    --     39.6922                 0.9264                 1.2565

                     22                     23                     24
                      A                      A                      A
 Frequencies --    699.3799               738.9774               750.3353
 Red. masses --      5.5013                 7.2442                 2.6526
 Frc consts  --      1.5854                 2.3308                 0.8799
 IR Inten    --     54.4792                36.3370                10.6708

                     25                     26                     27
                      A                      A                      A
 Frequencies --    758.5283               775.0798               779.1328
 Red. masses --      1.4282                 1.5591                 2.4044
 Frc consts  --      0.4842                 0.5518                 0.8600
 IR Inten    --     47.4212                52.6647                20.4145

                     28                     29                     30
                      A                      A                      A
 Frequencies --    827.3931               874.9344               879.5394
 Red. masses --      6.2590                 2.0608                 1.3768
 Frc consts  --      2.5245                 0.9295                 0.6275
 IR Inten    --     26.8296                14.8937                 0.9746

                     31                     32                     33
                      A                      A                      A
 Frequencies --    899.7057               966.7079               969.8502
 Red. masses --      5.8482                 1.3234                 1.3588
 Frc consts  --      2.7892                 0.7287                 0.7531
 IR Inten    --      2.4950                 0.1216                 1.4704

                     34                     35                     36
                      A                      A                      A
 Frequencies --    971.0325              1013.8900              1016.4266
 Red. masses --      3.9594                 1.3022                 1.3062
 Frc consts  --      2.1996                 0.7887                 0.7951
 IR Inten    --     24.2889                 0.0048                 0.3237

                     37                     38                     39
                      A                      A                      A
 Frequencies --   1046.5577              1059.9353              1091.7374
 Red. masses --      2.1044                 2.1246                 2.1528
 Frc consts  --      1.3580                 1.4063                 1.5118
 IR Inten    --      7.9200                12.6358                35.9719

                     40                     41                     42
                      A                      A                      A
 Frequencies --   1097.8388              1157.0983              1158.4929
 Red. masses --      2.8403                 1.2785                 1.3450
 Frc consts  --      2.0169                 1.0085                 1.0636
 IR Inten    --     10.6565                27.0262                17.0704

                     43                     44                     45
                      A                      A                      A
 Frequencies --   1181.6615              1190.4110              1223.4189
 Red. masses --      1.1734                 1.1770                 2.3636
 Frc consts  --      0.9653                 0.9827                 2.0843
 IR Inten    --     58.4436                 9.9617                66.9114

                     46                     47                     48
                      A                      A                      A
 Frequencies --   1281.3693              1305.9405              1359.1258
 Red. masses --      2.0993                 1.7455                 2.5244
 Frc consts  --      2.0308                 1.7540                 2.7474
 IR Inten    --     84.7407               129.4991                55.6925

                     49                     50                     51
                      A                      A                      A
 Frequencies --   1383.0417              1397.2507              1411.9379
 Red. masses --      5.2599                 6.1567                 2.2124
 Frc consts  --      5.9279                 7.0818                 2.5987
 IR Inten    --     81.6080                92.9394                 7.0113

                     52                     53                     54
                      A                      A                      A
 Frequencies --   1486.8895              1505.6880              1528.9748
 Red. masses --      3.3155                 3.0375                 3.6562
 Frc consts  --      4.3188                 4.0573                 5.0360
 IR Inten    --    634.8932               876.5387              1039.4572

                     55                     56                     57
                      A                      A                      A
 Frequencies --   1539.8301              1588.5045              1654.0513
 Red. masses --      3.2905                 6.7449                 5.8702
 Frc consts  --      4.5968                10.0278                 9.4625
 IR Inten    --     64.3114                35.3214                66.3232

                     58                     59                     60
                      A                      A                      A
 Frequencies --   1679.0041              1710.8866              1746.9590
 Red. masses --      7.1016                 7.9916                 9.7776
 Frc consts  --     11.7953                13.7825                17.5811
 IR Inten    --     32.4000                21.7679               457.3517

                     61                     62                     63
                      A                      A                      A
 Frequencies --   3179.5138              3192.0355              3216.8787
 Red. masses --      1.0891                 1.0877                 1.0942
 Frc consts  --      6.4871                 6.5295                 6.6713
 IR Inten    --      4.7221                14.1179                32.7453

                     64                     65                     66
                      A                      A                      A
 Frequencies --   3217.6635              3227.5068              3230.2638
 Red. masses --      1.0868                 1.0913                 1.0970
 Frc consts  --      6.6297                 6.6977                 6.7445
 IR Inten    --      2.0029                 1.2965                20.4004

                     67                     68                     69
                      A                      A                      A
 Frequencies --   3236.0069              3245.6025              3976.4253
 Red. masses --      1.0960                 1.0991                 1.0781
 Frc consts  --      6.7619                 6.8213                10.0441
 IR Inten    --      4.2918                12.4535               126.2243

 - Thermochemistry -
 -------------------
 Temperature   298.150 Kelvin.  Pressure   1.00000 Atm.
 Atom     1 has atomic number  6 and mass  12.00000

 Molecular mass:   227.04049 amu.
 Principal axes and moments of inertia in atomic units:
                           1         2         3
     Eigenvalues --  1274.310506426.549677700.86016
           X           -0.70691   0.70731   0.00000
           Y            0.70731   0.70691  -0.00000
           Z            0.00001   0.00000   1.00000
 This molecule is an asymmetric top.
 Rotational symmetry number  1.
 Warning -- assumption of classical behavior for rotation
           may cause significant error
 Rotational temperatures (Kelvin)      0.06797     0.01348     0.01125
 Rotational constants (GHZ):           1.41625     0.28083     0.23436
    1 imaginary frequencies ignored.
 Zero-point vibrational energy     496625.2 (Joules/Mol)
                                  118.69627 (Kcal/Mol)
 Warning -- explicit consideration of  18 degrees of freedom as
           vibrations may cause significant error
 Vibrational temperatures:     77.55   101.92   154.23   267.64   303.11
          (Kelvin)            384.17   392.38   432.80   488.22   553.56
                              621.84   635.06   721.79   750.35   766.57
                              783.57   809.75   835.18   905.36   949.44
                             1006.25  1063.22  1079.57  1091.35  1115.17
                             1121.00  1190.43  1258.84  1265.46  1294.48
                             1390.88  1395.40  1397.10  1458.76  1462.41
                             1505.76  1525.01  1570.77  1579.55  1664.81
                             1666.81  1700.15  1712.74  1760.23  1843.60
                             1878.96  1955.48  1989.89  2010.33  2031.46
                             2139.30  2166.35  2199.85  2215.47  2285.50
                             2379.81  2415.71  2461.58  2513.48  4574.61
                             4592.63  4628.37  4629.50  4643.66  4647.63
                             4655.89  4669.70  5721.19

 Zero-point correction=                           0.189155 (Hartree/Particle)
 Thermal correction to Energy=                    0.200782
 Thermal correction to Enthalpy=                  0.201726
 Thermal correction to Gibbs Free Energy=         0.150829
 Sum of electronic and zero-point Energies=          -1028.603839
 Sum of electronic and thermal Energies=             -1028.592211
 Sum of electronic and thermal Enthalpies=           -1028.591267
 Sum of electronic and thermal Free Energies=        -1028.642165

                     E (Thermal)             CV                S
                      KCal/Mol        Cal/Mol-Kelvin    Cal/Mol-Kelvin
 Total                  125.992             47.469            107.123
 Electronic               0.000              0.000              0.000
 Translational            0.889              2.981             42.162
 Rotational               0.889              2.981             32.511
 Vibrational            124.215             41.508             32.449
 Vibration     1          0.596              1.976              4.669
 Vibration     2          0.598              1.968              4.130
 Vibration     3          0.606              1.943              3.319
 Vibration     4          0.632              1.859              2.267
 Vibration     5          0.643              1.825              2.038
 Vibration     6          0.672              1.734              1.615
 Vibration     7          0.676              1.724              1.579
 Vibration     8          0.693              1.672              1.412
 Vibration     9          0.719              1.597              1.215
 Vibration    10          0.754              1.503              1.020
 Vibration    11          0.793              1.400              0.851
 Vibration    12          0.801              1.380              0.822
 Vibration    13          0.857              1.246              0.654
 Vibration    14          0.876              1.202              0.606
 Vibration    15          0.888              1.177              0.581
 Vibration    16          0.900              1.151              0.555
 Vibration    17          0.919              1.112              0.518
 Vibration    18          0.937              1.074              0.484

 Optimization completed.
    -- Stationary point found.
 Normal termination of Gaussian 16 at Tue Oct 27 23:47:26 2020.
