 Gaussian 16, Revision C.01,
 Gaussian 16:  ES64L-G16RevC.01  3-Jul-2019

 ----------------------------------------------------------------------
 #p opt=addgic freq wb97xd/cc-pvdz nosymm int=ultrafine scrf=(solvent=C
 arbonTetraChloride)
 ----------------------------------------------------------------------

 ------------------------------------------------
 NM 2D-scan of HBT TD-WB97XD pVDZ in CTC Relaxed.
 ------------------------------------------------
 Symbolic Z-matrix:
 Charge =  0 Multiplicity = 1

 SCF Done:  E(RwB97XD) =  -1028.62567733     A.U. after   16 cycles
 SCF Done:  E(RwB97XD) =  -1028.75432472     A.U. after   13 cycles
 SCF Done:  E(RwB97XD) =  -1028.78735701     A.U. after   14 cycles
 SCF Done:  E(RwB97XD) =  -1028.79962209     A.U. after   13 cycles
 SCF Done:  E(RwB97XD) =  -1028.80112410     A.U. after   13 cycles
 SCF Done:  E(RwB97XD) =  -1028.80134247     A.U. after   12 cycles
 SCF Done:  E(RwB97XD) =  -1028.80137095     A.U. after   10 cycles
 SCF Done:  E(RwB97XD) =  -1028.80137376     A.U. after    9 cycles
 Optimization completed.
    -- Stationary point found.
 Normal termination of Gaussian 16 at Wed Oct 28 00:39:54 2020.

 --------------------------------------------------------------------
 #P Geom=AllCheck Guess=TCheck SCRF=Check GenChk RwB97XD/CC-pVDZ Freq
 --------------------------------------------------------------------

 Structure from the checkpoint file:  "config_11_16.chk"
 ------------------------------------------------
 NM 2D-scan of HBT TD-WB97XD pVDZ in CTC Relaxed.
 ------------------------------------------------
 Charge =  0 Multiplicity = 1

                          Input orientation:
 ---------------------------------------------------------------------
 Center     Atomic      Atomic             Coordinates (Angstroms)
 Number     Number       Type             X           Y           Z
 ---------------------------------------------------------------------
      1          6           0        1.564984   -3.279849   -0.000035
      2          6           0        1.002576   -2.010657   -0.000018
      3          6           0        1.790376   -0.870247   -0.000007
      4          6           0        3.182811   -0.956658   -0.000009
      5          6           0        3.749155   -2.231860   -0.000024
      6          6           0        2.952691   -3.381224   -0.000038
      7          1           0        0.935061   -4.169211   -0.000045
      8          1           0        3.805443   -0.061054    0.000000
      9          1           0        4.835605   -2.328152   -0.000026
     10          1           0        3.421050   -4.365777   -0.000050
     11          7           0        0.989183    0.264691    0.000004
     12         16           0       -0.706024   -1.581940   -0.000009
     13          6           0       -1.332335    1.129627    0.000030
     14          6           0       -2.710316    0.784733    0.000033
     15          6           0       -0.885895    2.518737    0.000044
     16          6           0       -3.688448    1.745800    0.000039
     17          1           0       -2.999439   -0.270268    0.000029
     18          6           0       -1.985042    3.492331    0.000027
     19          6           0       -3.303266    3.116244    0.000030
     20          1           0       -4.741968    1.465338    0.000042
     21          1           0       -1.706014    4.548093    0.000017
     22          1           0       -4.082645    3.882991    0.000026
     23          6           0       -0.352014    0.116157    0.000012
     24          8           0        0.320656    2.805115    0.000021
     25          1           0        1.484566    1.125339   -0.000001
 ---------------------------------------------------------------------

 SCF Done:  E(RwB97XD) =  -1028.80137376     A.U. after    1 cycles

 Alpha  occ. eigenvalues --  -89.09730 -19.21110 -14.52396 -10.41599 -10.37137
 Alpha  occ. eigenvalues --  -10.35941 -10.35722 -10.33225 -10.33167 -10.32643
 Alpha  occ. eigenvalues --  -10.32295 -10.31073 -10.30685 -10.30260 -10.29092
 Alpha  occ. eigenvalues --  -10.28607  -8.11822  -6.06705  -6.06311  -6.05825
 Alpha  occ. eigenvalues --   -1.13013  -1.10051  -0.98646  -0.95592  -0.93297
 Alpha  occ. eigenvalues --   -0.89163  -0.86730  -0.83849  -0.81652  -0.75471
 Alpha  occ. eigenvalues --   -0.74123  -0.71986  -0.69403  -0.67851  -0.64557
 Alpha  occ. eigenvalues --   -0.60913  -0.59746  -0.56665  -0.56019  -0.55990
 Alpha  occ. eigenvalues --   -0.55018  -0.53797  -0.52978  -0.50085  -0.49393
 Alpha  occ. eigenvalues --   -0.48988  -0.48290  -0.46751  -0.45670  -0.44743
 Alpha  occ. eigenvalues --   -0.44501  -0.42854  -0.41869  -0.40366  -0.36912
 Alpha  occ. eigenvalues --   -0.33606  -0.31656  -0.31232  -0.26093
 Alpha virt. eigenvalues --   -0.01302   0.03765   0.05833   0.07076   0.09571
 Alpha virt. eigenvalues --    0.11336   0.13972   0.14678   0.15987   0.16904
 Alpha virt. eigenvalues --    0.18034   0.19758   0.20969   0.21582   0.22831

 Mulliken charges:
               1
     1  C    0.016163
     2  C   -0.234307
     3  C    0.215327
     4  C   -0.012423
     5  C    0.009668
     6  C    0.004777
     7  H    0.023576
     8  H    0.030249
     9  H    0.027527
    10  H    0.025968
    11  N   -0.110039
    12  S    0.178206
    13  C   -0.090502
    14  C   -0.018540
    15  C    0.095780
    16  C   -0.033622
    17  H    0.011016
    18  C   -0.042860
    19  C    0.028885
    20  H    0.001907
    21  H    0.001540
    22  H    0.013896
    23  C    0.098694
    24  O   -0.360107
    25  H    0.119221
 Sum of Mulliken charges =  -0.00000

 Dipole moment (field-independent basis, Debye):
    X=              2.1845    Y=             -5.4089    Z=             -0.0001  Tot=              5.8334
 Quadrupole moment (field-independent basis, Debye-Ang):
   XX=            -81.0741   YY=            -96.2423   ZZ=           -103.9731
   XY=             -6.3992   XZ=             -0.0001   YZ=              0.0001

  Exact polarizability:     289.997     -91.237     288.348      -0.001       0.002      62.875
 Approx polarizability:     267.062     -34.752     254.755      -0.001       0.001      81.867

                      1                      2                      3
                      A                      A                      A
 Frequencies --     18.6777                62.9271               106.9205
 Red. masses --      4.5853                 6.2557                 5.7713
 Frc consts  --      0.0009                 0.0146                 0.0389
 IR Inten    --      2.4649                 1.1139                 1.1388

                      4                      5                      6
                      A                      A                      A
 Frequencies --    114.0267               190.3191               223.9294
 Red. masses --      5.4399                 5.9053                 5.7425
 Frc consts  --      0.0417                 0.1260                 0.1697
 IR Inten    --      0.2260                 0.1280                 2.1408

                      7                      8                      9
                      A                      A                      A
 Frequencies --    265.9732               292.3827               303.2928
 Red. masses --      8.1315                 6.9229                 4.4850
 Frc consts  --      0.3389                 0.3487                 0.2431
 IR Inten    --      5.4850                 2.0361                 4.7491

                     10                     11                     12
                      A                      A                      A
 Frequencies --    392.2748               419.3635               443.2093
 Red. masses --      7.8363                 2.8090                 3.4733
 Frc consts  --      0.7105                 0.2911                 0.4020
 IR Inten    --      3.9024                10.2533                11.2311

                     13                     14                     15
                      A                      A                      A
 Frequencies --    467.5909               504.9420               521.2077
 Red. masses --      1.2108                 8.0440                 2.5535
 Frc consts  --      0.1560                 1.2084                 0.4087
 IR Inten    --     68.1333                 9.8935                 0.7010

                     16                     17                     18
                      A                      A                      A
 Frequencies --    531.3941               545.5444               562.7977
 Red. masses --      6.8995                 7.4499                 3.8309
 Frc consts  --      1.1479                 1.3064                 0.7149
 IR Inten    --      4.6827                13.0526                 0.0382

                     19                     20                     21
                      A                      A                      A
 Frequencies --    580.0674               632.5632               656.6334
 Red. masses --      7.3527                 6.8805                 6.2265
 Frc consts  --      1.4577                 1.6221                 1.5818
 IR Inten    --     38.9243                 2.2997                 2.0179

                     22                     23                     24
                      A                      A                      A
 Frequencies --    712.5555               742.1287               750.8550
 Red. masses --      5.5058                 7.2844                 2.5488
 Frc consts  --      1.6470                 2.3638                 0.8466
 IR Inten    --     58.5903                48.5416                15.4306

                     25                     26                     27
                      A                      A                      A
 Frequencies --    758.0394               774.1922               779.2277
 Red. masses --      1.4194                 1.5954                 2.4634
 Frc consts  --      0.4805                 0.5634                 0.8813
 IR Inten    --     48.2700                47.6192                18.0857

                     28                     29                     30
                      A                      A                      A
 Frequencies --    831.5502               875.9876               880.9558
 Red. masses --      6.2915                 2.0774                 1.3774
 Frc consts  --      2.5632                 0.9392                 0.6298
 IR Inten    --     21.1618                16.0845                 0.9203

                     31                     32                     33
                      A                      A                      A
 Frequencies --    888.9403               964.4407               969.2371
 Red. masses --      5.1820                 1.3240                 1.3610
 Frc consts  --      2.4127                 0.7256                 0.7533
 IR Inten    --      0.3997                 0.0892                 1.6423

                     34                     35                     36
                      A                      A                      A
 Frequencies --    969.5448              1012.7454              1018.0056
 Red. masses --      4.1441                 1.3034                 1.3069
 Frc consts  --      2.2952                 0.7876                 0.7980
 IR Inten    --     27.9305                 0.0053                 0.3437

                     37                     38                     39
                      A                      A                      A
 Frequencies --   1044.0299              1056.4371              1097.0483
 Red. masses --      2.1249                 2.0626                 3.3970
 Frc consts  --      1.3646                 1.3563                 2.4088
 IR Inten    --     12.4434                12.7358                13.6659

                     40                     41                     42
                      A                      A                      A
 Frequencies --   1118.1885              1157.6295              1162.2449
 Red. masses --      1.9371                 1.3773                 1.2029
 Frc consts  --      1.4270                 1.0874                 0.9574
 IR Inten    --     35.7166                 1.5614                70.8223

                     43                     44                     45
                      A                      A                      A
 Frequencies --   1180.2625              1197.0999              1234.2448
 Red. masses --      1.1525                 1.2267                 2.3055
 Frc consts  --      0.9459                 1.0357                 2.0693
 IR Inten    --     25.5391                11.6571                30.6373

                     46                     47                     48
                      A                      A                      A
 Frequencies --   1280.7483              1299.7691              1352.2423
 Red. masses --      2.1100                 1.8846                 2.5980
 Frc consts  --      2.0392                 1.8759                 2.7990
 IR Inten    --     86.7905               118.5398                29.2875

                     49                     50                     51
                      A                      A                      A
 Frequencies --   1387.8332              1396.9151              1411.1851
 Red. masses --      6.0558                 5.5650                 2.1182
 Frc consts  --      6.8722                 6.3982                 2.4853
 IR Inten    --    209.6267                22.2765                 6.8299

                     52                     53                     54
                      A                      A                      A
 Frequencies --   1493.0891              1507.0261              1528.7402
 Red. masses --      2.8924                 2.9308                 3.0605
 Frc consts  --      3.7991                 3.9217                 4.2142
 IR Inten    --     68.0460               575.1369                25.4478

                     55                     56                     57
                      A                      A                      A
 Frequencies --   1540.9074              1595.9045              1655.9762
 Red. masses --      4.8209                 7.1149                 6.1017
 Frc consts  --      6.7441                10.6766                 9.8584
 IR Inten    --   1885.3122                64.1233                70.4848

                     58                     59                     60
                      A                      A                      A
 Frequencies --   1680.9344              1694.3728              1734.8852
 Red. masses --      7.1747                 7.7370                 9.1543
 Frc consts  --     11.9441                13.0871                16.2337
 IR Inten    --     42.7979                22.0876               468.3171

                     61                     62                     63
                      A                      A                      A
 Frequencies --   3183.8400              3192.9413              3215.4239
 Red. masses --      1.0884                 1.0877                 1.0865
 Frc consts  --      6.5007                 6.5335                 6.6185
 IR Inten    --      3.1234                13.5301                 1.4031

                     64                     65                     66
                      A                      A                      A
 Frequencies --   3216.0833              3224.9583              3230.9310
 Red. masses --      1.0947                 1.0908                 1.0973
 Frc consts  --      6.6711                 6.6842                 6.7489
 IR Inten    --     34.0730                 1.6720                19.1630

                     67                     68                     69
                      A                      A                      A
 Frequencies --   3233.0815              3241.7088              3867.1278
 Red. masses --      1.0960                 1.0997                 1.0792
 Frc consts  --      6.7498                 6.8091                 9.5087
 IR Inten    --      4.8323                12.1607               120.7936

 - Thermochemistry -
 -------------------
 Temperature   298.150 Kelvin.  Pressure   1.00000 Atm.
 Atom     1 has atomic number  6 and mass  12.00000

 Molecular mass:   227.04049 amu.
 Principal axes and moments of inertia in atomic units:
                           1         2         3
     Eigenvalues --  1270.766426421.568507692.33492
           X           -0.70482   0.70939   0.00000
           Y            0.70939   0.70482  -0.00001
           Z            0.00001   0.00000   1.00000
 This molecule is an asymmetric top.
 Rotational symmetry number  1.
 Warning -- assumption of classical behavior for rotation
           may cause significant error
 Rotational temperatures (Kelvin)      0.06816     0.01349     0.01126
 Rotational constants (GHZ):           1.42020     0.28104     0.23462
 Zero-point vibrational energy     497516.4 (Joules/Mol)
                                  118.90928 (Kcal/Mol)
 Warning -- explicit consideration of  19 degrees of freedom as
           vibrations may cause significant error
 Vibrational temperatures:     26.87    90.54   153.83   164.06   273.83
          (Kelvin)            322.18   382.68   420.67   436.37   564.40
                              603.37   637.68   672.76   726.50   749.90
                              764.56   784.92   809.74   834.59   910.12
                              944.75  1025.21  1067.76  1080.31  1090.65
                             1113.89  1121.13  1196.42  1260.35  1267.50
                             1278.99  1387.62  1394.52  1394.96  1457.11
                             1464.68  1502.13  1519.98  1578.41  1608.82
                             1665.57  1672.21  1698.13  1722.36  1775.80
                             1842.71  1870.08  1945.58  1996.78  2009.85
                             2030.38  2148.22  2168.27  2199.52  2217.02
                             2296.15  2382.58  2418.49  2437.82  2496.11
                             4580.84  4593.93  4626.28  4627.23  4640.00
                             4648.59  4651.68  4664.10  5563.93

 Zero-point correction=                           0.189494 (Hartree/Particle)
 Thermal correction to Energy=                    0.201736
 Thermal correction to Enthalpy=                  0.202681
 Thermal correction to Gibbs Free Energy=         0.149520
 Sum of electronic and zero-point Energies=          -1028.611880
 Sum of electronic and thermal Energies=             -1028.599637
 Sum of electronic and thermal Enthalpies=           -1028.598693
 Sum of electronic and thermal Free Energies=        -1028.651854

                     E (Thermal)             CV                S
                      KCal/Mol        Cal/Mol-Kelvin    Cal/Mol-Kelvin
 Total                  126.592             49.040            111.887
 Electronic               0.000              0.000              0.000
 Translational            0.889              2.981             42.162
 Rotational               0.889              2.981             32.507
 Vibrational            124.814             43.079             37.218
 Vibration     1          0.593              1.986              6.770
 Vibration     2          0.597              1.972              4.363
 Vibration     3          0.606              1.944              3.324
 Vibration     4          0.607              1.938              3.199
 Vibration     5          0.634              1.853              2.225
 Vibration     6          0.649              1.805              1.927
 Vibration     7          0.672              1.735              1.622
 Vibration     8          0.688              1.688              1.460
 Vibration     9          0.695              1.667              1.399
 Vibration    10          0.760              1.487              0.991
 Vibration    11          0.782              1.428              0.894
 Vibration    12          0.803              1.376              0.817
 Vibration    13          0.825              1.322              0.744
 Vibration    14          0.860              1.239              0.646
 Vibration    15          0.876              1.203              0.607
 Vibration    16          0.886              1.181              0.584
 Vibration    17          0.901              1.149              0.553
 Vibration    18          0.919              1.112              0.518
 Vibration    19          0.937              1.074              0.485

 Optimization completed.
    -- Stationary point found.
 Normal termination of Gaussian 16 at Wed Oct 28 00:45:54 2020.
