 Gaussian 16, Revision C.01,
 Gaussian 16:  ES64L-G16RevC.01  3-Jul-2019

 ----------------------------------------------------------------------
 #p opt=addgic freq wb97xd/cc-pvdz nosymm int=ultrafine scrf=(solvent=C
 arbonTetraChloride)
 ----------------------------------------------------------------------

 ------------------------------------------------
 NM 2D-scan of HBT TD-WB97XD pVDZ in CTC Relaxed.
 ------------------------------------------------
 Symbolic Z-matrix:
 Charge =  0 Multiplicity = 1

 SCF Done:  E(RwB97XD) =  -1028.78295928     A.U. after   16 cycles
 SCF Done:  E(RwB97XD) =  -1028.80710020     A.U. after   13 cycles
 SCF Done:  E(RwB97XD) =  -1028.80766026     A.U. after   12 cycles
 SCF Done:  E(RwB97XD) =  -1028.80885851     A.U. after   12 cycles
 SCF Done:  E(RwB97XD) =  -1028.80900646     A.U. after   11 cycles
 SCF Done:  E(RwB97XD) =  -1028.80901100     A.U. after    9 cycles
 Optimization completed.
    -- Stationary point found.
 Normal termination of Gaussian 16 at Tue Oct 27 21:32:45 2020.

 --------------------------------------------------------------------
 #P Geom=AllCheck Guess=TCheck SCRF=Check GenChk RwB97XD/CC-pVDZ Freq
 --------------------------------------------------------------------

 Structure from the checkpoint file:  "config_10_5.chk"
 ------------------------------------------------
 NM 2D-scan of HBT TD-WB97XD pVDZ in CTC Relaxed.
 ------------------------------------------------
 Charge =  0 Multiplicity = 1

                          Input orientation:
 ---------------------------------------------------------------------
 Center     Atomic      Atomic             Coordinates (Angstroms)
 Number     Number       Type             X           Y           Z
 ---------------------------------------------------------------------
      1          6           0        1.710008   -3.268814   -0.000038
      2          6           0        1.008294   -2.064935   -0.000021
      3          6           0        1.697914   -0.856147   -0.000006
      4          6           0        3.090318   -0.792449   -0.000002
      5          6           0        3.785898   -1.994948   -0.000017
      6          6           0        3.103028   -3.217887   -0.000036
      7          1           0        1.187895   -4.225615   -0.000050
      8          1           0        3.602057    0.170129    0.000011
      9          1           0        4.876445   -1.984586   -0.000016
     10          1           0        3.668423   -4.150382   -0.000049
     11          7           0        0.830448    0.207745   -0.000000
     12         16           0       -0.743207   -1.761544   -0.000012
     13          6           0       -1.401937    1.061092    0.000006
     14          6           0       -2.809561    0.884413    0.000004
     15          6           0       -0.821457    2.408166    0.000021
     16          6           0       -3.670149    1.957058    0.000029
     17          1           0       -3.215473   -0.131573   -0.000014
     18          6           0       -1.783248    3.490911    0.000049
     19          6           0       -3.135550    3.272465    0.000055
     20          1           0       -4.748834    1.799920    0.000028
     21          1           0       -1.370399    4.501248    0.000062
     22          1           0       -3.818511    4.125764    0.000076
     23          6           0       -0.482721   -0.027029   -0.000005
     24          8           0        0.416791    2.628579   -0.000008
     25          1           0        1.122957    1.192279    0.000011
 ---------------------------------------------------------------------

 SCF Done:  E(RwB97XD) =  -1028.80901100     A.U. after    1 cycles

 Alpha  occ. eigenvalues --  -89.10198 -19.21722 -14.51092 -10.41470 -10.36868
 Alpha  occ. eigenvalues --  -10.36255 -10.36018 -10.33364 -10.32848 -10.32531
 Alpha  occ. eigenvalues --  -10.32306 -10.31238 -10.30900 -10.30666 -10.29135
 Alpha  occ. eigenvalues --  -10.28572  -8.12170  -6.07059  -6.06673  -6.06179
 Alpha  occ. eigenvalues --   -1.13393  -1.10086  -0.98546  -0.95076  -0.93121
 Alpha  occ. eigenvalues --   -0.89315  -0.86434  -0.84026  -0.81853  -0.75780
 Alpha  occ. eigenvalues --   -0.73097  -0.71699  -0.69264  -0.67962  -0.64627
 Alpha  occ. eigenvalues --   -0.60880  -0.59764  -0.56760  -0.55946  -0.55825
 Alpha  occ. eigenvalues --   -0.54983  -0.53620  -0.52939  -0.50606  -0.49721
 Alpha  occ. eigenvalues --   -0.49086  -0.48172  -0.46700  -0.45589  -0.44815
 Alpha  occ. eigenvalues --   -0.44510  -0.43003  -0.41777  -0.40508  -0.36806
 Alpha  occ. eigenvalues --   -0.33541  -0.32058  -0.31648  -0.26477
 Alpha virt. eigenvalues --   -0.01267   0.03787   0.06145   0.06679   0.09170
 Alpha virt. eigenvalues --    0.11050   0.12785   0.14665   0.15996   0.17352
 Alpha virt. eigenvalues --    0.19009   0.20110   0.21232   0.21643   0.23031

 Mulliken charges:
               1
     1  C    0.011100
     2  C   -0.247745
     3  C    0.261358
     4  C   -0.009797
     5  C    0.012572
     6  C    0.001781
     7  H    0.025523
     8  H    0.032241
     9  H    0.027153
    10  H    0.026022
    11  N   -0.117329
    12  S    0.181559
    13  C   -0.133578
    14  C   -0.004538
    15  C    0.115285
    16  C   -0.032689
    17  H    0.002296
    18  C   -0.020410
    19  C    0.027268
    20  H    0.002985
    21  H    0.001944
    22  H    0.013398
    23  C    0.079652
    24  O   -0.393022
    25  H    0.136971
 Sum of Mulliken charges =  -0.00000

 Dipole moment (field-independent basis, Debye):
    X=              1.7076    Y=             -5.0225    Z=              0.0000  Tot=              5.3049
 Quadrupole moment (field-independent basis, Debye-Ang):
   XX=            -82.2714   YY=            -94.2855   ZZ=           -104.0445
   XY=             -6.9766   XZ=             -0.0000   YZ=              0.0004

  Exact polarizability:     287.438     -86.013     284.781      -0.001       0.003      62.989
 Approx polarizability:     267.285     -33.079     256.013      -0.001       0.002      82.046

                      1                      2                      3
                      A                      A                      A
 Frequencies --     47.7311                65.9295               115.6776
 Red. masses --      4.8571                 6.3128                 5.6542
 Frc consts  --      0.0065                 0.0162                 0.0446
 IR Inten    --      0.0367                 2.6381                 1.0954

                      4                      5                      6
                      A                      A                      A
 Frequencies --    133.9740               196.5190               234.3029
 Red. masses --      5.2164                 5.9750                 6.0175
 Frc consts  --      0.0552                 0.1360                 0.1946
 IR Inten    --      0.9879                 0.0001                 0.7327

                      7                      8                      9
                      A                      A                      A
 Frequencies --    267.7098               308.2443               325.9274
 Red. masses --      7.4337                 5.3511                 6.3196
 Frc consts  --      0.3139                 0.2996                 0.3955
 IR Inten    --      4.5503                 1.2928                 7.0472

                     10                     11                     12
                      A                      A                      A
 Frequencies --    400.6565               429.9102               447.5355
 Red. masses --     10.4557                 3.2555                 3.5901
 Frc consts  --      0.9889                 0.3545                 0.4237
 IR Inten    --      4.4919                 0.5402                10.3732

                     13                     14                     15
                      A                      A                      A
 Frequencies --    507.3153               530.6605               540.7010
 Red. masses --      8.3986                 2.8439                 8.7745
 Frc consts  --      1.2735                 0.4718                 1.5114
 IR Inten    --      8.8117                 6.1127                 8.5493

                     16                     17                     18
                      A                      A                      A
 Frequencies --    562.1387               562.4686               586.6995
 Red. masses --      3.7432                 6.7584                 6.9789
 Frc consts  --      0.6969                 1.2598                 1.4154
 IR Inten    --      0.0041                 0.8008                37.3283

                     19                     20                     21
                      A                      A                      A
 Frequencies --    635.6427               656.1492               705.9506
 Red. masses --      5.5981                 5.6845                 6.3348
 Frc consts  --      1.3327                 1.4419                 1.8601
 IR Inten    --      0.4099                 4.9221                32.6090

                     22                     23                     24
                      A                      A                      A
 Frequencies --    738.5662               751.3418               761.1210
 Red. masses --      8.3768                 2.6561                 1.5174
 Frc consts  --      2.6922                 0.8834                 0.5179
 IR Inten    --     58.3077                 8.2185                51.7668

                     25                     26                     27
                      A                      A                      A
 Frequencies --    773.6412               777.2689               833.6695
 Red. masses --      2.0129                 1.5816                 5.9146
 Frc consts  --      0.7098                 0.5630                 2.4220
 IR Inten    --     23.1661                30.4607                20.6501

                     28                     29                     30
                      A                      A                      A
 Frequencies --    840.9719               879.6925               883.4298
 Red. masses --      1.1460                 1.9263                 1.3927
 Frc consts  --      0.4775                 0.8783                 0.6404
 IR Inten    --     64.3369                23.5704                 6.8412

                     31                     32                     33
                      A                      A                      A
 Frequencies --    884.4792               958.2141               968.8203
 Red. masses --      4.0578                 4.6677                 1.3242
 Frc consts  --      1.8703                 2.5251                 0.7323
 IR Inten    --      3.8886                43.4730                 0.2605

                     34                     35                     36
                      A                      A                      A
 Frequencies --    972.4830              1015.3893              1016.3031
 Red. masses --      1.3574                 1.3031                 1.3040
 Frc consts  --      0.7563                 0.7916                 0.7935
 IR Inten    --      1.5315                 0.0191                 0.3954

                     37                     38                     39
                      A                      A                      A
 Frequencies --   1043.8170              1055.5086              1081.0677
 Red. masses --      2.1630                 2.0801                 3.7964
 Frc consts  --      1.3885                 1.3654                 2.6142
 IR Inten    --     10.9910                12.1686                29.0977

                     40                     41                     42
                      A                      A                      A
 Frequencies --   1120.1010              1154.1952              1159.5641
 Red. masses --      2.1696                 1.3316                 1.1963
 Frc consts  --      1.6038                 1.0452                 0.9477
 IR Inten    --    119.9118                 6.3904                67.8043

                     43                     44                     45
                      A                      A                      A
 Frequencies --   1183.0952              1194.3883              1260.0258
 Red. masses --      1.1436                 1.2554                 1.8523
 Frc consts  --      0.9431                 1.0552                 1.7327
 IR Inten    --     10.3091                19.0244                10.5933

                     46                     47                     48
                      A                      A                      A
 Frequencies --   1289.9890              1309.6478              1369.3098
 Red. masses --      1.5287                 2.7701                 2.9221
 Frc consts  --      1.4988                 2.7993                 3.2281
 IR Inten    --      5.6885               132.8443                53.0434

                     49                     50                     51
                      A                      A                      A
 Frequencies --   1384.1228              1390.9912              1419.2351
 Red. masses --      6.8988                 5.5688                 2.3879
 Frc consts  --      7.7870                 6.3483                 2.8338
 IR Inten    --     47.5368                73.9571                18.1386

                     52                     53                     54
                      A                      A                      A
 Frequencies --   1493.0451              1506.0554              1526.6035
 Red. masses --      2.7108                 2.8458                 3.2143
 Frc consts  --      3.5604                 3.8031                 4.4136
 IR Inten    --     30.2794               387.4907               181.3272

                     55                     56                     57
                      A                      A                      A
 Frequencies --   1566.2529              1605.1258              1626.8691
 Red. masses --      4.3178                 5.5702                 7.4389
 Frc consts  --      6.2408                 8.4554                11.6002
 IR Inten    --   1145.8744               303.0206               253.2568

                     58                     59                     60
                      A                      A                      A
 Frequencies --   1679.1876              1685.4830              1713.5182
 Red. masses --      7.2456                 7.2164                 6.6862
 Frc consts  --     12.0372                12.0787                11.5667
 IR Inten    --      1.3683               206.6065               221.5304

                     61                     62                     63
                      A                      A                      A
 Frequencies --   3178.0712              3191.9528              3217.3120
 Red. masses --      1.0896                 1.0880                 1.0866
 Frc consts  --      6.4842                 6.5313                 6.6267
 IR Inten    --      5.4424                15.8002                 1.8898

                     64                     65                     66
                      A                      A                      A
 Frequencies --   3219.4768              3227.8552              3231.6587
 Red. masses --      1.0944                 1.0908                 1.0969
 Frc consts  --      6.6832                 6.6958                 6.7497
 IR Inten    --     23.0249                 2.1988                20.0379

                     67                     68                     69
                      A                      A                      A
 Frequencies --   3236.4259              3243.3662              3267.2082
 Red. masses --      1.0965                 1.0998                 1.0901
 Frc consts  --      6.7671                 6.8167                 6.8558
 IR Inten    --      4.4653                14.3142               334.4041

 - Thermochemistry -
 -------------------
 Temperature   298.150 Kelvin.  Pressure   1.00000 Atm.
 Atom     1 has atomic number  6 and mass  12.00000

 Molecular mass:   227.04049 amu.
 Principal axes and moments of inertia in atomic units:
                           1         2         3
     Eigenvalues --  1311.345316320.204097631.54941
           X           -0.70489   0.70932   0.00000
           Y            0.70932   0.70489  -0.00001
           Z            0.00001   0.00000   1.00000
 This molecule is an asymmetric top.
 Rotational symmetry number  1.
 Warning -- assumption of classical behavior for rotation
           may cause significant error
 Rotational temperatures (Kelvin)      0.06605     0.01370     0.01135
 Rotational constants (GHZ):           1.37625     0.28555     0.23648
 Zero-point vibrational energy     497334.1 (Joules/Mol)
                                  118.86569 (Kcal/Mol)
 Warning -- explicit consideration of  18 degrees of freedom as
           vibrations may cause significant error
 Vibrational temperatures:     68.67    94.86   166.43   192.76   282.75
          (Kelvin)            337.11   385.17   443.49   468.94   576.46
                              618.54   643.90   729.91   763.50   777.95
                              808.79   809.27   844.13   914.55   944.05
                             1015.71  1062.63  1081.01  1095.08  1113.10
                             1118.32  1199.46  1209.97  1265.68  1271.06
                             1272.57  1378.66  1393.92  1399.19  1460.92
                             1462.23  1501.82  1518.64  1555.42  1611.58
                             1660.63  1668.35  1702.21  1718.46  1812.90
                             1856.01  1884.29  1970.13  1991.44  2001.33
                             2041.96  2148.16  2166.88  2196.44  2253.49
                             2309.42  2340.70  2415.98  2425.03  2465.37
                             4572.54  4592.51  4628.99  4632.11  4644.16
                             4649.64  4656.49  4666.48  4700.78

 Zero-point correction=                           0.189425 (Hartree/Particle)
 Thermal correction to Energy=                    0.201240
 Thermal correction to Enthalpy=                  0.202184
 Thermal correction to Gibbs Free Energy=         0.150688
 Sum of electronic and zero-point Energies=          -1028.619586
 Sum of electronic and thermal Energies=             -1028.607771
 Sum of electronic and thermal Enthalpies=           -1028.606827
 Sum of electronic and thermal Free Energies=        -1028.658323

                     E (Thermal)             CV                S
                      KCal/Mol        Cal/Mol-Kelvin    Cal/Mol-Kelvin
 Total                  126.280             48.020            108.382
 Electronic               0.000              0.000              0.000
 Translational            0.889              2.981             42.162
 Rotational               0.889              2.981             32.514
 Vibrational            124.502             42.058             33.706
 Vibration     1          0.595              1.978              4.909
 Vibration     2          0.597              1.971              4.271
 Vibration     3          0.608              1.936              3.171
 Vibration     4          0.613              1.919              2.888
 Vibration     5          0.636              1.845              2.165
 Vibration     6          0.654              1.788              1.846
 Vibration     7          0.673              1.732              1.611
 Vibration     8          0.698              1.658              1.372
 Vibration     9          0.710              1.624              1.280
 Vibration    10          0.766              1.469              0.960
 Vibration    11          0.791              1.405              0.859
 Vibration    12          0.807              1.366              0.803
 Vibration    13          0.863              1.234              0.640
 Vibration    14          0.886              1.182              0.586
 Vibration    15          0.896              1.160              0.564
 Vibration    16          0.918              1.113              0.520
 Vibration    17          0.918              1.112              0.519
 Vibration    18          0.944              1.060              0.473

 Optimization completed.
    -- Stationary point found.
 Normal termination of Gaussian 16 at Tue Oct 27 21:38:47 2020.
