 Gaussian 16, Revision C.01,
 Gaussian 16:  ES64L-G16RevC.01  3-Jul-2019

 ----------------------------------------------------------------------
 #p opt=addgic freq wb97xd/cc-pvdz nosymm int=ultrafine scrf=(solvent=C
 arbonTetraChloride)
 ----------------------------------------------------------------------

 ------------------------------------------------
 NM 2D-scan of HBT TD-WB97XD pVDZ in CTC Relaxed.
 ------------------------------------------------
 Symbolic Z-matrix:
 Charge =  0 Multiplicity = 1

 SCF Done:  E(RwB97XD) =  -1028.59650952     A.U. after   16 cycles
 SCF Done:  E(RwB97XD) =  -1028.74111829     A.U. after   14 cycles
 SCF Done:  E(RwB97XD) =  -1028.78056057     A.U. after   15 cycles
 SCF Done:  E(RwB97XD) =  -1028.79723873     A.U. after   13 cycles
 SCF Done:  E(RwB97XD) =  -1028.79952611     A.U. after   13 cycles
 SCF Done:  E(RwB97XD) =  -1028.79982799     A.U. after   12 cycles
 SCF Done:  E(RwB97XD) =  -1028.79985950     A.U. after   10 cycles
 SCF Done:  E(RwB97XD) =  -1028.79986311     A.U. after    9 cycles
 Optimization completed.
    -- Stationary point found.
 Normal termination of Gaussian 16 at Wed Oct 28 01:18:11 2020.

 --------------------------------------------------------------------
 #P Geom=AllCheck Guess=TCheck SCRF=Check GenChk RwB97XD/CC-pVDZ Freq
 --------------------------------------------------------------------

 Structure from the checkpoint file:  "config_11_18.chk"
 ------------------------------------------------
 NM 2D-scan of HBT TD-WB97XD pVDZ in CTC Relaxed.
 ------------------------------------------------
 Charge =  0 Multiplicity = 1

                          Input orientation:
 ---------------------------------------------------------------------
 Center     Atomic      Atomic             Coordinates (Angstroms)
 Number     Number       Type             X           Y           Z
 ---------------------------------------------------------------------
      1          6           0        1.538464   -3.280152   -0.000055
      2          6           0        1.001526   -2.000573   -0.000033
      3          6           0        1.805970   -0.871596   -0.000005
      4          6           0        3.196924   -0.986296    0.000001
      5          6           0        3.739307   -2.272931   -0.000020
      6          6           0        2.923408   -3.408480   -0.000048
      7          1           0        0.889952   -4.156045   -0.000076
      8          1           0        3.838706   -0.104217    0.000022
      9          1           0        4.823931   -2.388291   -0.000015
     10          1           0        3.373965   -4.401287   -0.000064
     11          7           0        1.018400    0.276652    0.000016
     12         16           0       -0.697856   -1.552167   -0.000031
     13          6           0       -1.317212    1.141657    0.000045
     14          6           0       -2.688639    0.767623    0.000061
     15          6           0       -0.899307    2.538163    0.000047
     16          6           0       -3.686764    1.706383    0.000057
     17          1           0       -2.957467   -0.292472    0.000077
     18          6           0       -2.020595    3.489169    0.000002
     19          6           0       -3.330518    3.085184    0.000016
     20          1           0       -4.733937    1.402995    0.000072
     21          1           0       -1.765173    4.550941   -0.000035
     22          1           0       -4.126213    3.835029   -0.000005
     23          6           0       -0.325946    0.140428    0.000019
     24          8           0        0.301241    2.844944    0.000009
     25          1           0        1.531779    1.126584    0.000036
 ---------------------------------------------------------------------

 SCF Done:  E(RwB97XD) =  -1028.79986310     A.U. after    1 cycles

 Alpha  occ. eigenvalues --  -89.09639 -19.21077 -14.52568 -10.41621 -10.37198
 Alpha  occ. eigenvalues --  -10.35921 -10.35671 -10.33210 -10.33195 -10.32649
 Alpha  occ. eigenvalues --  -10.32296 -10.31052 -10.30697 -10.30221 -10.29098
 Alpha  occ. eigenvalues --  -10.28628  -8.11752  -6.06634  -6.06239  -6.05755
 Alpha  occ. eigenvalues --   -1.12938  -1.10042  -0.98652  -0.95685  -0.93300
 Alpha  occ. eigenvalues --   -0.89143  -0.86770  -0.83804  -0.81647  -0.75440
 Alpha  occ. eigenvalues --   -0.74190  -0.72036  -0.69415  -0.67847  -0.64550
 Alpha  occ. eigenvalues --   -0.60909  -0.59733  -0.56687  -0.56042  -0.55976
 Alpha  occ. eigenvalues --   -0.55013  -0.53853  -0.52970  -0.50011  -0.49387
 Alpha  occ. eigenvalues --   -0.48977  -0.48277  -0.46759  -0.45686  -0.44757
 Alpha  occ. eigenvalues --   -0.44486  -0.42805  -0.41887  -0.40355  -0.36920
 Alpha  occ. eigenvalues --   -0.33614  -0.31643  -0.31184  -0.26071
 Alpha virt. eigenvalues --   -0.01314   0.03768   0.05778   0.07167   0.09587
 Alpha virt. eigenvalues --    0.11358   0.14104   0.14699   0.15971   0.16874
 Alpha virt. eigenvalues --    0.17920   0.19718   0.20932   0.21566   0.22757

 Mulliken charges:
               1
     1  C    0.017117
     2  C   -0.230737
     3  C    0.209778
     4  C   -0.012863
     5  C    0.008937
     6  C    0.005328
     7  H    0.023257
     8  H    0.029945
     9  H    0.027521
    10  H    0.025963
    11  N   -0.115174
    12  S    0.177367
    13  C   -0.084265
    14  C   -0.021111
    15  C    0.091840
    16  C   -0.033402
    17  H    0.013242
    18  C   -0.044597
    19  C    0.029209
    20  H    0.001832
    21  H    0.001726
    22  H    0.014006
    23  C    0.100640
    24  O   -0.355456
    25  H    0.119898
 Sum of Mulliken charges =  -0.00000

 Dipole moment (field-independent basis, Debye):
    X=              2.2304    Y=             -5.4672    Z=              0.0000  Tot=              5.9046
 Quadrupole moment (field-independent basis, Debye-Ang):
   XX=            -80.8629   YY=            -96.6163   ZZ=           -103.9663
   XY=             -6.3008   XZ=              0.0001   YZ=              0.0002

  Exact polarizability:     290.122     -91.673     288.615      -0.001       0.002      62.859
 Approx polarizability:     266.895     -34.691     254.742      -0.001       0.001      81.849

 ******    1 imaginary frequencies (negative Signs) ******

                      1                      2                      3
                      A                      A                      A
 Frequencies --    -18.9873                62.8949               106.3764
 Red. masses --      4.5743                 6.1422                 5.7691
 Frc consts  --      0.0010                 0.0143                 0.0385
 IR Inten    --      2.9479                 0.9152                 1.1773

                      4                      5                      6
                      A                      A                      A
 Frequencies --    113.1322               189.5893               222.4086
 Red. masses --      5.5115                 5.8896                 5.6942
 Frc consts  --      0.0416                 0.1247                 0.1660
 IR Inten    --      0.2652                 0.1536                 2.4969

                      7                      8                      9
                      A                      A                      A
 Frequencies --    264.0742               289.4206               302.7516
 Red. masses --      8.2578                 6.9346                 4.3154
 Frc consts  --      0.3393                 0.3422                 0.2330
 IR Inten    --      5.2397                 1.8277                 5.4908

                     10                     11                     12
                      A                      A                      A
 Frequencies --    393.6211               414.8757               442.8907
 Red. masses --      7.7715                 2.3884                 3.4052
 Frc consts  --      0.7094                 0.2422                 0.3935
 IR Inten    --      3.4500                20.0402                13.9369

                     13                     14                     15
                      A                      A                      A
 Frequencies --    454.6005               506.5822               519.3226
 Red. masses --      1.3240                 8.1034                 2.5666
 Frc consts  --      0.1612                 1.2252                 0.4078
 IR Inten    --     56.7172                 9.8009                 1.4050

                     16                     17                     18
                      A                      A                      A
 Frequencies --    529.5177               545.0196               562.9846
 Red. masses --      6.6637                 7.6939                 3.8395
 Frc consts  --      1.1008                 1.3466                 0.7170
 IR Inten    --      3.3940                15.8236                 0.0441

                     19                     20                     21
                      A                      A                      A
 Frequencies --    579.5562               631.3946               656.3249
 Red. masses --      7.3942                 6.9151                 6.3413
 Frc consts  --      1.4633                 1.6242                 1.6094
 IR Inten    --     39.3070                 1.9104                 1.0436

                     22                     23                     24
                      A                      A                      A
 Frequencies --    714.7169               742.8288               750.9108
 Red. masses --      5.4960                 7.2532                 2.5461
 Frc consts  --      1.6541                 2.3581                 0.8459
 IR Inten    --     64.2289                47.4003                16.4396

                     25                     26                     27
                      A                      A                      A
 Frequencies --    757.0057               773.9198               778.5554
 Red. masses --      1.4193                 1.5956                 2.4566
 Frc consts  --      0.4792                 0.5631                 0.8773
 IR Inten    --     48.1809                47.8545                16.0464

                     28                     29                     30
                      A                      A                      A
 Frequencies --    830.4406               875.5983               881.0324
 Red. masses --      6.1712                 2.1093                 1.3764
 Frc consts  --      2.5075                 0.9528                 0.6295
 IR Inten    --     21.1243                16.5660                 0.8603

                     31                     32                     33
                      A                      A                      A
 Frequencies --    887.8753               963.0281               968.9097
 Red. masses --      5.3949                 1.3259                 1.3615
 Frc consts  --      2.5057                 0.7245                 0.7531
 IR Inten    --      0.3898                 0.0637                 1.6658

                     34                     35                     36
                      A                      A                      A
 Frequencies --    973.8172              1012.4378              1018.0167
 Red. masses --      4.4300                 1.3035                 1.3075
 Frc consts  --      2.4752                 0.7872                 0.7984
 IR Inten    --     26.0810                 0.0051                 0.3479

                     37                     38                     39
                      A                      A                      A
 Frequencies --   1039.2862              1056.7808              1100.6533
 Red. masses --      2.0947                 2.0615                 3.5488
 Frc consts  --      1.3330                 1.3564                 2.5330
 IR Inten    --     12.0454                13.3634                 7.0330

                     40                     41                     42
                      A                      A                      A
 Frequencies --   1126.8151              1158.9523              1163.2446
 Red. masses --      1.8339                 1.3670                 1.1921
 Frc consts  --      1.3720                 1.0818                 0.9504
 IR Inten    --     40.3073                 7.5301                79.7826

                     43                     44                     45
                      A                      A                      A
 Frequencies --   1179.8262              1191.4736              1232.0420
 Red. masses --      1.1481                 1.1999                 2.1950
 Frc consts  --      0.9416                 1.0036                 1.9631
 IR Inten    --     21.5038                15.8731                16.8187

                     46                     47                     48
                      A                      A                      A
 Frequencies --   1270.6681              1297.5500              1346.5606
 Red. masses --      2.5135                 1.7966                 2.6096
 Frc consts  --      2.3910                 1.7822                 2.7879
 IR Inten    --    113.8521                94.5937                18.7447

                     49                     50                     51
                      A                      A                      A
 Frequencies --   1386.6599              1396.6038              1409.7213
 Red. masses --      5.8945                 5.3832                 2.0910
 Frc consts  --      6.6779                 6.1864                 2.4483
 IR Inten    --    220.0937                21.7963                 8.2835

                     52                     53                     54
                      A                      A                      A
 Frequencies --   1490.4453              1504.1434              1528.4560
 Red. masses --      2.8480                 3.1729                 3.0532
 Frc consts  --      3.7276                 4.2294                 4.2025
 IR Inten    --      8.6553               628.0707                 7.6243

                     55                     56                     57
                      A                      A                      A
 Frequencies --   1540.5979              1595.9874              1656.6111
 Red. masses --      4.7399                 7.1284                 6.1695
 Frc consts  --      6.6282                10.6979                 9.9756
 IR Inten    --   1972.1909                53.6141                68.7569

                     58                     59                     60
                      A                      A                      A
 Frequencies --   1680.8773              1693.9288              1736.7005
 Red. masses --      7.1451                 7.7031                 9.4693
 Frc consts  --     11.8942                13.0228                16.8275
 IR Inten    --     37.4660                15.2504               470.9398

                     61                     62                     63
                      A                      A                      A
 Frequencies --   3184.4011              3192.1387              3214.1499
 Red. masses --      1.0885                 1.0878                 1.0867
 Frc consts  --      6.5031                 6.5305                 6.6147
 IR Inten    --      2.7091                12.5573                 1.4348

                     64                     65                     66
                      A                      A                      A
 Frequencies --   3214.5831              3223.7154              3231.3549
 Red. masses --      1.0950                 1.0909                 1.0972
 Frc consts  --      6.6667                 6.6796                 6.7498
 IR Inten    --     35.4742                 1.4137                18.7438

                     67                     68                     69
                      A                      A                      A
 Frequencies --   3231.8653              3241.3200              3878.1597
 Red. masses --      1.0958                 1.0997                 1.0790
 Frc consts  --      6.7434                 6.8070                 9.5611
 IR Inten    --      5.3022                12.3333               121.4260

 - Thermochemistry -
 -------------------
 Temperature   298.150 Kelvin.  Pressure   1.00000 Atm.
 Atom     1 has atomic number  6 and mass  12.00000

 Molecular mass:   227.04049 amu.
 Principal axes and moments of inertia in atomic units:
                           1         2         3
     Eigenvalues --  1266.606226434.751897701.35811
           X           -0.70425   0.70995   0.00000
           Y            0.70995   0.70425  -0.00001
           Z            0.00001   0.00000   1.00000
 This molecule is an asymmetric top.
 Rotational symmetry number  1.
 Warning -- assumption of classical behavior for rotation
           may cause significant error
 Rotational temperatures (Kelvin)      0.06838     0.01346     0.01125
 Rotational constants (GHZ):           1.42486     0.28047     0.23434
    1 imaginary frequencies ignored.
 Zero-point vibrational energy     497124.4 (Joules/Mol)
                                  118.81558 (Kcal/Mol)
 Warning -- explicit consideration of  18 degrees of freedom as
           vibrations may cause significant error
 Vibrational temperatures:     90.49   153.05   162.77   272.78   320.00
          (Kelvin)            379.94   416.41   435.59   566.33   596.91
                              637.22   654.07   728.86   747.19   761.86
                              784.16   810.01   833.85   908.44   944.31
                             1028.32  1068.76  1080.39  1089.16  1113.50
                             1120.17  1194.82  1259.79  1267.61  1277.45
                             1385.58  1394.04  1401.11  1456.67  1464.70
                             1495.30  1520.47  1583.59  1621.24  1667.47
                             1673.65  1697.51  1714.26  1772.63  1828.21
                             1866.89  1937.40  1995.09  2009.40  2028.27
                             2144.42  2164.13  2199.11  2216.58  2296.27
                             2383.49  2418.41  2437.19  2498.72  4581.64
                             4592.78  4624.44  4625.07  4638.21  4649.20
                             4649.93  4663.54  5579.81

 Zero-point correction=                           0.189345 (Hartree/Particle)
 Thermal correction to Energy=                    0.200715
 Thermal correction to Enthalpy=                  0.201659
 Thermal correction to Gibbs Free Energy=         0.151650
 Sum of electronic and zero-point Energies=          -1028.610518
 Sum of electronic and thermal Energies=             -1028.599148
 Sum of electronic and thermal Enthalpies=           -1028.598204
 Sum of electronic and thermal Free Energies=        -1028.648213

                     E (Thermal)             CV                S
                      KCal/Mol        Cal/Mol-Kelvin    Cal/Mol-Kelvin
 Total                  125.951             47.123            105.254
 Electronic               0.000              0.000              0.000
 Translational            0.889              2.981             42.162
 Rotational               0.889              2.981             32.507
 Vibrational            124.173             41.161             30.585
 Vibration     1          0.597              1.972              4.364
 Vibration     2          0.605              1.944              3.334
 Vibration     3          0.607              1.939              3.214
 Vibration     4          0.633              1.854              2.232
 Vibration     5          0.648              1.807              1.939
 Vibration     6          0.671              1.739              1.635
 Vibration     7          0.686              1.693              1.477
 Vibration     8          0.694              1.668              1.402
 Vibration     9          0.761              1.484              0.986
 Vibration    10          0.778              1.438              0.910
 Vibration    11          0.803              1.377              0.818
 Vibration    12          0.813              1.351              0.782
 Vibration    13          0.862              1.235              0.642
 Vibration    14          0.874              1.207              0.612
 Vibration    15          0.884              1.185              0.588
 Vibration    16          0.900              1.151              0.555
 Vibration    17          0.919              1.111              0.518
 Vibration    18          0.936              1.076              0.486

 Optimization completed.
    -- Stationary point found.
 Normal termination of Gaussian 16 at Wed Oct 28 01:24:17 2020.
