 Gaussian 16, Revision C.01,
 Gaussian 16:  ES64L-G16RevC.01  3-Jul-2019

 ----------------------------------------------------------------------
 #p opt=addgic freq wb97xd/cc-pvdz nosymm int=ultrafine scrf=(solvent=C
 arbonTetraChloride)
 ----------------------------------------------------------------------

 ------------------------------------------------
 NM 2D-scan of HBT TD-WB97XD pVDZ in CTC Relaxed.
 ------------------------------------------------
 Symbolic Z-matrix:
 Charge =  0 Multiplicity = 1

 SCF Done:  E(RwB97XD) =  -1028.79597727     A.U. after   15 cycles
 SCF Done:  E(RwB97XD) =  -1028.80408288     A.U. after   13 cycles
 SCF Done:  E(RwB97XD) =  -1028.80523322     A.U. after   12 cycles
 SCF Done:  E(RwB97XD) =  -1028.80571534     A.U. after   12 cycles
 SCF Done:  E(RwB97XD) =  -1028.80591624     A.U. after   12 cycles
 SCF Done:  E(RwB97XD) =  -1028.80601736     A.U. after   11 cycles
 SCF Done:  E(RwB97XD) =  -1028.80603071     A.U. after   10 cycles
 SCF Done:  E(RwB97XD) =  -1028.80603172     A.U. after    8 cycles
 Optimization completed.
    -- Stationary point found.
 Normal termination of Gaussian 16 at Wed Oct 28 02:23:52 2020.

 --------------------------------------------------------------------
 #P Geom=AllCheck Guess=TCheck SCRF=Check GenChk RwB97XD/CC-pVDZ Freq
 --------------------------------------------------------------------

 Structure from the checkpoint file:  "config_6_20.chk"
 ------------------------------------------------
 NM 2D-scan of HBT TD-WB97XD pVDZ in CTC Relaxed.
 ------------------------------------------------
 Charge =  0 Multiplicity = 1

                          Input orientation:
 ---------------------------------------------------------------------
 Center     Atomic      Atomic             Coordinates (Angstroms)
 Number     Number       Type             X           Y           Z
 ---------------------------------------------------------------------
      1          6           0        1.487396   -3.221826   -0.000127
      2          6           0        1.018689   -1.915648   -0.000110
      3          6           0        1.829827   -0.770919   -0.000018
      4          6           0        3.220503   -0.982065    0.000044
      5          6           0        3.704384   -2.296652    0.000031
      6          6           0        2.856937   -3.413447   -0.000050
      7          1           0        0.787128   -4.057629   -0.000188
      8          1           0        3.916290   -0.142202    0.000113
      9          1           0        4.784400   -2.452234    0.000089
     10          1           0        3.272457   -4.421666   -0.000050
     11          7           0        1.039968    0.401802    0.000018
     12         16           0       -0.663756   -1.511903   -0.000168
     13          6           0       -1.302892    1.121008    0.000067
     14          6           0       -2.639979    0.711917    0.000145
     15          6           0       -0.896811    2.474486    0.000008
     16          6           0       -3.655990    1.647219    0.000121
     17          1           0       -2.887012   -0.351812    0.000228
     18          6           0       -1.966618    3.423142   -0.000045
     19          6           0       -3.296869    3.003745    0.000005
     20          1           0       -4.701365    1.338994    0.000181
     21          1           0       -1.730425    4.488562   -0.000126
     22          1           0       -4.084358    3.761100   -0.000039
     23          6           0       -0.255143    0.140266   -0.000001
     24          8           0        0.384224    2.723472   -0.000020
     25          1           0        0.962380    1.705311    0.000008
 ---------------------------------------------------------------------

 SCF Done:  E(RwB97XD) =  -1028.80603172     A.U. after    1 cycles

 Alpha  occ. eigenvalues --  -89.08789 -19.25050 -14.48853 -10.39706 -10.36788
 Alpha  occ. eigenvalues --  -10.36439 -10.34896 -10.32631 -10.32475 -10.32042
 Alpha  occ. eigenvalues --  -10.31904 -10.31540 -10.31295 -10.30902 -10.29918
 Alpha  occ. eigenvalues --  -10.29819  -8.11062  -6.05895  -6.05528  -6.05110
 Alpha  occ. eigenvalues --   -1.14066  -1.09472  -0.97793  -0.96213  -0.92800
 Alpha  occ. eigenvalues --   -0.88819  -0.86177  -0.83956  -0.82922  -0.75612
 Alpha  occ. eigenvalues --   -0.71825  -0.71170  -0.69067  -0.67672  -0.63572
 Alpha  occ. eigenvalues --   -0.60975  -0.59429  -0.57886  -0.56124  -0.54937
 Alpha  occ. eigenvalues --   -0.54616  -0.53707  -0.52806  -0.50926  -0.49803
 Alpha  occ. eigenvalues --   -0.49318  -0.46689  -0.46461  -0.45253  -0.45229
 Alpha  occ. eigenvalues --   -0.44446  -0.42977  -0.42349  -0.40337  -0.36371
 Alpha  occ. eigenvalues --   -0.35357  -0.32643  -0.31564  -0.28339
 Alpha virt. eigenvalues --   -0.00722   0.04441   0.06309   0.07817   0.07973
 Alpha virt. eigenvalues --    0.11118   0.14957   0.15089   0.17519   0.17936
 Alpha virt. eigenvalues --    0.19177   0.20829   0.21592   0.22105   0.22765

 Mulliken charges:
               1
     1  C    0.023419
     2  C   -0.214443
     3  C    0.245675
     4  C   -0.021856
     5  C    0.001504
     6  C    0.007379
     7  H    0.020883
     8  H    0.027158
     9  H    0.023889
    10  H    0.023524
    11  N   -0.327455
    12  S    0.169453
    13  C   -0.062817
    14  C   -0.035469
    15  C    0.115275
    16  C   -0.014587
    17  H    0.022952
    18  C   -0.024082
    19  C    0.022225
    20  H    0.006283
    21  H    0.011394
    22  H    0.017398
    23  C    0.082878
    24  O   -0.333038
    25  H    0.212459
 Sum of Mulliken charges =  -0.00000

 Dipole moment (field-independent basis, Debye):
    X=              0.3858    Y=             -4.0560    Z=              0.0000  Tot=              4.0743
 Quadrupole moment (field-independent basis, Debye-Ang):
   XX=            -82.4604   YY=            -92.3082   ZZ=           -103.8877
   XY=             -7.2167   XZ=              0.0003   YZ=              0.0000

  Exact polarizability:     275.929     -72.553     259.091       0.001       0.001      62.761
 Approx polarizability:     262.526     -25.255     244.784       0.002       0.001      82.132

 ******    2 imaginary frequencies (negative Signs) ******

                      1                      2                      3
                      A                      A                      A
 Frequencies --   -958.2236               -38.3380                63.8305
 Red. masses --      1.1322                 5.1631                 6.2668
 Frc consts  --      0.6125                 0.0045                 0.0150
 IR Inten    --   1969.3818                 0.0766                 1.0878

                      4                      5                      6
                      A                      A                      A
 Frequencies --    150.9515               157.0118               200.1422
 Red. masses --      5.0116                 5.5509                 6.4628
 Frc consts  --      0.0673                 0.0806                 0.1525
 IR Inten    --      0.7956                 3.6258                 0.2749

                      7                      8                      9
                      A                      A                      A
 Frequencies --    242.3883               289.4469               328.0459
 Red. masses --      5.5838                 7.0666                 5.1797
 Frc consts  --      0.1933                 0.3488                 0.3284
 IR Inten    --      0.1666                 8.6676                 0.0591

                     10                     11                     12
                      A                      A                      A
 Frequencies --    390.7160               433.7542               439.1636
 Red. masses --      6.0383                 3.0766                11.8610
 Frc consts  --      0.5431                 0.3410                 1.3478
 IR Inten    --     15.2866                 1.0255                 2.3605

                     13                     14                     15
                      A                      A                      A
 Frequencies --    459.2191               520.0840               536.3192
 Red. masses --      3.5022                 8.6256                 3.3340
 Frc consts  --      0.4351                 1.3746                 0.5650
 IR Inten    --      9.1166                 5.3343                 3.4667

                     16                     17                     18
                      A                      A                      A
 Frequencies --    566.1502               575.0626               575.6713
 Red. masses --      8.1837                 3.7284                 7.7388
 Frc consts  --      1.5455                 0.7264                 1.5110
 IR Inten    --     10.4404                 0.1172                 1.9740

                     19                     20                     21
                      A                      A                      A
 Frequencies --    645.4383               648.2611               691.3211
 Red. masses --      7.0796                 6.4361                 6.6712
 Frc consts  --      1.7377                 1.5936                 1.8785
 IR Inten    --    100.3926                 0.0011                 4.2790

                     22                     23                     24
                      A                      A                      A
 Frequencies --    750.8031               755.3458               767.6354
 Red. masses --      6.4948                 2.2425                 1.6031
 Frc consts  --      2.1571                 0.7538                 0.5566
 IR Inten    --      1.0531                23.5169                35.0666

                     25                     26                     27
                      A                      A                      A
 Frequencies --    772.9287               781.7740               786.4921
 Red. masses --      2.3779                 1.7768                 8.0446
 Frc consts  --      0.8370                 0.6398                 2.9319
 IR Inten    --     19.1138                52.3259                20.1227

                     28                     29                     30
                      A                      A                      A
 Frequencies --    861.4059               876.6401               885.5022
 Red. masses --      6.3169                 1.6193                 1.3861
 Frc consts  --      2.7617                 0.7332                 0.6404
 IR Inten    --     16.1619                 7.0099                 0.4111

                     31                     32                     33
                      A                      A                      A
 Frequencies --    922.2265               961.2095               974.0344
 Red. masses --      7.3619                 1.3623                 1.3651
 Frc consts  --      3.6891                 0.7416                 0.7631
 IR Inten    --      9.1763                 0.9005                 1.5705

                     34                     35                     36
                      A                      A                      A
 Frequencies --   1010.5328              1015.7446              1028.1346
 Red. masses --      1.3060                 1.3063                 7.7875
 Frc consts  --      0.7858                 0.7941                 4.8501
 IR Inten    --      0.3120                 0.0047                 8.4944

                     37                     38                     39
                      A                      A                      A
 Frequencies --   1052.5298              1063.1834              1113.9605
 Red. masses --      2.0272                 1.8565                 2.9074
 Frc consts  --      1.3232                 1.2364                 2.1257
 IR Inten    --      7.6078                 8.0411                 2.8902

                     40                     41                     42
                      A                      A                      A
 Frequencies --   1161.6699              1166.4963              1167.6031
 Red. masses --      1.4225                 1.0540                 1.4005
 Frc consts  --      1.1310                 0.8450                 1.1249
 IR Inten    --      8.3647                72.1303                 0.6100

                     43                     44                     45
                      A                      A                      A
 Frequencies --   1175.9590              1186.2151              1252.1990
 Red. masses --      1.1178                 1.3354                 2.2482
 Frc consts  --      0.9107                 1.1071                 2.0770
 IR Inten    --     81.4221                 3.0067                36.7726

                     46                     47                     48
                      A                      A                      A
 Frequencies --   1285.7598              1300.3678              1326.9540
 Red. masses --      2.1968                 2.2525                 2.4635
 Frc consts  --      2.1398                 2.2442                 2.5558
 IR Inten    --     21.0827               115.2773               219.2874

                     49                     50                     51
                      A                      A                      A
 Frequencies --   1373.2615              1379.1172              1412.4696
 Red. masses --      6.9933                 2.5616                 6.5399
 Frc consts  --      7.7703                 2.8705                 7.6874
 IR Inten    --     33.3854                21.2691                63.3346

                     52                     53                     54
                      A                      A                      A
 Frequencies --   1480.4487              1494.2279              1504.2222
 Red. masses --      2.7035                 2.7225                 2.8669
 Frc consts  --      3.4911                 3.5814                 3.8219
 IR Inten    --     39.8352                11.6045                35.5409

                     55                     56                     57
                      A                      A                      A
 Frequencies --   1571.6199              1578.7101              1633.4030
 Red. masses --      4.1313                 7.7751                 6.2219
 Frc consts  --      6.0121                11.4173                 9.7804
 IR Inten    --    236.3374               806.6977               206.5733

                     58                     59                     60
                      A                      A                      A
 Frequencies --   1655.1164              1680.3717              1701.2648
 Red. masses --      6.9010                 6.7112                 6.8913
 Frc consts  --     11.1383                11.1650                11.7515
 IR Inten    --     10.2992                 3.4879               182.5347

                     61                     62                     63
                      A                      A                      A
 Frequencies --   1890.6958              3201.2611              3206.3262
 Red. masses --      1.0947                 1.0863                 1.0906
 Frc consts  --      2.3056                 6.5592                 6.6057
 IR Inten    --    156.8225                 1.5637                10.1326

                     64                     65                     66
                      A                      A                      A
 Frequencies --   3211.2321              3220.2389              3223.2202
 Red. masses --      1.0862                 1.0908                 1.0939
 Frc consts  --      6.5997                 6.6643                 6.6956
 IR Inten    --      1.3328                 1.9387                20.7577

                     67                     68                     69
                      A                      A                      A
 Frequencies --   3229.6204              3237.5744              3237.7534
 Red. masses --      1.0957                 1.1000                 1.0987
 Frc consts  --      6.7333                 6.7932                 6.7858
 IR Inten    --      7.3613                22.8675                 5.9734

 - Thermochemistry -
 -------------------
 Temperature   298.150 Kelvin.  Pressure   1.00000 Atm.
 Atom     1 has atomic number  6 and mass  12.00000

 Molecular mass:   227.04049 amu.
 Principal axes and moments of inertia in atomic units:
                           1         2         3
     Eigenvalues --  1250.818556224.931827475.75036
           X            0.70923   0.70498  -0.00001
           Y           -0.70498   0.70923  -0.00002
           Z           -0.00001   0.00002   1.00000
 This molecule is an asymmetric top.
 Rotational symmetry number  1.
 Warning -- assumption of classical behavior for rotation
           may cause significant error
 Rotational temperatures (Kelvin)      0.06925     0.01391     0.01159
 Rotational constants (GHZ):           1.44285     0.28992     0.24141
    2 imaginary frequencies ignored.
 Zero-point vibrational energy     487110.1 (Joules/Mol)
                                  116.42210 (Kcal/Mol)
 Warning -- explicit consideration of  16 degrees of freedom as
           vibrations may cause significant error
 Vibrational temperatures:     91.84   217.19   225.90   287.96   348.74
          (Kelvin)            416.45   471.98   562.15   624.08   631.86
                              660.71   748.28   771.64   814.56   827.39
                              828.26   928.64   932.70   994.66  1080.24
                             1086.77  1104.46  1112.07  1124.80  1131.59
                             1239.37  1261.29  1274.04  1326.88  1382.97
                             1401.42  1453.93  1461.43  1479.26  1514.36
                             1529.68  1602.74  1671.38  1678.33  1679.92
                             1691.94  1706.70  1801.64  1849.92  1870.94
                             1909.19  1975.82  1984.24  2032.23  2130.04
                             2149.86  2164.24  2261.21  2271.41  2350.10
                             2381.34  2417.68  2447.74  2720.29  4605.90
                             4613.19  4620.25  4633.21  4637.49  4646.70
                             4658.15  4658.41

 Zero-point correction=                           0.185530 (Hartree/Particle)
 Thermal correction to Energy=                    0.195991
 Thermal correction to Enthalpy=                  0.196935
 Thermal correction to Gibbs Free Energy=         0.148856
 Sum of electronic and zero-point Energies=          -1028.620501
 Sum of electronic and thermal Energies=             -1028.610041
 Sum of electronic and thermal Enthalpies=           -1028.609097
 Sum of electronic and thermal Free Energies=        -1028.657176

                     E (Thermal)             CV                S
                      KCal/Mol        Cal/Mol-Kelvin    Cal/Mol-Kelvin
 Total                  122.986             44.329            101.191
 Electronic               0.000              0.000              0.000
 Translational            0.889              2.981             42.162
 Rotational               0.889              2.981             32.432
 Vibrational            121.209             38.367             26.597
 Vibration     1          0.597              1.972              4.335
 Vibration     2          0.618              1.902              2.660
 Vibration     3          0.621              1.895              2.585
 Vibration     4          0.638              1.840              2.132
 Vibration     5          0.659              1.775              1.785
 Vibration     6          0.686              1.693              1.477
 Vibration     7          0.711              1.619              1.270
 Vibration     8          0.758              1.490              0.997
 Vibration     9          0.794              1.397              0.846
 Vibration    10          0.799              1.385              0.829
 Vibration    11          0.817              1.340              0.768
 Vibration    12          0.875              1.206              0.610
 Vibration    13          0.891              1.170              0.573
 Vibration    14          0.922              1.104              0.512
 Vibration    15          0.931              1.085              0.495
 Vibration    16          0.932              1.084              0.493

 Optimization completed.
    -- Stationary point found.
 Normal termination of Gaussian 16 at Wed Oct 28 02:30:49 2020.
