 Gaussian 16, Revision C.01,
 Gaussian 16:  ES64L-G16RevC.01  3-Jul-2019

 ----------------------------------------------------------------------
 #p opt=addgic freq wb97xd/cc-pvdz nosymm int=ultrafine scrf=(solvent=C
 arbonTetraChloride)
 ----------------------------------------------------------------------

 ------------------------------------------------
 NM 2D-scan of HBT TD-WB97XD pVDZ in CTC Relaxed.
 ------------------------------------------------
 Symbolic Z-matrix:
 Charge =  0 Multiplicity = 1

 SCF Done:  E(RwB97XD) =  -1028.80595059     A.U. after   15 cycles
 SCF Done:  E(RwB97XD) =  -1028.81273368     A.U. after   13 cycles
 SCF Done:  E(RwB97XD) =  -1028.81417786     A.U. after   12 cycles
 SCF Done:  E(RwB97XD) =  -1028.81463402     A.U. after   12 cycles
 SCF Done:  E(RwB97XD) =  -1028.81477641     A.U. after   11 cycles
 SCF Done:  E(RwB97XD) =  -1028.81481396     A.U. after   11 cycles
 SCF Done:  E(RwB97XD) =  -1028.81481660     A.U. after    9 cycles
 Optimization completed.
    -- Stationary point found.
 Normal termination of Gaussian 16 at Wed Oct 28 01:05:25 2020.

 --------------------------------------------------------------------
 #P Geom=AllCheck Guess=TCheck SCRF=Check GenChk RwB97XD/CC-pVDZ Freq
 --------------------------------------------------------------------

 Structure from the checkpoint file:  "config_6_16.chk"
 ------------------------------------------------
 NM 2D-scan of HBT TD-WB97XD pVDZ in CTC Relaxed.
 ------------------------------------------------
 Charge =  0 Multiplicity = 1

                          Input orientation:
 ---------------------------------------------------------------------
 Center     Atomic      Atomic             Coordinates (Angstroms)
 Number     Number       Type             X           Y           Z
 ---------------------------------------------------------------------
      1          6           0        1.544034   -3.236349   -0.000057
      2          6           0        1.012438   -1.952968   -0.000040
      3          6           0        1.790465   -0.786679   -0.000008
      4          6           0        3.186933   -0.927942    0.000003
      5          6           0        3.728465   -2.215655   -0.000012
      6          6           0        2.923214   -3.363400   -0.000041
      7          1           0        0.888622   -4.107643   -0.000079
      8          1           0        3.836017   -0.051655    0.000026
      9          1           0        4.813724   -2.328245   -0.000001
     10          1           0        3.380373   -4.353519   -0.000050
     11          7           0        0.986773    0.361202    0.000012
     12         16           0       -0.686216   -1.577581   -0.000047
     13          6           0       -1.329054    1.103879    0.000035
     14          6           0       -2.682695    0.753943    0.000061
     15          6           0       -0.884120    2.449565    0.000023
     16          6           0       -3.660705    1.732421    0.000056
     17          1           0       -2.970709   -0.300046    0.000082
     18          6           0       -1.909541    3.438061    0.000006
     19          6           0       -3.254023    3.074666    0.000020
     20          1           0       -4.717355    1.465159    0.000075
     21          1           0       -1.622622    4.490815   -0.000016
     22          1           0       -4.012095    3.861231    0.000007
     23          6           0       -0.303575    0.092552    0.000007
     24          8           0        0.401010    2.686256    0.000022
     25          1           0        0.937619    1.689059    0.000023
 ---------------------------------------------------------------------

 SCF Done:  E(RwB97XD) =  -1028.81481660     A.U. after    1 cycles

 Alpha  occ. eigenvalues --  -89.08920 -19.25351 -14.48334 -10.39719 -10.36840
 Alpha  occ. eigenvalues --  -10.36074 -10.34949 -10.32496 -10.32416 -10.31958
 Alpha  occ. eigenvalues --  -10.31854 -10.31605 -10.31271 -10.31151 -10.29858
 Alpha  occ. eigenvalues --  -10.29851  -8.11119  -6.05958  -6.05593  -6.05167
 Alpha  occ. eigenvalues --   -1.14511  -1.09496  -0.97698  -0.96102  -0.92577
 Alpha  occ. eigenvalues --   -0.88793  -0.85990  -0.84035  -0.82989  -0.75635
 Alpha  occ. eigenvalues --   -0.71666  -0.70992  -0.69161  -0.67932  -0.63541
 Alpha  occ. eigenvalues --   -0.60919  -0.59341  -0.57945  -0.56152  -0.54844
 Alpha  occ. eigenvalues --   -0.54590  -0.53594  -0.52766  -0.50964  -0.49873
 Alpha  occ. eigenvalues --   -0.49486  -0.46851  -0.46379  -0.45276  -0.45214
 Alpha  occ. eigenvalues --   -0.44309  -0.43001  -0.42413  -0.40272  -0.36349
 Alpha  occ. eigenvalues --   -0.35529  -0.32576  -0.31584  -0.28427
 Alpha virt. eigenvalues --   -0.00680   0.04493   0.06511   0.07746   0.07791
 Alpha virt. eigenvalues --    0.11145   0.14857   0.15068   0.17230   0.17911
 Alpha virt. eigenvalues --    0.19074   0.20877   0.21685   0.22256   0.22755

 Mulliken charges:
               1
     1  C    0.020996
     2  C   -0.221152
     3  C    0.250014
     4  C   -0.018027
     5  C    0.003455
     6  C    0.005672
     7  H    0.020231
     8  H    0.025489
     9  H    0.023315
    10  H    0.023237
    11  N   -0.326767
    12  S    0.167484
    13  C   -0.066529
    14  C   -0.030385
    15  C    0.105793
    16  C   -0.014417
    17  H    0.017655
    18  C   -0.017661
    19  C    0.022158
    20  H    0.006734
    21  H    0.011588
    22  H    0.017352
    23  C    0.080745
    24  O   -0.307827
    25  H    0.200845
 Sum of Mulliken charges =  -0.00000

 Dipole moment (field-independent basis, Debye):
    X=              0.3791    Y=             -3.7878    Z=             -0.0000  Tot=              3.8067
 Quadrupole moment (field-independent basis, Debye-Ang):
   XX=            -82.5720   YY=            -91.7728   ZZ=           -103.9148
   XY=             -7.2223   XZ=             -0.0000   YZ=              0.0000

  Exact polarizability:     276.140     -71.691     258.714      -0.001       0.002      62.795
 Approx polarizability:     262.732     -25.121     244.237      -0.000       0.001      82.124

 ******    2 imaginary frequencies (negative Signs) ******

                      1                      2                      3
                      A                      A                      A
 Frequencies --   -388.9571               -22.2723                65.8336
 Red. masses --      1.6233                 5.1971                 6.1844
 Frc consts  --      0.1447                 0.0015                 0.0158
 IR Inten    --   1031.8850                 0.0646                 1.2150

                      4                      5                      6
                      A                      A                      A
 Frequencies --    151.7322               168.2425               198.8376
 Red. masses --      5.0831                 5.2756                 6.3002
 Frc consts  --      0.0690                 0.0880                 0.1468
 IR Inten    --      0.5897                27.6642                 0.3640

                      7                      8                      9
                      A                      A                      A
 Frequencies --    242.6044               287.2569               327.9599
 Red. masses --      5.6283                 6.8459                 5.1796
 Frc consts  --      0.1952                 0.3328                 0.3282
 IR Inten    --      0.1606                15.7216                 0.1269

                     10                     11                     12
                      A                      A                      A
 Frequencies --    413.3012               434.4866               437.2047
 Red. masses --      5.4503                 3.0952                 9.7092
 Frc consts  --      0.5485                 0.3443                 1.0935
 IR Inten    --     53.3023                 1.2883                28.4883

                     13                     14                     15
                      A                      A                      A
 Frequencies --    459.6463               520.1487               537.2724
 Red. masses --      3.5334                 8.5595                 3.3739
 Frc consts  --      0.4398                 1.3644                 0.5738
 IR Inten    --      8.8491                 6.1962                 3.4716

                     16                     17                     18
                      A                      A                      A
 Frequencies --    566.8672               575.1012               582.6795
 Red. masses --      7.5406                 3.7092                 7.9333
 Frc consts  --      1.4276                 0.7228                 1.5869
 IR Inten    --     13.1004                 0.0933                 1.3208

                     19                     20                     21
                      A                      A                      A
 Frequencies --    648.5371               686.0451               723.4934
 Red. masses --      6.4408                 6.1620                 6.0998
 Frc consts  --      1.5961                 1.7087                 1.8812
 IR Inten    --      0.0032                43.7094               139.2738

                     22                     23                     24
                      A                      A                      A
 Frequencies --    755.3871               768.5730               773.8153
 Red. masses --      2.1302                 1.8661                 1.9645
 Frc consts  --      0.7162                 0.6495                 0.6931
 IR Inten    --     24.5355                24.0063                33.3659

                     25                     26                     27
                      A                      A                      A
 Frequencies --    777.8447               782.4727               792.4517
 Red. masses --      7.6591                 1.8400                 4.5016
 Frc consts  --      2.7303                 0.6638                 1.6656
 IR Inten    --    155.2779                47.3660               172.2667

                     28                     29                     30
                      A                      A                      A
 Frequencies --    860.9850               878.6507               886.1170
 Red. masses --      6.2166                 1.6072                 1.3920
 Frc consts  --      2.7152                 0.7310                 0.6440
 IR Inten    --     29.9365                 6.4305                 0.4307

                     31                     32                     33
                      A                      A                      A
 Frequencies --    938.3310               963.1843               974.5087
 Red. masses --      6.2996                 1.3612                 1.3643
 Frc consts  --      3.2680                 0.7441                 0.7633
 IR Inten    --     92.4935                 0.9679                 1.5436

                     34                     35                     36
                      A                      A                      A
 Frequencies --   1010.6262              1015.4632              1024.8632
 Red. masses --      1.3047                 1.3058                 7.4669
 Frc consts  --      0.7851                 0.7934                 4.6209
 IR Inten    --      0.2882                 0.0018                 3.1615

                     37                     38                     39
                      A                      A                      A
 Frequencies --   1053.1848              1064.0874              1110.3206
 Red. masses --      1.9990                 1.8725                 3.0360
 Frc consts  --      1.3064                 1.2492                 2.2052
 IR Inten    --      5.3484                11.6385                 4.7764

                     40                     41                     42
                      A                      A                      A
 Frequencies --   1154.9919              1157.6527              1163.1431
 Red. masses --      1.0550                 1.4334                 1.4088
 Frc consts  --      0.8292                 1.1318                 1.1230
 IR Inten    --     70.8477                 7.7724                 1.4161

                     43                     44                     45
                      A                      A                      A
 Frequencies --   1176.2108              1184.1970              1257.7835
 Red. masses --      1.0907                 1.2601                 2.0219
 Frc consts  --      0.8891                 1.0411                 1.8846
 IR Inten    --     94.6999                 3.1862                44.7879

                     46                     47                     48
                      A                      A                      A
 Frequencies --   1289.0244              1312.7327              1334.1639
 Red. masses --      1.5969                 4.5807                 2.3572
 Frc consts  --      1.5633                 4.6509                 2.4721
 IR Inten    --      0.8970               239.1688                83.2732

                     49                     50                     51
                      A                      A                      A
 Frequencies --   1379.6746              1381.5119              1410.3340
 Red. masses --      6.2621                 2.9119                 5.0866
 Frc consts  --      7.0230                 3.2744                 5.9611
 IR Inten    --     25.5313                21.5788                59.8509

                     52                     53                     54
                      A                      A                      A
 Frequencies --   1484.0438              1496.4370              1508.7271
 Red. masses --      2.7755                 2.7687                 3.0690
 Frc consts  --      3.6015                 3.6529                 4.1159
 IR Inten    --     39.4449                15.1850                39.1841

                     55                     56                     57
                      A                      A                      A
 Frequencies --   1575.3955              1589.2360              1631.4110
 Red. masses --      5.5445                 4.6685                 5.9400
 Frc consts  --      8.1075                 6.9471                 9.3145
 IR Inten    --    264.8130               869.3734               311.9056

                     58                     59                     60
                      A                      A                      A
 Frequencies --   1658.3412              1682.9965              1706.8665
 Red. masses --      6.9521                 6.6948                 6.5852
 Frc consts  --     11.2646                11.1725                11.3037
 IR Inten    --     20.0602                28.2757               181.3763

                     61                     62                     63
                      A                      A                      A
 Frequencies --   1870.6352              3197.8764              3204.9419
 Red. masses --      1.0977                 1.0883                 1.0890
 Frc consts  --      2.2631                 6.5574                 6.5905
 IR Inten    --     97.6912                 3.3500                 8.9320

                     64                     65                     66
                      A                      A                      A
 Frequencies --   3210.9060              3220.7359              3225.0756
 Red. masses --      1.0863                 1.0906                 1.0937
 Frc consts  --      6.5984                 6.6654                 6.7024
 IR Inten    --      1.7267                 2.2376                17.5044

                     67                     68                     69
                      A                      A                      A
 Frequencies --   3230.1885              3236.1299              3237.4475
 Red. masses --      1.0958                 1.0985                 1.1001
 Frc consts  --      6.7364                 6.7782                 6.7931
 IR Inten    --      7.1491                17.8510                13.0180

 - Thermochemistry -
 -------------------
 Temperature   298.150 Kelvin.  Pressure   1.00000 Atm.
 Atom     1 has atomic number  6 and mass  12.00000

 Molecular mass:   227.04049 amu.
 Principal axes and moments of inertia in atomic units:
                           1         2         3
     Eigenvalues --  1262.064756239.764437501.82917
           X            0.70851   0.70570   0.00000
           Y           -0.70570   0.70851  -0.00001
           Z           -0.00001   0.00001   1.00000
 This molecule is an asymmetric top.
 Rotational symmetry number  1.
 Warning -- assumption of classical behavior for rotation
           may cause significant error
 Rotational temperatures (Kelvin)      0.06863     0.01388     0.01155
 Rotational constants (GHZ):           1.42999     0.28923     0.24057
    2 imaginary frequencies ignored.
 Zero-point vibrational energy     488237.5 (Joules/Mol)
                                  116.69155 (Kcal/Mol)
 Warning -- explicit consideration of  16 degrees of freedom as
           vibrations may cause significant error
 Vibrational temperatures:     94.72   218.31   242.06   286.08   349.05
          (Kelvin)            413.30   471.86   594.65   625.13   629.04
                              661.33   748.38   773.02   815.60   827.44
                              838.35   933.10   987.07  1040.95  1086.83
                             1105.81  1113.35  1119.14  1125.80  1140.16
                             1238.77  1264.18  1274.92  1350.05  1385.81
                             1402.10  1454.07  1461.03  1474.55  1515.30
                             1530.98  1597.50  1661.78  1665.60  1673.50
                             1692.30  1703.80  1809.67  1854.62  1888.73
                             1919.56  1985.04  1987.69  2029.16  2135.21
                             2153.04  2170.72  2266.64  2286.56  2347.24
                             2385.98  2421.46  2455.80  2691.43  4601.03
                             4611.20  4619.78  4633.92  4640.16  4647.52
                             4656.07  4657.96

 Zero-point correction=                           0.185960 (Hartree/Particle)
 Thermal correction to Energy=                    0.196328
 Thermal correction to Enthalpy=                  0.197272
 Thermal correction to Gibbs Free Energy=         0.149380
 Sum of electronic and zero-point Energies=          -1028.628857
 Sum of electronic and thermal Energies=             -1028.618489
 Sum of electronic and thermal Enthalpies=           -1028.617544
 Sum of electronic and thermal Free Energies=        -1028.665437

                     E (Thermal)             CV                S
                      KCal/Mol        Cal/Mol-Kelvin    Cal/Mol-Kelvin
 Total                  123.198             44.021            100.798
 Electronic               0.000              0.000              0.000
 Translational            0.889              2.981             42.162
 Rotational               0.889              2.981             32.446
 Vibrational            121.420             38.060             26.189
 Vibration     1          0.597              1.971              4.274
 Vibration     2          0.619              1.901              2.650
 Vibration     3          0.625              1.882              2.455
 Vibration     4          0.637              1.842              2.144
 Vibration     5          0.659              1.775              1.784
 Vibration     6          0.684              1.697              1.490
 Vibration     7          0.711              1.620              1.270
 Vibration     8          0.777              1.441              0.915
 Vibration     9          0.795              1.395              0.844
 Vibration    10          0.798              1.389              0.835
 Vibration    11          0.818              1.340              0.767
 Vibration    12          0.875              1.205              0.610
 Vibration    13          0.892              1.168              0.571
 Vibration    14          0.923              1.103              0.510
 Vibration    15          0.931              1.085              0.495
 Vibration    16          0.939              1.069              0.480

 Optimization completed.
    -- Stationary point found.
 Normal termination of Gaussian 16 at Wed Oct 28 01:11:52 2020.
