 Gaussian 16, Revision C.01,
 Gaussian 16:  ES64L-G16RevC.01  3-Jul-2019

 ----------------------------------------------------------------------
 #p opt=addgic freq wb97xd/cc-pvdz nosymm int=ultrafine scrf=(solvent=C
 arbonTetraChloride)
 ----------------------------------------------------------------------

 ------------------------------------------------
 NM 2D-scan of HBT TD-WB97XD pVDZ in CTC Relaxed.
 ------------------------------------------------
 Symbolic Z-matrix:
 Charge =  0 Multiplicity = 1

 SCF Done:  E(RwB97XD) =  -1028.78060495     A.U. after   16 cycles
 SCF Done:  E(RwB97XD) =  -1028.80610217     A.U. after   14 cycles
 SCF Done:  E(RwB97XD) =  -1028.80950709     A.U. after   13 cycles
 SCF Done:  E(RwB97XD) =  -1028.81013028     A.U. after   12 cycles
 SCF Done:  E(RwB97XD) =  -1028.81018341     A.U. after   10 cycles
 SCF Done:  E(RwB97XD) =  -1028.81019198     A.U. after   10 cycles
 SCF Done:  E(RwB97XD) =  -1028.81019257     A.U. after    9 cycles
 Optimization completed.
    -- Stationary point found.
 Normal termination of Gaussian 16 at Wed Oct 28 00:48:59 2020.

 --------------------------------------------------------------------
 #P Geom=AllCheck Guess=TCheck SCRF=Check GenChk RwB97XD/CC-pVDZ Freq
 --------------------------------------------------------------------

 Structure from the checkpoint file:  "config_9_17.chk"
 ------------------------------------------------
 NM 2D-scan of HBT TD-WB97XD pVDZ in CTC Relaxed.
 ------------------------------------------------
 Charge =  0 Multiplicity = 1

                          Input orientation:
 ---------------------------------------------------------------------
 Center     Atomic      Atomic             Coordinates (Angstroms)
 Number     Number       Type             X           Y           Z
 ---------------------------------------------------------------------
      1          6           0        1.540973   -3.270982   -0.000113
      2          6           0        0.993466   -1.993150   -0.000049
      3          6           0        1.788305   -0.839722    0.000036
      4          6           0        3.179791   -0.958040    0.000062
      5          6           0        3.731035   -2.239272   -0.000006
      6          6           0        2.926478   -3.385481   -0.000093
      7          1           0        0.899278   -4.152365   -0.000175
      8          1           0        3.814353   -0.071421    0.000131
      9          1           0        4.816508   -2.346584    0.000012
     10          1           0        3.387207   -4.373812   -0.000141
     11          7           0        1.005493    0.314185    0.000093
     12         16           0       -0.708405   -1.581228   -0.000041
     13          6           0       -1.304987    1.122077    0.000052
     14          6           0       -2.683831    0.759447    0.000093
     15          6           0       -0.883081    2.514861    0.000026
     16          6           0       -3.664800    1.708416    0.000099
     17          1           0       -2.962016   -0.297985    0.000130
     18          6           0       -1.973446    3.475253   -0.000044
     19          6           0       -3.285021    3.083388    0.000022
     20          1           0       -4.717355    1.425716    0.000141
     21          1           0       -1.699087    4.531799   -0.000153
     22          1           0       -4.068814    3.845317   -0.000005
     23          6           0       -0.323012    0.117278    0.000036
     24          8           0        0.328680    2.848939   -0.000204
     25          1           0        1.292126    1.306670    0.000188
 ---------------------------------------------------------------------

 SCF Done:  E(RwB97XD) =  -1028.81019257     A.U. after    1 cycles

 Alpha  occ. eigenvalues --  -89.09691 -19.21575 -14.52275 -10.41185 -10.37476
 Alpha  occ. eigenvalues --  -10.36102 -10.35847 -10.33164 -10.33008 -10.32503
 Alpha  occ. eigenvalues --  -10.32267 -10.31182 -10.30803 -10.30337 -10.29211
 Alpha  occ. eigenvalues --  -10.28696  -8.11788  -6.06662  -6.06284  -6.05794
 Alpha  occ. eigenvalues --   -1.12762  -1.09714  -0.98565  -0.95554  -0.93255
 Alpha  occ. eigenvalues --   -0.89198  -0.86747  -0.83723  -0.81940  -0.75558
 Alpha  occ. eigenvalues --   -0.73060  -0.72170  -0.68931  -0.67947  -0.64840
 Alpha  occ. eigenvalues --   -0.60919  -0.59710  -0.56800  -0.55838  -0.55835
 Alpha  occ. eigenvalues --   -0.55027  -0.53923  -0.52981  -0.50097  -0.49642
 Alpha  occ. eigenvalues --   -0.49013  -0.48303  -0.46775  -0.45613  -0.44806
 Alpha  occ. eigenvalues --   -0.44475  -0.42937  -0.41924  -0.40426  -0.36815
 Alpha  occ. eigenvalues --   -0.33539  -0.31859  -0.31600  -0.26417
 Alpha virt. eigenvalues --   -0.01226   0.03836   0.05742   0.07022   0.09245
 Alpha virt. eigenvalues --    0.11232   0.14193   0.14850   0.16261   0.17438
 Alpha virt. eigenvalues --    0.18414   0.19960   0.20855   0.21512   0.22769

 Mulliken charges:
               1
     1  C    0.018770
     2  C   -0.229928
     3  C    0.249203
     4  C   -0.011766
     5  C    0.008410
     6  C    0.004553
     7  H    0.024112
     8  H    0.029953
     9  H    0.026779
    10  H    0.025829
    11  N   -0.146591
    12  S    0.181845
    13  C   -0.093276
    14  C   -0.019806
    15  C    0.100836
    16  C   -0.029693
    17  H    0.013850
    18  C   -0.025668
    19  C    0.027122
    20  H    0.002448
    21  H    0.002855
    22  H    0.014066
    23  C    0.074314
    24  O   -0.387738
    25  H    0.139520
 Sum of Mulliken charges =  -0.00000

 Dipole moment (field-independent basis, Debye):
    X=              1.7261    Y=             -5.3282    Z=              0.0006  Tot=              5.6008
 Quadrupole moment (field-independent basis, Debye-Ang):
   XX=            -81.5994   YY=            -96.0141   ZZ=           -104.0010
   XY=             -6.6967   XZ=              0.0006   YZ=              0.0019

  Exact polarizability:     286.090     -86.927     284.465      -0.002       0.001      62.832
 Approx polarizability:     265.010     -31.873     255.319      -0.002       0.001      81.884

                      1                      2                      3
                      A                      A                      A
 Frequencies --     55.5288                66.8664               103.9082
 Red. masses --      6.0843                 4.6051                 5.7415
 Frc consts  --      0.0111                 0.0121                 0.0365
 IR Inten    --      1.2854                 0.8119                 2.2981

                      4                      5                      6
                      A                      A                      A
 Frequencies --    135.2245               197.5369               228.6403
 Red. masses --      5.5026                 6.2496                 5.9431
 Frc consts  --      0.0593                 0.1437                 0.1830
 IR Inten    --      1.8425                 0.0001                 0.8702

                      7                      8                      9
                      A                      A                      A
 Frequencies --    262.0873               296.9482               308.7305
 Red. masses --      7.7842                 6.5652                 5.3933
 Frc consts  --      0.3150                 0.3411                 0.3029
 IR Inten    --      8.2898                 1.3436                 0.6617

                     10                     11                     12
                      A                      A                      A
 Frequencies --    407.2018               428.4443               448.8471
 Red. masses --      9.1656                 3.2810                 3.5073
 Frc consts  --      0.8954                 0.3549                 0.4163
 IR Inten    --      3.4374                 0.0002                10.2169

                     13                     14                     15
                      A                      A                      A
 Frequencies --    510.8971               523.5486               533.0200
 Red. masses --      8.4316                 2.6957                 6.9065
 Frc consts  --      1.2967                 0.4353                 1.1561
 IR Inten    --     11.1836                 5.6824                 5.8746

                     16                     17                     18
                      A                      A                      A
 Frequencies --    549.4412               561.3902               581.7696
 Red. masses --      7.1067                 3.8566                 7.0819
 Frc consts  --      1.2640                 0.7161                 1.4122
 IR Inten    --     10.2763                 0.0525                36.0951

                     19                     20                     21
                      A                      A                      A
 Frequencies --    633.7746               651.0956               722.7415
 Red. masses --      5.2997                 5.9267                 5.8235
 Frc consts  --      1.2542                 1.4803                 1.7923
 IR Inten    --      0.7736                 4.3885                54.4318

                     22                     23                     24
                      A                      A                      A
 Frequencies --    737.8973               751.0677               758.6105
 Red. masses --      7.8106                 2.7581                 1.4399
 Frc consts  --      2.5057                 0.9167                 0.4882
 IR Inten    --     61.8035                 2.9098                70.3753

                     25                     26                     27
                      A                      A                      A
 Frequencies --    772.0758               776.5901               825.0552
 Red. masses --      1.7046                 1.8811                 1.1724
 Frc consts  --      0.5987                 0.6684                 0.4702
 IR Inten    --     17.0682                42.0418                65.1513

                     28                     29                     30
                      A                      A                      A
 Frequencies --    835.2443               862.8066               878.3072
 Red. masses --      5.7367                 4.1220                 2.0390
 Frc consts  --      2.3580                 1.8079                 0.9267
 IR Inten    --     17.9750                 6.3857                25.0109

                     31                     32                     33
                      A                      A                      A
 Frequencies --    884.8879               964.4368               964.6434
 Red. masses --      1.3705                 1.3242                 4.6090
 Frc consts  --      0.6323                 0.7257                 2.5269
 IR Inten    --      0.0745                 0.0898                33.0745

                     34                     35                     36
                      A                      A                      A
 Frequencies --    970.8483              1013.5356              1018.9344
 Red. masses --      1.3602                 1.3035                 1.3079
 Frc consts  --      0.7553                 0.7889                 0.8001
 IR Inten    --      1.3468                 0.0160                 0.3837

                     37                     38                     39
                      A                      A                      A
 Frequencies --   1034.0114              1055.2573              1090.8561
 Red. masses --      2.1413                 2.0540                 3.5410
 Frc consts  --      1.3489                 1.3476                 2.4826
 IR Inten    --     15.4413                11.9508                25.1626

                     40                     41                     42
                      A                      A                      A
 Frequencies --   1136.9237              1161.6355              1164.1062
 Red. masses --      1.8328                 1.3475                 1.2491
 Frc consts  --      1.3958                 1.0713                 0.9973
 IR Inten    --     67.5244                 7.9874                66.6388

                     43                     44                     45
                      A                      A                      A
 Frequencies --   1178.6453              1193.4488              1243.3160
 Red. masses --      1.1409                 1.2914                 1.9963
 Frc consts  --      0.9338                 1.0837                 1.8182
 IR Inten    --     13.9139                26.3699                27.1359

                     46                     47                     48
                      A                      A                      A
 Frequencies --   1283.7261              1303.5815              1352.6831
 Red. masses --      1.8509                 2.3856                 3.2010
 Frc consts  --      1.7971                 2.3885                 3.4508
 IR Inten    --     36.3871                99.0276                12.5322

                     49                     50                     51
                      A                      A                      A
 Frequencies --   1379.3563              1400.2231              1418.5391
 Red. masses --      4.6221                 4.4567                 2.6808
 Frc consts  --      5.1814                 5.1482                 3.1783
 IR Inten    --    105.2095                47.8172                22.6539

                     52                     53                     54
                      A                      A                      A
 Frequencies --   1487.6502              1503.3268              1516.2278
 Red. masses --      2.7315                 2.7938                 3.2644
 Frc consts  --      3.5617                 3.7201                 4.4216
 IR Inten    --     29.3246               146.9563                27.7551

                     55                     56                     57
                      A                      A                      A
 Frequencies --   1567.5606              1602.5010              1640.1569
 Red. masses --      4.4870                 6.1753                 8.2434
 Frc consts  --      6.4962                 9.3435                13.0655
 IR Inten    --   1912.2053               133.0682               325.2857

                     58                     59                     60
                      A                      A                      A
 Frequencies --   1666.9668              1681.1709              1713.7604
 Red. masses --      7.1029                 7.0190                 7.0179
 Frc consts  --     11.6289                11.6882                12.1439
 IR Inten    --     29.0271                66.0161               346.9179

                     61                     62                     63
                      A                      A                      A
 Frequencies --   3186.3090              3195.3150              3214.3370
 Red. masses --      1.0886                 1.0879                 1.0863
 Frc consts  --      6.5117                 6.5444                 6.6128
 IR Inten    --      2.7104                15.2012                 1.1835

                     64                     65                     66
                      A                      A                      A
 Frequencies --   3219.6136              3223.9137              3232.5076
 Red. masses --      1.0952                 1.0906                 1.0961
 Frc consts  --      6.6888                 6.6787                 6.7480
 IR Inten    --     28.6048                 2.4112                 4.4638

                     67                     68                     69
                      A                      A                      A
 Frequencies --   3234.2558              3239.8170              3324.1610
 Red. masses --      1.0975                 1.1000                 1.0845
 Frc consts  --      6.7637                 6.8029                 7.0608
 IR Inten    --     17.5340                12.1081               215.0691

 - Thermochemistry -
 -------------------
 Temperature   298.150 Kelvin.  Pressure   1.00000 Atm.
 Atom     1 has atomic number  6 and mass  12.00000

 Molecular mass:   227.04049 amu.
 Principal axes and moments of inertia in atomic units:
                           1         2         3
     Eigenvalues --  1285.249536349.041437634.29094
           X           -0.70246   0.71172   0.00001
           Y            0.71172   0.70246   0.00000
           Z            0.00001  -0.00001   1.00000
 This molecule is an asymmetric top.
 Rotational symmetry number  1.
 Warning -- assumption of classical behavior for rotation
           may cause significant error
 Rotational temperatures (Kelvin)      0.06739     0.01364     0.01135
 Rotational constants (GHZ):           1.40420     0.28425     0.23640
 Zero-point vibrational energy     496859.6 (Joules/Mol)
                                  118.75230 (Kcal/Mol)
 Warning -- explicit consideration of  18 degrees of freedom as
           vibrations may cause significant error
 Vibrational temperatures:     79.89    96.21   149.50   194.56   284.21
          (Kelvin)            328.96   377.09   427.24   444.19   585.87
                              616.44   645.79   735.07   753.27   766.90
                              790.52   807.72   837.04   911.86   936.78
                             1039.86  1061.67  1080.62  1091.47  1110.84
                             1117.34  1187.07  1201.73  1241.39  1263.69
                             1273.16  1387.61  1387.91  1396.83  1458.25
                             1466.02  1487.71  1518.28  1569.50  1635.78
                             1671.33  1674.89  1695.81  1717.11  1788.85
                             1847.00  1875.56  1946.21  1984.59  2014.61
                             2040.96  2140.40  2162.95  2181.51  2255.37
                             2305.64  2359.82  2398.39  2418.83  2465.72
                             4584.39  4597.35  4624.71  4632.31  4638.49
                             4650.86  4653.37  4661.37  4782.73

 Zero-point correction=                           0.189244 (Hartree/Particle)
 Thermal correction to Energy=                    0.201130
 Thermal correction to Enthalpy=                  0.202074
 Thermal correction to Gibbs Free Energy=         0.150517
 Sum of electronic and zero-point Energies=          -1028.620949
 Sum of electronic and thermal Energies=             -1028.609063
 Sum of electronic and thermal Enthalpies=           -1028.608118
 Sum of electronic and thermal Free Energies=        -1028.659676

                     E (Thermal)             CV                S
                      KCal/Mol        Cal/Mol-Kelvin    Cal/Mol-Kelvin
 Total                  126.211             48.202            108.512
 Electronic               0.000              0.000              0.000
 Translational            0.889              2.981             42.162
 Rotational               0.889              2.981             32.499
 Vibrational            124.434             42.240             33.850
 Vibration     1          0.596              1.975              4.610
 Vibration     2          0.598              1.970              4.244
 Vibration     3          0.605              1.946              3.380
 Vibration     4          0.613              1.918              2.870
 Vibration     5          0.637              1.843              2.156
 Vibration     6          0.651              1.797              1.890
 Vibration     7          0.669              1.742              1.648
 Vibration     8          0.691              1.679              1.434
 Vibration     9          0.698              1.657              1.369
 Vibration    10          0.772              1.455              0.937
 Vibration    11          0.790              1.408              0.864
 Vibration    12          0.808              1.363              0.799
 Vibration    13          0.866              1.226              0.631
 Vibration    14          0.879              1.198              0.602
 Vibration    15          0.888              1.177              0.580
 Vibration    16          0.905              1.141              0.545
 Vibration    17          0.917              1.115              0.521
 Vibration    18          0.939              1.071              0.482

 Optimization completed.
    -- Stationary point found.
 Normal termination of Gaussian 16 at Wed Oct 28 00:55:09 2020.
