 Gaussian 16, Revision C.01,
 Gaussian 16:  ES64L-G16RevC.01  3-Jul-2019

 ----------------------------------------------------------------------
 #p opt=addgic freq wb97xd/cc-pvdz nosymm int=ultrafine scrf=(solvent=C
 arbonTetraChloride)
 ----------------------------------------------------------------------

 ------------------------------------------------
 NM 2D-scan of HBT TD-WB97XD pVDZ in CTC Relaxed.
 ------------------------------------------------
 Symbolic Z-matrix:
 Charge =  0 Multiplicity = 1

 SCF Done:  E(RwB97XD) =  -1028.80677865     A.U. after   15 cycles
 SCF Done:  E(RwB97XD) =  -1028.81078925     A.U. after   14 cycles
 SCF Done:  E(RwB97XD) =  -1028.80868841     A.U. after   14 cycles
 SCF Done:  E(RwB97XD) =  -1028.81318943     A.U. after   12 cycles
 SCF Done:  E(RwB97XD) =  -1028.81350148     A.U. after   12 cycles
 SCF Done:  E(RwB97XD) =  -1028.81357097     A.U. after   12 cycles
 SCF Done:  E(RwB97XD) =  -1028.81357616     A.U. after   10 cycles
 SCF Done:  E(RwB97XD) =  -1028.81358263     A.U. after   11 cycles
 SCF Done:  E(RwB97XD) =  -1028.81358957     A.U. after   10 cycles
 Optimization completed.
    -- Stationary point found.
 Normal termination of Gaussian 16 at Tue Oct 27 21:16:56 2020.

 --------------------------------------------------------------------
 #P Geom=AllCheck Guess=TCheck SCRF=Check GenChk RwB97XD/CC-pVDZ Freq
 --------------------------------------------------------------------

 Structure from the checkpoint file:  "config_8_3.chk"
 ------------------------------------------------
 NM 2D-scan of HBT TD-WB97XD pVDZ in CTC Relaxed.
 ------------------------------------------------
 Charge =  0 Multiplicity = 1

                          Input orientation:
 ---------------------------------------------------------------------
 Center     Atomic      Atomic             Coordinates (Angstroms)
 Number     Number       Type             X           Y           Z
 ---------------------------------------------------------------------
      1          6           0        1.728891   -3.255301   -0.000039
      2          6           0        1.007117   -2.060934   -0.000026
      3          6           0        1.673563   -0.831880   -0.000008
      4          6           0        3.067972   -0.754871   -0.000009
      5          6           0        3.782647   -1.944139   -0.000022
      6          6           0        3.119210   -3.180216   -0.000036
      7          1           0        1.222776   -4.220801   -0.000057
      8          1           0        3.563187    0.216238    0.000003
      9          1           0        4.873036   -1.917601   -0.000021
     10          1           0        3.700934   -4.102872   -0.000048
     11          7           0        0.804777    0.231131    0.000008
     12         16           0       -0.742228   -1.793067   -0.000050
     13          6           0       -1.417241    1.044006    0.000040
     14          6           0       -2.817887    0.894687    0.000021
     15          6           0       -0.825876    2.363570    0.000108
     16          6           0       -3.655710    1.994742    0.000033
     17          1           0       -3.245102   -0.111915   -0.000013
     18          6           0       -1.725035    3.468670    0.000058
     19          6           0       -3.091757    3.286255    0.000040
     20          1           0       -4.737912    1.864227    0.000013
     21          1           0       -1.284118    4.466522    0.000042
     22          1           0       -3.748522    4.159274    0.000026
     23          6           0       -0.480678   -0.058431    0.000011
     24          8           0        0.452351    2.550017    0.000004
     25          1           0        0.924331    1.417129    0.000004
 ---------------------------------------------------------------------

 SCF Done:  E(RwB97XD) =  -1028.81358957     A.U. after    1 cycles

 Alpha  occ. eigenvalues --  -89.09838 -19.23624 -14.48886 -10.40689 -10.36525
 Alpha  occ. eigenvalues --  -10.36096 -10.35663 -10.33038 -10.32394 -10.32166
 Alpha  occ. eigenvalues --  -10.32099 -10.31496 -10.31451 -10.30881 -10.29453
 Alpha  occ. eigenvalues --  -10.29050  -8.11815  -6.06689  -6.06315  -6.05846
 Alpha  occ. eigenvalues --   -1.13835  -1.10021  -0.97978  -0.95352  -0.92507
 Alpha  occ. eigenvalues --   -0.89007  -0.85922  -0.84018  -0.82538  -0.75793
 Alpha  occ. eigenvalues --   -0.71888  -0.70830  -0.68897  -0.68494  -0.63768
 Alpha  occ. eigenvalues --   -0.60818  -0.59467  -0.57354  -0.55857  -0.55250
 Alpha  occ. eigenvalues --   -0.54621  -0.53576  -0.52374  -0.51042  -0.50007
 Alpha  occ. eigenvalues --   -0.49454  -0.47547  -0.46447  -0.45313  -0.45063
 Alpha  occ. eigenvalues --   -0.44185  -0.43102  -0.41885  -0.40501  -0.36463
 Alpha  occ. eigenvalues --   -0.33999  -0.33054  -0.31533  -0.27557
 Alpha virt. eigenvalues --   -0.00942   0.04156   0.06595   0.07013   0.08322
 Alpha virt. eigenvalues --    0.10951   0.13262   0.14849   0.16084   0.17681
 Alpha virt. eigenvalues --    0.19183   0.20588   0.21593   0.22032   0.22842

 Mulliken charges:
               1
     1  C    0.010485
     2  C   -0.240932
     3  C    0.278968
     4  C   -0.009633
     5  C    0.010260
     6  C    0.001700
     7  H    0.023571
     8  H    0.028514
     9  H    0.024744
    10  H    0.024784
    11  N   -0.245637
    12  S    0.173955
    13  C   -0.120898
    14  C   -0.008914
    15  C    0.111851
    16  C   -0.024226
    17  H    0.003773
    18  C   -0.009398
    19  C    0.024283
    20  H    0.005161
    21  H    0.006620
    22  H    0.014753
    23  C    0.074604
    24  O   -0.351228
    25  H    0.192838
 Sum of Mulliken charges =  -0.00000

 Dipole moment (field-independent basis, Debye):
    X=              1.0383    Y=             -4.1477    Z=             -0.0000  Tot=              4.2757
 Quadrupole moment (field-independent basis, Debye-Ang):
   XX=            -82.7348   YY=            -92.2200   ZZ=           -104.0426
   XY=             -7.0703   XZ=              0.0001   YZ=              0.0003

  Exact polarizability:     281.094     -75.630     269.709      -0.001       0.003      62.985
 Approx polarizability:     265.701     -27.761     250.346       0.000       0.002      82.189

 ******    1 imaginary frequencies (negative Signs) ******

                      1                      2                      3
                      A                      A                      A
 Frequencies --   -836.9474                44.9688                64.1438
 Red. masses --      1.1869                 5.0064                 6.2051
 Frc consts  --      0.4898                 0.0060                 0.0150
 IR Inten    --   1222.6353                 0.0093                 1.8634

                      4                      5                      6
                      A                      A                      A
 Frequencies --    135.2982               150.4146               199.2665
 Red. masses --      5.6408                 5.1023                 5.9865
 Frc consts  --      0.0608                 0.0680                 0.1401
 IR Inten    --      0.5577                 0.6380                 0.1314

                      7                      8                      9
                      A                      A                      A
 Frequencies --    242.6959               275.7084               318.9894
 Red. masses --      6.0310                 7.1966                 5.2657
 Frc consts  --      0.2093                 0.3223                 0.3157
 IR Inten    --      0.4113                 2.9206                 0.6453

                     10                     11                     12
                      A                      A                      A
 Frequencies --    383.5848               416.8197               433.6098
 Red. masses --      6.1081                11.1612                 3.1440
 Frc consts  --      0.5295                 1.1425                 0.3483
 IR Inten    --      0.9233                 3.1216                 1.5943

                     13                     14                     15
                      A                      A                      A
 Frequencies --    456.4740               515.5317               538.9882
 Red. masses --      3.6324                 8.8279                 3.2484
 Frc consts  --      0.4459                 1.3824                 0.5560
 IR Inten    --      9.5029                 4.5617                 4.2313

                     16                     17                     18
                      A                      A                      A
 Frequencies --    554.7971               569.2628               582.5532
 Red. masses --      8.6933                 3.6299                 7.6665
 Frc consts  --      1.5765                 0.6931                 1.5329
 IR Inten    --      7.1655                 0.1325                 9.0270

                     19                     20                     21
                      A                      A                      A
 Frequencies --    620.4717               648.4739               693.0238
 Red. masses --      7.3267                 6.5485                 6.4265
 Frc consts  --      1.6619                 1.6225                 1.8185
 IR Inten    --     25.6298                 0.0075                10.0351

                     22                     23                     24
                      A                      A                      A
 Frequencies --    714.9336               752.6784               766.7527
 Red. masses --      6.5545                 2.3223                 1.6014
 Frc consts  --      1.9739                 0.7751                 0.5547
 IR Inten    --      8.6970                16.6684                37.2252

                     25                     26                     27
                      A                      A                      A
 Frequencies --    775.9048               780.7491               780.8067
 Red. masses --      2.2639                 7.8683                 1.6978
 Frc consts  --      0.8030                 2.8259                 0.6099
 IR Inten    --     31.7854                23.0421                38.7667

                     28                     29                     30
                      A                      A                      A
 Frequencies --    850.5222               879.7961               883.9121
 Red. masses --      6.2249                 1.6840                 1.3993
 Frc consts  --      2.6531                 0.7680                 0.6441
 IR Inten    --     17.3951                 7.9537                 0.2255

                     31                     32                     33
                      A                      A                      A
 Frequencies --    934.9482               967.6604               973.9957
 Red. masses --      7.0193                 1.3429                 1.3597
 Frc consts  --      3.6151                 0.7408                 0.7600
 IR Inten    --     13.9832                 0.6912                 1.0749

                     34                     35                     36
                      A                      A                      A
 Frequencies --   1012.2731              1014.2458              1015.9974
 Red. masses --      1.3018                 7.2354                 1.3054
 Frc consts  --      0.7860                 4.3853                 0.7939
 IR Inten    --      0.2472                10.6651                 0.0046

                     37                     38                     39
                      A                      A                      A
 Frequencies --   1053.9108              1058.4134              1098.7492
 Red. masses --      2.0638                 1.9689                 3.9157
 Frc consts  --      1.3506                 1.2995                 2.7852
 IR Inten    --      7.4533                 9.0744                 4.5729

                     40                     41                     42
                      A                      A                      A
 Frequencies --   1151.8936              1155.9378              1169.5973
 Red. masses --      1.4405                 1.2921                 1.0613
 Frc consts  --      1.1261                 1.0172                 0.8554
 IR Inten    --     11.9564                 1.3443                67.2212

                     43                     44                     45
                      A                      A                      A
 Frequencies --   1175.8181              1184.9958              1258.8221
 Red. masses --      1.1028                 1.1697                 1.8875
 Frc consts  --      0.8983                 0.9678                 1.7622
 IR Inten    --     94.6346                 0.1133                73.2851

                     46                     47                     48
                      A                      A                      A
 Frequencies --   1289.5987              1324.4436              1360.8684
 Red. masses --      1.5263                 2.9559                 5.1882
 Frc consts  --      1.4956                 3.0550                 5.6611
 IR Inten    --     15.0685               359.3946                17.7207

                     49                     50                     51
                      A                      A                      A
 Frequencies --   1381.0194              1385.1580              1405.7777
 Red. masses --      7.6017                 3.4771                 2.4050
 Frc consts  --      8.5420                 3.9307                 2.8003
 IR Inten    --     19.4287                13.0371                10.0731

                     52                     53                     54
                      A                      A                      A
 Frequencies --   1495.6789              1504.9911              1527.4096
 Red. masses --      2.7441                 2.8736                 3.6618
 Frc consts  --      3.6168                 3.8348                 5.0333
 IR Inten    --     19.4830                31.2096                68.4595

                     55                     56                     57
                      A                      A                      A
 Frequencies --   1565.5118              1588.1330              1603.9914
 Red. masses --      7.3691                 4.7652                 5.8693
 Frc consts  --     10.6409                 7.0811                 8.8970
 IR Inten    --   1588.3936               255.7989                14.8928

                     58                     59                     60
                      A                      A                      A
 Frequencies --   1662.1754              1683.6642              1711.9247
 Red. masses --      7.0565                 6.7575                 6.5289
 Frc consts  --     11.4867                11.2863                11.2735
 IR Inten    --      2.3516                 3.2923               164.7669

                     61                     62                     63
                      A                      A                      A
 Frequencies --   1958.8936              3184.9076              3197.8399
 Red. masses --      1.1091                 1.0896                 1.0884
 Frc consts  --      2.5074                 6.5120                 6.5575
 IR Inten    --    174.4749                 4.6539                10.2239

                     64                     65                     66
                      A                      A                      A
 Frequencies --   3215.8410              3223.5465              3226.3300
 Red. masses --      1.0864                 1.0938                 1.0908
 Frc consts  --      6.6194                 6.6966                 6.6896
 IR Inten    --      1.6691                15.5929                 2.9230

                     67                     68                     69
                      A                      A                      A
 Frequencies --   3232.0011              3236.2322              3242.2666
 Red. masses --      1.0979                 1.0961                 1.0999
 Frc consts  --      6.7571                 6.7635                 6.8122
 IR Inten    --     20.3845                 7.5464                11.5187

 - Thermochemistry -
 -------------------
 Temperature   298.150 Kelvin.  Pressure   1.00000 Atm.
 Atom     1 has atomic number  6 and mass  12.00000

 Molecular mass:   227.04049 amu.
 Principal axes and moments of inertia in atomic units:
                           1         2         3
     Eigenvalues --  1312.845136246.693027559.53814
           X           -0.70591   0.70830  -0.00000
           Y            0.70830   0.70591  -0.00002
           Z            0.00001   0.00001   1.00000
 This molecule is an asymmetric top.
 Rotational symmetry number  1.
 Warning -- assumption of classical behavior for rotation
           may cause significant error
 Rotational temperatures (Kelvin)      0.06597     0.01387     0.01146
 Rotational constants (GHZ):           1.37468     0.28891     0.23874
    1 imaginary frequencies ignored.
 Zero-point vibrational energy     487278.5 (Joules/Mol)
                                  116.46235 (Kcal/Mol)
 Warning -- explicit consideration of  18 degrees of freedom as
           vibrations may cause significant error
 Vibrational temperatures:     64.70    92.29   194.66   216.41   286.70
          (Kelvin)            349.19   396.68   458.95   551.89   599.71
                              623.87   656.76   741.74   775.48   798.23
                              819.04   838.16   892.72   933.01   997.11
                             1028.63  1082.94  1103.19  1116.35  1123.32
                             1123.41  1223.71  1265.83  1271.75  1345.18
                             1392.25  1401.36  1456.44  1459.27  1461.79
                             1516.34  1522.82  1580.86  1657.32  1663.14
                             1682.79  1691.74  1704.94  1811.16  1855.44
                             1905.58  1957.99  1986.98  1992.93  2022.60
                             2151.95  2165.35  2197.60  2252.42  2284.97
                             2307.79  2391.50  2422.42  2463.08  2818.41
                             4582.37  4600.98  4626.88  4637.96  4641.97
                             4650.13  4656.22  4664.90

 Zero-point correction=                           0.185595 (Hartree/Particle)
 Thermal correction to Energy=                    0.197032
 Thermal correction to Enthalpy=                  0.197976
 Thermal correction to Gibbs Free Energy=         0.147180
 Sum of electronic and zero-point Energies=          -1028.627995
 Sum of electronic and thermal Energies=             -1028.616557
 Sum of electronic and thermal Enthalpies=           -1028.615613
 Sum of electronic and thermal Free Energies=        -1028.666410

                     E (Thermal)             CV                S
                      KCal/Mol        Cal/Mol-Kelvin    Cal/Mol-Kelvin
 Total                  123.640             46.582            106.911
 Electronic               0.000              0.000              0.000
 Translational            0.889              2.981             42.162
 Rotational               0.889              2.981             32.494
 Vibrational            121.862             40.620             32.254
 Vibration     1          0.595              1.979              5.027
 Vibration     2          0.597              1.971              4.325
 Vibration     3          0.613              1.918              2.869
 Vibration     4          0.618              1.902              2.667
 Vibration     5          0.637              1.841              2.140
 Vibration     6          0.659              1.775              1.783
 Vibration     7          0.677              1.718              1.560
 Vibration     8          0.705              1.637              1.315
 Vibration     9          0.753              1.505              1.025
 Vibration    10          0.780              1.434              0.903
 Vibration    11          0.794              1.397              0.847
 Vibration    12          0.815              1.347              0.776
 Vibration    13          0.871              1.216              0.620
 Vibration    14          0.894              1.164              0.567
 Vibration    15          0.910              1.129              0.534
 Vibration    16          0.925              1.098              0.506
 Vibration    17          0.939              1.069              0.481
 Vibration    18          0.981              0.989              0.416

 Optimization completed.
    -- Stationary point found.
 Normal termination of Gaussian 16 at Tue Oct 27 21:23:05 2020.
