 Gaussian 16, Revision C.01,
 Gaussian 16:  ES64L-G16RevC.01  3-Jul-2019

 ----------------------------------------------------------------------
 #p opt=addgic freq wb97xd/cc-pvdz nosymm int=ultrafine scrf=(solvent=C
 arbonTetraChloride)
 ----------------------------------------------------------------------

 ------------------------------------------------
 NM 2D-scan of HBT TD-WB97XD pVDZ in CTC Relaxed.
 ------------------------------------------------
 Symbolic Z-matrix:
 Charge =  0 Multiplicity = 1

 SCF Done:  E(RwB97XD) =  -1028.80937843     A.U. after   15 cycles
 SCF Done:  E(RwB97XD) =  -1028.81768398     A.U. after   13 cycles
 SCF Done:  E(RwB97XD) =  -1028.81837126     A.U. after   13 cycles
 SCF Done:  E(RwB97XD) =  -1028.81871565     A.U. after   12 cycles
 SCF Done:  E(RwB97XD) =  -1028.81919429     A.U. after   12 cycles
 SCF Done:  E(RwB97XD) =  -1028.81920656     A.U. after   10 cycles
 SCF Done:  E(RwB97XD) =  -1028.81917364     A.U. after   11 cycles
 SCF Done:  E(RwB97XD) =  -1028.81920791     A.U. after   11 cycles
 SCF Done:  E(RwB97XD) =  -1028.81920932     A.U. after    9 cycles
 Optimization completed.
    -- Stationary point found.
 Normal termination of Gaussian 16 at Wed Oct 28 01:54:28 2020.

 --------------------------------------------------------------------
 #P Geom=AllCheck Guess=TCheck SCRF=Check GenChk RwB97XD/CC-pVDZ Freq
 --------------------------------------------------------------------

 Structure from the checkpoint file:  "config_5_17.chk"
 ------------------------------------------------
 NM 2D-scan of HBT TD-WB97XD pVDZ in CTC Relaxed.
 ------------------------------------------------
 Charge =  0 Multiplicity = 1

                          Input orientation:
 ---------------------------------------------------------------------
 Center     Atomic      Atomic             Coordinates (Angstroms)
 Number     Number       Type             X           Y           Z
 ---------------------------------------------------------------------
      1          6           0        1.533258   -3.243661   -0.000134
      2          6           0        1.009722   -1.956313   -0.000089
      3          6           0        1.794662   -0.793777    0.000021
      4          6           0        3.190722   -0.945899    0.000076
      5          6           0        3.724480   -2.236230    0.000030
      6          6           0        2.911387   -3.379122   -0.000070
      7          1           0        0.872565   -4.110952   -0.000206
      8          1           0        3.844866   -0.073293    0.000158
      9          1           0        4.808975   -2.356209    0.000079
     10          1           0        3.362367   -4.372132   -0.000095
     11          7           0        1.007677    0.365368    0.000077
     12         16           0       -0.683214   -1.565880   -0.000118
     13          6           0       -1.318363    1.111485    0.000054
     14          6           0       -2.667821    0.748811    0.000128
     15          6           0       -0.899959    2.460804   -0.000015
     16          6           0       -3.658063    1.716827    0.000116
     17          1           0       -2.945445   -0.307668    0.000207
     18          6           0       -1.927922    3.438981   -0.000044
     19          6           0       -3.270120    3.062374    0.000017
     20          1           0       -4.711012    1.435277    0.000178
     21          1           0       -1.649830    4.493966   -0.000121
     22          1           0       -4.036395    3.840658   -0.000009
     23          6           0       -0.280765    0.103519    0.000024
     24          8           0        0.389030    2.723886   -0.000081
     25          1           0        0.914020    1.789542   -0.000071
 ---------------------------------------------------------------------

 SCF Done:  E(RwB97XD) =  -1028.81920932     A.U. after    1 cycles

 Alpha  occ. eigenvalues --  -89.08676 -19.26427 -14.47777 -10.39480 -10.37059
 Alpha  occ. eigenvalues --  -10.35731 -10.34745 -10.32344 -10.32221 -10.31800
 Alpha  occ. eigenvalues --  -10.31727 -10.31704 -10.31433 -10.31394 -10.30118
 Alpha  occ. eigenvalues --  -10.30048  -8.10876  -6.05713  -6.05350  -6.04929
 Alpha  occ. eigenvalues --   -1.15335  -1.09247  -0.97528  -0.96258  -0.92347
 Alpha  occ. eigenvalues --   -0.88711  -0.85810  -0.84279  -0.83016  -0.75582
 Alpha  occ. eigenvalues --   -0.71625  -0.70841  -0.69332  -0.67945  -0.63469
 Alpha  occ. eigenvalues --   -0.60851  -0.59181  -0.58229  -0.56305  -0.54591
 Alpha  occ. eigenvalues --   -0.54575  -0.53526  -0.52859  -0.50927  -0.50106
 Alpha  occ. eigenvalues --   -0.49362  -0.46928  -0.46229  -0.45416  -0.45149
 Alpha  occ. eigenvalues --   -0.44202  -0.42818  -0.42694  -0.40070  -0.36308
 Alpha  occ. eigenvalues --   -0.36296  -0.32354  -0.31636  -0.28816
 Alpha virt. eigenvalues --   -0.00580   0.04647   0.06626   0.07457   0.07982
 Alpha virt. eigenvalues --    0.11218   0.14788   0.15173   0.17338   0.17990
 Alpha virt. eigenvalues --    0.19055   0.21029   0.21695   0.22447   0.22669

 Mulliken charges:
               1
     1  C    0.020365
     2  C   -0.217236
     3  C    0.237469
     4  C   -0.019482
     5  C    0.002738
     6  C    0.005015
     7  H    0.019185
     8  H    0.023573
     9  H    0.022158
    10  H    0.022429
    11  N   -0.348939
    12  S    0.160673
    13  C   -0.055842
    14  C   -0.032426
    15  C    0.093163
    16  C   -0.010348
    17  H    0.019853
    18  C   -0.012299
    19  C    0.021687
    20  H    0.008067
    21  H    0.014032
    22  H    0.018272
    23  C    0.084736
    24  O   -0.265029
    25  H    0.188185
 Sum of Mulliken charges =  -0.00000

 Dipole moment (field-independent basis, Debye):
    X=              0.0895    Y=             -3.3611    Z=             -0.0000  Tot=              3.3623
 Quadrupole moment (field-independent basis, Debye-Ang):
   XX=            -82.6263   YY=            -91.1003   ZZ=           -103.9323
   XY=             -7.3183   XZ=             -0.0000   YZ=              0.0003

  Exact polarizability:     274.409     -69.541     255.475       0.000       0.002      62.802
 Approx polarizability:     261.929     -24.078     242.443       0.001       0.002      82.134

 ******    1 imaginary frequencies (negative Signs) ******

                      1                      2                      3
                      A                      A                      A
 Frequencies --    -36.4667                65.9548               126.6456
 Red. masses --      5.3574                 6.1184                 5.5277
 Frc consts  --      0.0042                 0.0157                 0.0522
 IR Inten    --      0.0359                 1.2134                 6.2293

                      4                      5                      6
                      A                      A                      A
 Frequencies --    151.3537               197.3223               243.0525
 Red. masses --      5.0514                 6.1902                 5.5444
 Frc consts  --      0.0682                 0.1420                 0.1930
 IR Inten    --      0.3610                 0.5585                 0.0831

                      7                      8                      9
                      A                      A                      A
 Frequencies --    278.0027               329.5796               330.3166
 Red. masses --      7.2016                 5.1326                 5.7482
 Frc consts  --      0.3279                 0.3285                 0.3695
 IR Inten    --      1.0556                 0.0732                30.0074

                     10                     11                     12
                      A                      A                      A
 Frequencies --    428.7501               435.3115               461.3760
 Red. masses --     10.7622                 3.0889                 3.5430
 Frc consts  --      1.1656                 0.3449                 0.4444
 IR Inten    --      0.1334                 1.4351                 8.4992

                     13                     14                     15
                      A                      A                      A
 Frequencies --    508.2534               522.9346               536.9764
 Red. masses --      5.8490                 7.5560                 3.4367
 Frc consts  --      0.8902                 1.2174                 0.5839
 IR Inten    --     30.7851                16.0807                 3.3826

                     16                     17                     18
                      A                      A                      A
 Frequencies --    566.3574               576.4452               589.0893
 Red. masses --      7.0524                 3.7257                 7.6046
 Frc consts  --      1.3328                 0.7294                 1.5548
 IR Inten    --      8.7334                 0.0641                 1.5967

                     19                     20                     21
                      A                      A                      A
 Frequencies --    648.1647               686.9443               736.8890
 Red. masses --      6.3770                 6.4879                 6.4699
 Frc consts  --      1.5785                 1.8038                 2.0699
 IR Inten    --      0.0090                 6.3306                20.4385

                     22                     23                     24
                      A                      A                      A
 Frequencies --    756.0456               768.8340               773.1614
 Red. masses --      2.0359                 2.6987                 1.4903
 Frc consts  --      0.6857                 0.9399                 0.5249
 IR Inten    --     27.3485                 6.3291                51.1086

                     25                     26                     27
                      A                      A                      A
 Frequencies --    776.2735               784.0746               857.6007
 Red. masses --      9.3370                 1.9072                 5.9610
 Frc consts  --      3.3150                 0.6908                 2.5831
 IR Inten    --     25.1430                44.8147                12.9583

                     28                     29                     30
                      A                      A                      A
 Frequencies --    879.8659               886.4997               902.3973
 Red. masses --      1.5792                 1.3995                 6.8136
 Frc consts  --      0.7203                 0.6480                 3.2691
 IR Inten    --      5.7781                 0.4109                13.2500

                     31                     32                     33
                      A                      A                      A
 Frequencies --    963.9071               974.9319              1010.5245
 Red. masses --      1.3658                 1.3653                 1.3043
 Frc consts  --      0.7477                 0.7646                 0.7847
 IR Inten    --      1.1527                 1.4658                 0.2030

                     34                     35                     36
                      A                      A                      A
 Frequencies --   1015.4084              1018.4657              1052.6979
 Red. masses --      1.3057                 7.5398                 2.0143
 Frc consts  --      0.7932                 4.6079                 1.3152
 IR Inten    --      0.0001                45.2023                10.2583

                     37                     38                     39
                      A                      A                      A
 Frequencies --   1064.1301              1087.4971              1108.8122
 Red. masses --      1.8517                 1.0588                 3.1911
 Frc consts  --      1.2354                 0.7378                 2.3116
 IR Inten    --      7.9317                72.5638                 4.5912

                     40                     41                     42
                      A                      A                      A
 Frequencies --   1153.7337              1161.8760              1171.1239
 Red. masses --      1.4314                 1.3966                 1.1408
 Frc consts  --      1.1226                 1.1108                 0.9219
 IR Inten    --     17.8114                 1.6579                28.8950

                     43                     44                     45
                      A                      A                      A
 Frequencies --   1183.6830              1256.8357              1275.4559
 Red. masses --      1.2727                 1.9981                 3.0263
 Frc consts  --      1.0506                 1.8596                 2.9006
 IR Inten    --      1.8756                39.5087               161.3184

                     46                     47                     48
                      A                      A                      A
 Frequencies --   1291.6291              1309.9517              1360.3024
 Red. masses --      1.5968                 3.2456                 3.8107
 Frc consts  --      1.5696                 3.2814                 4.1545
 IR Inten    --     69.5010               166.2915                15.3717

                     49                     50                     51
                      A                      A                      A
 Frequencies --   1375.6405              1382.8274              1481.3196
 Red. masses --      3.5781                 7.3730                 3.1417
 Frc consts  --      3.9895                 8.3067                 4.0618
 IR Inten    --     13.5363                 6.3415                 6.2954

                     52                     53                     54
                      A                      A                      A
 Frequencies --   1485.8105              1494.0974              1513.4640
 Red. masses --      2.5224                 2.7105                 3.5458
 Frc consts  --      3.2809                 3.5650                 4.7853
 IR Inten    --     63.1060                23.0153                46.5776

                     55                     56                     57
                      A                      A                      A
 Frequencies --   1574.4189              1623.2037              1653.5628
 Red. masses --      6.1448                 4.0996                 6.8956
 Frc consts  --      8.9742                 6.3641                11.1087
 IR Inten    --    264.8009                 5.7155                47.2414

                     58                     59                     60
                      A                      A                      A
 Frequencies --   1672.7957              1696.3326              1770.5640
 Red. masses --      6.4438                 7.1560                 1.4364
 Frc consts  --     10.6238                12.1323                 2.6531
 IR Inten    --    177.8603               244.3814               590.8458

                     61                     62                     63
                      A                      A                      A
 Frequencies --   1973.7406              3201.0835              3207.4866
 Red. masses --      1.1724                 1.0880                 1.0893
 Frc consts  --      2.6909                 6.5689                 6.6031
 IR Inten    --   1435.1129                 2.2565                 7.5650

                     64                     65                     66
                      A                      A                      A
 Frequencies --   3210.1520              3220.1895              3226.1419
 Red. masses --      1.0862                 1.0905                 1.0938
 Frc consts  --      6.5950                 6.6623                 6.7075
 IR Inten    --      1.7183                 2.3012                15.6333

                     67                     68                     69
                      A                      A                      A
 Frequencies --   3229.5042              3236.8175              3236.9823
 Red. masses --      1.0958                 1.0995                 1.0993
 Frc consts  --      6.7336                 6.7873                 6.7865
 IR Inten    --      8.1901                29.9239                 1.6031

 - Thermochemistry -
 -------------------
 Temperature   298.150 Kelvin.  Pressure   1.00000 Atm.
 Atom     1 has atomic number  6 and mass  12.00000

 Molecular mass:   227.04049 amu.
 Principal axes and moments of inertia in atomic units:
                           1         2         3
     Eigenvalues --  1262.662206258.206737520.86892
           X           -0.70705   0.70716  -0.00000
           Y            0.70716   0.70705  -0.00001
           Z            0.00001   0.00001   1.00000
 This molecule is an asymmetric top.
 Rotational symmetry number  1.
 Warning -- assumption of classical behavior for rotation
           may cause significant error
 Rotational temperatures (Kelvin)      0.06860     0.01384     0.01152
 Rotational constants (GHZ):           1.42931     0.28838     0.23996
    1 imaginary frequencies ignored.
 Zero-point vibrational energy     494844.7 (Joules/Mol)
                                  118.27072 (Kcal/Mol)
 Warning -- explicit consideration of  17 degrees of freedom as
           vibrations may cause significant error
 Vibrational temperatures:     94.89   182.21   217.76   283.90   349.70
          (Kelvin)            399.98   474.19   475.25   616.88   626.32
                              663.82   731.26   752.39   772.59   814.86
                              829.38   847.57   932.56   988.36  1060.22
                             1087.78  1106.18  1112.41  1116.88  1128.11
                             1233.90  1265.93  1275.48  1298.35  1386.85
                             1402.71  1453.92  1460.95  1465.34  1514.60
                             1531.05  1564.67  1595.33  1659.97  1671.68
                             1684.99  1703.06  1808.31  1835.10  1858.37
                             1884.73  1957.17  1979.24  1989.58  2131.29
                             2137.75  2149.67  2177.54  2265.24  2335.43
                             2379.11  2406.78  2440.64  2547.45  2839.77
                             4605.65  4614.86  4618.69  4633.13  4641.70
                             4646.54  4657.06  4657.30

 Zero-point correction=                           0.188476 (Hartree/Particle)
 Thermal correction to Energy=                    0.199171
 Thermal correction to Enthalpy=                  0.200115
 Thermal correction to Gibbs Free Energy=         0.151549
 Sum of electronic and zero-point Energies=          -1028.630733
 Sum of electronic and thermal Energies=             -1028.620038
 Sum of electronic and thermal Enthalpies=           -1028.619094
 Sum of electronic and thermal Free Energies=        -1028.667661

                     E (Thermal)             CV                S
                      KCal/Mol        Cal/Mol-Kelvin    Cal/Mol-Kelvin
 Total                  124.982             45.009            102.217
 Electronic               0.000              0.000              0.000
 Translational            0.889              2.981             42.162
 Rotational               0.889              2.981             32.452
 Vibrational            123.204             39.048             27.603
 Vibration     1          0.597              1.971              4.271
 Vibration     2          0.611              1.926              2.996
 Vibration     3          0.619              1.901              2.655
 Vibration     4          0.637              1.844              2.158
 Vibration     5          0.659              1.774              1.780
 Vibration     6          0.679              1.714              1.546
 Vibration     7          0.712              1.616              1.262
 Vibration     8          0.713              1.615              1.259
 Vibration     9          0.790              1.408              0.863
 Vibration    10          0.796              1.393              0.841
 Vibration    11          0.819              1.336              0.762
 Vibration    12          0.863              1.232              0.638
 Vibration    13          0.878              1.199              0.603
 Vibration    14          0.892              1.168              0.572
 Vibration    15          0.922              1.104              0.511
 Vibration    16          0.933              1.082              0.492
 Vibration    17          0.946              1.055              0.469

 Optimization completed.
    -- Stationary point found.
 Normal termination of Gaussian 16 at Wed Oct 28 02:01:15 2020.
