 Gaussian 16, Revision C.01,
 Gaussian 16:  ES64L-G16RevC.01  3-Jul-2019

 ----------------------------------------------------------------------
 #p opt=addgic freq wb97xd/cc-pvdz nosymm int=ultrafine scrf=(solvent=C
 arbonTetraChloride)
 ----------------------------------------------------------------------

 ------------------------------------------------
 NM 2D-scan of HBT TD-WB97XD pVDZ in CTC Relaxed.
 ------------------------------------------------
 Symbolic Z-matrix:
 Charge =  0 Multiplicity = 1

 SCF Done:  E(RwB97XD) =  -1028.30351542     A.U. after   16 cycles
 SCF Done:  E(RwB97XD) =  -1028.62582570     A.U. after   14 cycles
 SCF Done:  E(RwB97XD) =  -1028.76615169     A.U. after   14 cycles
 SCF Done:  E(RwB97XD) =  -1028.78475976     A.U. after   14 cycles
 SCF Done:  E(RwB97XD) =  -1028.78835440     A.U. after   13 cycles
 SCF Done:  E(RwB97XD) =  -1028.78874440     A.U. after   11 cycles
 SCF Done:  E(RwB97XD) =  -1028.78879226     A.U. after   10 cycles
 SCF Done:  E(RwB97XD) =  -1028.78879441     A.U. after    9 cycles
 Optimization completed.
    -- Stationary point found.
 Normal termination of Gaussian 16 at Wed Oct 28 02:14:19 2020.

 --------------------------------------------------------------------
 #P Geom=AllCheck Guess=TCheck SCRF=Check GenChk RwB97XD/CC-pVDZ Freq
 --------------------------------------------------------------------

 Structure from the checkpoint file:  "config_12_19.chk"
 ------------------------------------------------
 NM 2D-scan of HBT TD-WB97XD pVDZ in CTC Relaxed.
 ------------------------------------------------
 Charge =  0 Multiplicity = 1

                          Input orientation:
 ---------------------------------------------------------------------
 Center     Atomic      Atomic             Coordinates (Angstroms)
 Number     Number       Type             X           Y           Z
 ---------------------------------------------------------------------
      1          6           0        1.529192   -3.283609   -0.000095
      2          6           0        1.002721   -2.000870   -0.000066
      3          6           0        1.815554   -0.886469   -0.000007
      4          6           0        3.205953   -1.006287    0.000027
      5          6           0        3.739129   -2.297588    0.000001
      6          6           0        2.913052   -3.424599   -0.000060
      7          1           0        0.873657   -4.153921   -0.000138
      8          1           0        3.854305   -0.128458    0.000075
      9          1           0        4.822864   -2.420899    0.000029
     10          1           0        3.354760   -4.421264   -0.000077
     11          7           0        1.034394    0.269964    0.000022
     12         16           0       -0.690663   -1.527959   -0.000080
     13          6           0       -1.320185    1.152930    0.000045
     14          6           0       -2.685125    0.765087    0.000099
     15          6           0       -0.910460    2.550415   -0.000016
     16          6           0       -3.695839    1.694364    0.000088
     17          1           0       -2.944729   -0.297239    0.000159
     18          6           0       -2.049275    3.492698   -0.000034
     19          6           0       -3.356874    3.075810    0.000010
     20          1           0       -4.738905    1.376395    0.000134
     21          1           0       -1.809402    4.558212   -0.000087
     22          1           0       -4.161906    3.815810   -0.000012
     23          6           0       -0.317030    0.159911    0.000015
     24          8           0        0.287244    2.842736   -0.000027
     25          1           0        1.656863    1.035785    0.000087
 ---------------------------------------------------------------------

 SCF Done:  E(RwB97XD) =  -1028.78879441     A.U. after    1 cycles

 Alpha  occ. eigenvalues --  -89.09585 -19.20932 -14.52666 -10.41858 -10.37065
 Alpha  occ. eigenvalues --  -10.35853 -10.35573 -10.33319 -10.33209 -10.32728
 Alpha  occ. eigenvalues --  -10.32324 -10.31012 -10.30681 -10.30169 -10.29072
 Alpha  occ. eigenvalues --  -10.28653  -8.11714  -6.06599  -6.06196  -6.05716
 Alpha  occ. eigenvalues --   -1.12942  -1.10213  -0.98680  -0.95838  -0.93328
 Alpha  occ. eigenvalues --   -0.89121  -0.86760  -0.83852  -0.81540  -0.75570
 Alpha  occ. eigenvalues --   -0.74524  -0.71945  -0.69560  -0.67789  -0.64248
 Alpha  occ. eigenvalues --   -0.60893  -0.59745  -0.56685  -0.56043  -0.55984
 Alpha  occ. eigenvalues --   -0.55007  -0.53771  -0.52954  -0.49958  -0.49313
 Alpha  occ. eigenvalues --   -0.48997  -0.48223  -0.46739  -0.45710  -0.44759
 Alpha  occ. eigenvalues --   -0.44475  -0.42754  -0.41870  -0.40343  -0.36969
 Alpha  occ. eigenvalues --   -0.33639  -0.31665  -0.30988  -0.25961
 Alpha virt. eigenvalues --   -0.01378   0.03726   0.05773   0.07241   0.09694
 Alpha virt. eigenvalues --    0.11386   0.14077   0.14566   0.15793   0.16528
 Alpha virt. eigenvalues --    0.17791   0.19641   0.20955   0.21579   0.22727

 Mulliken charges:
               1
     1  C    0.015813
     2  C   -0.226961
     3  C    0.185849
     4  C   -0.015426
     5  C    0.008777
     6  C    0.006075
     7  H    0.022755
     8  H    0.030279
     9  H    0.027899
    10  H    0.026078
    11  N   -0.108348
    12  S    0.175563
    13  C   -0.078421
    14  C   -0.022840
    15  C    0.089617
    16  C   -0.034658
    17  H    0.014164
    18  C   -0.053291
    19  C    0.029940
    20  H    0.001670
    21  H    0.001658
    22  H    0.014175
    23  C    0.113088
    24  O   -0.342575
    25  H    0.119121
 Sum of Mulliken charges =   0.00000

 Dipole moment (field-independent basis, Debye):
    X=              2.4295    Y=             -5.5425    Z=              0.0001  Tot=              6.0516
 Quadrupole moment (field-independent basis, Debye-Ang):
   XX=            -80.3894   YY=            -96.8268   ZZ=           -103.9559
   XY=             -6.2281   XZ=              0.0003   YZ=              0.0004

  Exact polarizability:     292.096     -93.860     290.099      -0.001       0.002      62.865
 Approx polarizability:     268.113     -35.942     254.582      -0.000       0.001      81.858

 ******    1 imaginary frequencies (negative Signs) ******

                      1                      2                      3
                      A                      A                      A
 Frequencies --   -135.3818                49.9005                68.1855
 Red. masses --      1.9338                 5.5762                 6.0381
 Frc consts  --      0.0209                 0.0082                 0.0165
 IR Inten    --     35.1205                 0.0174                 1.2730

                      4                      5                      6
                      A                      A                      A
 Frequencies --    102.0170               177.8099               190.6887
 Red. masses --      5.9005                 3.0359                 5.5956
 Frc consts  --      0.0362                 0.0566                 0.1199
 IR Inten    --      1.2842                22.3810                 8.3210

                      7                      8                      9
                      A                      A                      A
 Frequencies --    250.1977               258.9303               287.5035
 Red. masses --      2.6091                 8.4513                 6.8167
 Frc consts  --      0.0962                 0.3338                 0.3320
 IR Inten    --     18.3367                 5.3097                 1.4726

                     10                     11                     12
                      A                      A                      A
 Frequencies --    324.0698               392.6083               429.8092
 Red. masses --      4.3372                 7.5051                 2.9942
 Frc consts  --      0.2684                 0.6816                 0.3259
 IR Inten    --      7.1264                 2.7258                 4.1294

                     13                     14                     15
                      A                      A                      A
 Frequencies --    441.0416               505.8466               516.5077
 Red. masses --      3.4379                 7.9166                 2.5948
 Frc consts  --      0.3940                 1.1935                 0.4079
 IR Inten    --      7.0513                10.0212                 3.7405

                     16                     17                     18
                      A                      A                      A
 Frequencies --    523.5483               544.9155               563.9990
 Red. masses --      6.3004                 8.0447                 3.8166
 Frc consts  --      1.0175                 1.4074                 0.7153
 IR Inten    --      2.2893                18.4792                 0.0004

                     19                     20                     21
                      A                      A                      A
 Frequencies --    577.6126               626.3047               655.2160
 Red. masses --      7.4595                 6.7872                 6.4795
 Frc consts  --      1.4663                 1.5686                 1.6389
 IR Inten    --     40.5618                 0.6246                 0.1419

                     22                     23                     24
                      A                      A                      A
 Frequencies --    711.5571               744.2622               750.1385
 Red. masses --      5.2580                 7.0754                 2.5417
 Frc consts  --      1.5685                 2.3092                 0.8427
 IR Inten    --     60.7188                39.4248                15.7959

                     25                     26                     27
                      A                      A                      A
 Frequencies --    755.8397               773.3311               777.6917
 Red. masses --      1.4193                 1.5961                 2.4220
 Frc consts  --      0.4777                 0.5624                 0.8631
 IR Inten    --     47.6097                53.2947                12.4630

                     28                     29                     30
                      A                      A                      A
 Frequencies --    827.7372               874.1201               879.1661
 Red. masses --      6.3160                 2.1487                 1.3749
 Frc consts  --      2.5496                 0.9673                 0.6261
 IR Inten    --     24.3635                16.2950                 0.7848

                     31                     32                     33
                      A                      A                      A
 Frequencies --    890.5612               961.9025               968.1120
 Red. masses --      5.8053                 1.3281                 1.3611
 Frc consts  --      2.7127                 0.7240                 0.7516
 IR Inten    --      1.3875                 0.0457                 1.5783

                     34                     35                     36
                      A                      A                      A
 Frequencies --    975.3648              1012.0824              1017.1906
 Red. masses --      4.1415                 1.3029                 1.3075
 Frc consts  --      2.3214                 0.7863                 0.7971
 IR Inten    --     19.8069                 0.0012                 0.3381

                     37                     38                     39
                      A                      A                      A
 Frequencies --   1047.6792              1057.8742              1102.6397
 Red. masses --      2.1138                 2.0593                 3.4940
 Frc consts  --      1.3670                 1.3578                 2.5029
 IR Inten    --     11.9247                12.0516                 1.1364

                     40                     41                     42
                      A                      A                      A
 Frequencies --   1106.5946              1158.0730              1161.4285
 Red. masses --      1.7736                 1.3197                 1.3138
 Frc consts  --      1.2796                 1.0428                 1.0442
 IR Inten    --     17.4010                19.9262                34.2384

                     43                     44                     45
                      A                      A                      A
 Frequencies --   1180.5662              1198.0110              1219.6879
 Red. masses --      1.1714                 1.3001                 2.4957
 Frc consts  --      0.9619                 1.0994                 2.1875
 IR Inten    --     36.2581                23.3796                71.5148

                     46                     47                     48
                      A                      A                      A
 Frequencies --   1273.4820              1304.6663              1343.2826
 Red. masses --      2.0479                 1.8685                 2.5251
 Frc consts  --      1.9568                 1.8739                 2.6845
 IR Inten    --     53.2920               129.3577                22.1612

                     49                     50                     51
                      A                      A                      A
 Frequencies --   1383.1413              1397.1821              1409.9217
 Red. masses --      3.4934                 6.2992                 2.2969
 Frc consts  --      3.9376                 7.2450                 2.6902
 IR Inten    --    321.6945                21.5265                53.3766

                     52                     53                     54
                      A                      A                      A
 Frequencies --   1493.6216              1507.3838              1524.8247
 Red. masses --      3.2883                 2.7619                 4.5471
 Frc consts  --      4.3222                 3.6975                 6.2290
 IR Inten    --    314.6677               697.5430              1644.5965

                     55                     56                     57
                      A                      A                      A
 Frequencies --   1535.2626              1590.2558              1657.3495
 Red. masses --      2.9634                 6.9436                 5.5877
 Frc consts  --      4.1153                10.3459                 9.0429
 IR Inten    --     10.4203                16.7036                87.4907

                     58                     59                     60
                      A                      A                      A
 Frequencies --   1678.8116              1709.1957              1754.6303
 Red. masses --      7.0861                 7.9654                10.3816
 Frc consts  --     11.7668                13.7101                18.8316
 IR Inten    --     15.2056                 8.2756               467.1165

                     61                     62                     63
                      A                      A                      A
 Frequencies --   3187.6396              3191.3725              3212.0517
 Red. masses --      1.0866                 1.0892                 1.0880
 Frc consts  --      6.5049                 6.5361                 6.6137
 IR Inten    --      4.1589                10.6038                 1.1310

                     64                     65                     66
                      A                      A                      A
 Frequencies --   3213.2675              3222.1987              3230.0235
 Red. masses --      1.0947                 1.0909                 1.0973
 Frc consts  --      6.6596                 6.6734                 6.7448
 IR Inten    --     37.9280                 1.4455                18.6541

                     67                     68                     69
                      A                      A                      A
 Frequencies --   3232.0564              3242.8857              3958.9766
 Red. masses --      1.0949                 1.0992                 1.0789
 Frc consts  --      6.7389                 6.8105                 9.9630
 IR Inten    --      5.9642                12.5277               144.9422

 - Thermochemistry -
 -------------------
 Temperature   298.150 Kelvin.  Pressure   1.00000 Atm.
 Atom     1 has atomic number  6 and mass  12.00000

 Molecular mass:   227.04049 amu.
 Principal axes and moments of inertia in atomic units:
                           1         2         3
     Eigenvalues --  1255.563426468.918277724.48169
           X           -0.70522   0.70899   0.00000
           Y            0.70899   0.70522  -0.00001
           Z            0.00001   0.00001   1.00000
 This molecule is an asymmetric top.
 Rotational symmetry number  1.
 Warning -- assumption of classical behavior for rotation
           may cause significant error
 Rotational temperatures (Kelvin)      0.06898     0.01339     0.01121
 Rotational constants (GHZ):           1.43740     0.27899     0.23364
    1 imaginary frequencies ignored.
 Zero-point vibrational energy     495803.1 (Joules/Mol)
                                  118.49979 (Kcal/Mol)
 Warning -- explicit consideration of  18 degrees of freedom as
           vibrations may cause significant error
 Vibrational temperatures:     71.80    98.10   146.78   255.83   274.36
          (Kelvin)            359.98   372.54   413.65   466.26   564.88
                              618.40   634.56   727.80   743.14   753.27
                              784.01   811.47   831.06   901.11   942.71
                             1023.77  1070.83  1079.28  1087.48  1112.65
                             1118.92  1190.93  1257.66  1264.92  1281.32
                             1383.96  1392.90  1403.33  1456.16  1463.51
                             1507.38  1522.05  1586.45  1592.14  1666.21
                             1671.04  1698.57  1723.67  1754.86  1832.26
                             1877.12  1932.68  1990.03  2010.23  2028.56
                             2148.99  2168.79  2193.88  2208.90  2288.02
                             2384.56  2415.44  2459.15  2524.52  4586.30
                             4591.67  4621.43  4623.18  4636.03  4647.28
                             4650.21  4665.79  5696.08

 Zero-point correction=                           0.188841 (Hartree/Particle)
 Thermal correction to Energy=                    0.200615
 Thermal correction to Enthalpy=                  0.201560
 Thermal correction to Gibbs Free Energy=         0.150214
 Sum of electronic and zero-point Energies=          -1028.599953
 Sum of electronic and thermal Energies=             -1028.588179
 Sum of electronic and thermal Enthalpies=           -1028.587235
 Sum of electronic and thermal Free Energies=        -1028.638581

                     E (Thermal)             CV                S
                      KCal/Mol        Cal/Mol-Kelvin    Cal/Mol-Kelvin
 Total                  125.888             47.638            108.067
 Electronic               0.000              0.000              0.000
 Translational            0.889              2.981             42.162
 Rotational               0.889              2.981             32.506
 Vibrational            124.111             41.676             33.398
 Vibration     1          0.595              1.978              4.821
 Vibration     2          0.598              1.969              4.205
 Vibration     3          0.604              1.948              3.415
 Vibration     4          0.628              1.870              2.351
 Vibration     5          0.634              1.853              2.221
 Vibration     6          0.663              1.762              1.729
 Vibration     7          0.668              1.748              1.669
 Vibration     8          0.685              1.697              1.489
 Vibration     9          0.709              1.627              1.289
 Vibration    10          0.760              1.486              0.990
 Vibration    11          0.791              1.405              0.859
 Vibration    12          0.801              1.381              0.823
 Vibration    13          0.861              1.237              0.644
 Vibration    14          0.872              1.213              0.618
 Vibration    15          0.879              1.198              0.602
 Vibration    16          0.900              1.151              0.555
 Vibration    17          0.920              1.109              0.516
 Vibration    18          0.934              1.080              0.490

 Optimization completed.
    -- Stationary point found.
 Normal termination of Gaussian 16 at Wed Oct 28 02:20:21 2020.
