 Gaussian 16, Revision C.01,
 Gaussian 16:  ES64L-G16RevC.01  3-Jul-2019

 ----------------------------------------------------------------------
 #p opt=addgic freq wb97xd/cc-pvdz nosymm int=ultrafine scrf=(solvent=C
 arbonTetraChloride)
 ----------------------------------------------------------------------

 ------------------------------------------------
 NM 2D-scan of HBT TD-WB97XD pVDZ in CTC Relaxed.
 ------------------------------------------------
 Symbolic Z-matrix:
 Charge =  0 Multiplicity = 1

 SCF Done:  E(RwB97XD) =  -1028.70148021     A.U. after   16 cycles
 SCF Done:  E(RwB97XD) =  -1028.78429360     A.U. after   14 cycles
 SCF Done:  E(RwB97XD) =  -1028.79737151     A.U. after   14 cycles
 SCF Done:  E(RwB97XD) =  -1028.80292606     A.U. after   13 cycles
 SCF Done:  E(RwB97XD) =  -1028.80331357     A.U. after   12 cycles
 SCF Done:  E(RwB97XD) =  -1028.80337867     A.U. after   10 cycles
 SCF Done:  E(RwB97XD) =  -1028.80337963     A.U. after    9 cycles
 Optimization completed.
    -- Stationary point found.
 Normal termination of Gaussian 16 at Tue Oct 27 22:40:32 2020.

 --------------------------------------------------------------------
 #P Geom=AllCheck Guess=TCheck SCRF=Check GenChk RwB97XD/CC-pVDZ Freq
 --------------------------------------------------------------------

 Structure from the checkpoint file:  "config_11_9.chk"
 ------------------------------------------------
 NM 2D-scan of HBT TD-WB97XD pVDZ in CTC Relaxed.
 ------------------------------------------------
 Charge =  0 Multiplicity = 1

                          Input orientation:
 ---------------------------------------------------------------------
 Center     Atomic      Atomic             Coordinates (Angstroms)
 Number     Number       Type             X           Y           Z
 ---------------------------------------------------------------------
      1          6           0        1.660350   -3.277345   -0.000021
      2          6           0        1.008879   -2.048741   -0.000013
      3          6           0        1.735722   -0.869767   -0.000012
      4          6           0        3.129261   -0.855789   -0.000014
      5          6           0        3.779099   -2.086694   -0.000020
      6          6           0        3.053626   -3.282791   -0.000025
      7          1           0        1.098331   -4.211072   -0.000025
      8          1           0        3.681479    0.084523   -0.000012
      9          1           0        4.869345   -2.115007   -0.000022
     10          1           0        3.583543   -4.235704   -0.000032
     11          7           0        0.887345    0.216902   -0.000015
     12         16           0       -0.729721   -1.690364   -0.000004
     13          6           0       -1.382894    1.089536    0.000003
     14          6           0       -2.781150    0.851486   -0.000001
     15          6           0       -0.843891    2.452674    0.000029
     16          6           0       -3.687499    1.885142    0.000025
     17          1           0       -3.143477   -0.181018   -0.000026
     18          6           0       -1.864717    3.499112    0.000058
     19          6           0       -3.206873    3.222848    0.000057
     20          1           0       -4.758600    1.682005    0.000021
     21          1           0       -1.502354    4.529055    0.000080
     22          1           0       -3.927443    4.044951    0.000080
     23          6           0       -0.442290    0.029373   -0.000009
     24          8           0        0.378759    2.681502    0.000014
     25          1           0        1.319742    1.113171   -0.000030
 ---------------------------------------------------------------------

 SCF Done:  E(RwB97XD) =  -1028.80337963     A.U. after    1 cycles

 Alpha  occ. eigenvalues --  -89.10031 -19.21288 -14.51751 -10.41621 -10.36926
 Alpha  occ. eigenvalues --  -10.36077 -10.35886 -10.33339 -10.33034 -10.32630
 Alpha  occ. eigenvalues --  -10.32313 -10.31131 -10.30637 -10.30547 -10.29077
 Alpha  occ. eigenvalues --  -10.28544  -8.12050  -6.06940  -6.06547  -6.06054
 Alpha  occ. eigenvalues --   -1.13297  -1.10137  -0.98640  -0.95260  -0.93252
 Alpha  occ. eigenvalues --   -0.89258  -0.86581  -0.83999  -0.81665  -0.75616
 Alpha  occ. eigenvalues --   -0.73878  -0.71793  -0.69409  -0.67855  -0.64573
 Alpha  occ. eigenvalues --   -0.60911  -0.59791  -0.56652  -0.56030  -0.55958
 Alpha  occ. eigenvalues --   -0.55027  -0.53642  -0.52982  -0.50372  -0.49482
 Alpha  occ. eigenvalues --   -0.49027  -0.48247  -0.46723  -0.45641  -0.44732
 Alpha  occ. eigenvalues --   -0.44546  -0.42937  -0.41797  -0.40423  -0.36894
 Alpha  occ. eigenvalues --   -0.33600  -0.31682  -0.31444  -0.26193
 Alpha virt. eigenvalues --   -0.01296   0.03745   0.06020   0.06822   0.09478
 Alpha virt. eigenvalues --    0.11219   0.13172   0.14629   0.15976   0.17063
 Alpha virt. eigenvalues --    0.18527   0.19871   0.21104   0.21624   0.23081

 Mulliken charges:
               1
     1  C    0.012363
     2  C   -0.245301
     3  C    0.234089
     4  C   -0.011071
     5  C    0.012019
     6  C    0.002993
     7  H    0.024771
     8  H    0.031691
     9  H    0.027593
    10  H    0.026064
    11  N   -0.095321
    12  S    0.179693
    13  C   -0.116808
    14  C   -0.008661
    15  C    0.108475
    16  C   -0.034518
    17  H    0.004352
    18  C   -0.034987
    19  C    0.028271
    20  H    0.002399
    21  H    0.001110
    22  H    0.013537
    23  C    0.093385
    24  O   -0.374620
    25  H    0.118481
 Sum of Mulliken charges =  -0.00000

 Dipole moment (field-independent basis, Debye):
    X=              2.0302    Y=             -5.2148    Z=             -0.0001  Tot=              5.5961
 Quadrupole moment (field-independent basis, Debye-Ang):
   XX=            -81.7056   YY=            -95.1258   ZZ=           -104.0111
   XY=             -6.7071   XZ=             -0.0002   YZ=              0.0001

  Exact polarizability:     289.804     -89.724     287.816      -0.002       0.003      62.942
 Approx polarizability:     267.719     -34.945     255.422      -0.001       0.002      81.952

                      1                      2                      3
                      A                      A                      A
 Frequencies --     30.4582                65.1523               112.6107
 Red. masses --      4.7126                 6.5594                 5.6656
 Frc consts  --      0.0026                 0.0164                 0.0423
 IR Inten    --      1.0843                 2.0798                 0.7960

                      4                      5                      6
                      A                      A                      A
 Frequencies --    119.1287               192.8621               229.4185
 Red. masses --      5.2690                 5.8952                 5.8747
 Frc consts  --      0.0441                 0.1292                 0.1822
 IR Inten    --      0.3255                 0.0372                 1.3001

                      7                      8                      9
                      A                      A                      A
 Frequencies --    268.0934               305.4440               314.5982
 Red. masses --      7.5157                 5.0510                 7.0391
 Frc consts  --      0.3183                 0.2776                 0.4105
 IR Inten    --      4.0683                 2.8313                 4.4974

                     10                     11                     12
                      A                      A                      A
 Frequencies --    389.6980               425.8582               443.9340
 Red. masses --      8.5866                 3.2536                 3.5191
 Frc consts  --      0.7683                 0.3477                 0.4086
 IR Inten    --      5.1562                 1.9598                11.0785

                     13                     14                     15
                      A                      A                      A
 Frequencies --    503.6249               521.2231               537.1619
 Red. masses --      8.0022                 2.3736                 8.4547
 Frc consts  --      1.1958                 0.3799                 1.4373
 IR Inten    --      9.5335                21.9851                 9.8588

                     16                     17                     18
                      A                      A                      A
 Frequencies --    550.3503               554.8436               562.0630
 Red. masses --      6.6395                 1.2290                 3.6032
 Frc consts  --      1.1849                 0.2229                 0.6707
 IR Inten    --      2.9879                43.3020                 1.1223

                     19                     20                     21
                      A                      A                      A
 Frequencies --    583.1067               640.1527               660.3389
 Red. masses --      7.2959                 5.5558                 6.0349
 Frc consts  --      1.4616                 1.3414                 1.5504
 IR Inten    --     38.5034                 7.5238                 4.4301

                     22                     23                     24
                      A                      A                      A
 Frequencies --    704.6005               740.2479               751.9461
 Red. masses --      5.8896                 7.6244                 2.7857
 Frc consts  --      1.7227                 2.4616                 0.9280
 IR Inten    --     47.8233                48.8319                 8.7805

                     25                     26                     27
                      A                      A                      A
 Frequencies --    760.3029               776.3147               780.3255
 Red. masses --      1.4293                 1.5232                 2.4332
 Frc consts  --      0.4868                 0.5408                 0.8729
 IR Inten    --     47.1141                46.0556                29.0061

                     28                     29                     30
                      A                      A                      A
 Frequencies --    830.6954               876.7525               882.9560
 Red. masses --      6.2359                 2.0066                 1.3714
 Frc consts  --      2.5353                 0.9088                 0.6299
 IR Inten    --     22.6093                15.2250                 1.0318

                     31                     32                     33
                      A                      A                      A
 Frequencies --    896.9206               966.0660               968.3885
 Red. masses --      5.1189                 4.1378                 1.3214
 Frc consts  --      2.4262                 2.2753                 0.7301
 IR Inten    --      0.9928                34.4808                 0.1590

                     34                     35                     36
                      A                      A                      A
 Frequencies --    971.7593              1014.9806              1016.7074
 Red. masses --      1.3571                 1.3016                 1.3054
 Frc consts  --      0.7551                 0.7900                 0.7950
 IR Inten    --      1.4687                 0.0104                 0.3500

                     37                     38                     39
                      A                      A                      A
 Frequencies --   1044.1383              1057.4032              1089.3838
 Red. masses --      2.1280                 2.0832                 3.4266
 Frc consts  --      1.3669                 1.3724                 2.3959
 IR Inten    --      9.2702                12.6760                23.2632

                     40                     41                     42
                      A                      A                      A
 Frequencies --   1113.5825              1156.1098              1158.9781
 Red. masses --      2.0713                 1.3361                 1.2058
 Frc consts  --      1.5133                 1.0522                 0.9543
 IR Inten    --     74.8481                 0.6043                70.6445

                     43                     44                     45
                      A                      A                      A
 Frequencies --   1183.2372              1193.5833              1241.0987
 Red. masses --      1.1490                 1.1999                 2.1209
 Frc consts  --      0.9478                 1.0071                 1.9248
 IR Inten    --     23.4775                11.4421                16.4037

                     46                     47                     48
                      A                      A                      A
 Frequencies --   1288.1410              1299.6786              1364.3872
 Red. masses --      1.9305                 1.9735                 2.5838
 Frc consts  --      1.8874                 1.9641                 2.8339
 IR Inten    --     71.6606               140.5445                48.7034

                     49                     50                     51
                      A                      A                      A
 Frequencies --   1386.8343              1393.6443              1414.8883
 Red. masses --      7.2958                 5.8744                 2.2101
 Frc consts  --      8.2675                 6.7223                 2.6068
 IR Inten    --     36.0316               107.6344                 8.8903

                     52                     53                     54
                      A                      A                      A
 Frequencies --   1491.0399              1506.6509              1531.7683
 Red. masses --      2.8770                 3.0047                 3.0386
 Frc consts  --      3.7686                 4.0186                 4.2007
 IR Inten    --    192.6890               704.0922               200.4235

                     55                     56                     57
                      A                      A                      A
 Frequencies --   1546.7706              1595.2564              1649.8157
 Red. masses --      4.5576                 6.7848                 6.4351
 Frc consts  --      6.4244                10.1730                10.3199
 IR Inten    --   1259.6492               103.1297                73.2334

                     58                     59                     60
                      A                      A                      A
 Frequencies --   1681.8067              1696.4286              1727.5626
 Red. masses --      7.2189                 7.7549                 8.3363
 Frc consts  --     12.0302                13.1491                14.6586
 IR Inten    --     63.2225                58.1338               410.7663

                     61                     62                     63
                      A                      A                      A
 Frequencies --   3180.1804              3192.0836              3218.1108
 Red. masses --      1.0892                 1.0878                 1.0925
 Frc consts  --      6.4900                 6.5307                 6.6663
 IR Inten    --      5.1094                14.7031                22.5333

                     64                     65                     66
                      A                      A                      A
 Frequencies --   3218.1614              3228.8430              3232.0846
 Red. masses --      1.0884                 1.0908                 1.0969
 Frc consts  --      6.6414                 6.7000                 6.7510
 IR Inten    --      8.7807                 2.0990                19.5743

                     67                     68                     69
                      A                      A                      A
 Frequencies --   3237.0572              3244.4771              3801.6885
 Red. masses --      1.0964                 1.0997                 1.0795
 Frc consts  --      6.7690                 6.8205                 9.1926
 IR Inten    --      4.1010                11.9490               136.2071

 - Thermochemistry -
 -------------------
 Temperature   298.150 Kelvin.  Pressure   1.00000 Atm.
 Atom     1 has atomic number  6 and mass  12.00000

 Molecular mass:   227.04049 amu.
 Principal axes and moments of inertia in atomic units:
                           1         2         3
     Eigenvalues --  1289.796246382.419187672.21543
           X           -0.70581   0.70841   0.00000
           Y            0.70841   0.70581  -0.00001
           Z            0.00001   0.00000   1.00000
 This molecule is an asymmetric top.
 Rotational symmetry number  1.
 Warning -- assumption of classical behavior for rotation
           may cause significant error
 Rotational temperatures (Kelvin)      0.06715     0.01357     0.01129
 Rotational constants (GHZ):           1.39925     0.28277     0.23523
 Zero-point vibrational energy     498328.1 (Joules/Mol)
                                  119.10329 (Kcal/Mol)
 Warning -- explicit consideration of  19 degrees of freedom as
           vibrations may cause significant error
 Vibrational temperatures:     43.82    93.74   162.02   171.40   277.49
          (Kelvin)            330.08   385.73   439.47   452.64   560.69
                              612.71   638.72   724.60   749.92   772.86
                              791.83   798.30   808.68   838.96   921.04
                              950.08  1013.76  1065.05  1081.88  1093.91
                             1116.94  1122.71  1195.19  1261.45  1270.38
                             1290.47  1389.95  1393.30  1398.14  1460.33
                             1462.82  1502.28  1521.37  1567.38  1602.20
                             1663.38  1667.51  1702.41  1717.30  1785.66
                             1853.35  1869.95  1963.05  1995.35  2005.14
                             2035.71  2145.27  2167.73  2203.87  2225.46
                             2295.22  2373.72  2419.74  2440.78  2485.58
                             4575.57  4592.70  4630.14  4630.22  4645.58
                             4650.25  4657.40  4668.08  5469.78

 Zero-point correction=                           0.189803 (Hartree/Particle)
 Thermal correction to Energy=                    0.201870
 Thermal correction to Enthalpy=                  0.202814
 Thermal correction to Gibbs Free Energy=         0.150461
 Sum of electronic and zero-point Energies=          -1028.613576
 Sum of electronic and thermal Energies=             -1028.601510
 Sum of electronic and thermal Enthalpies=           -1028.600566
 Sum of electronic and thermal Free Energies=        -1028.652919

                     E (Thermal)             CV                S
                      KCal/Mol        Cal/Mol-Kelvin    Cal/Mol-Kelvin
 Total                  126.675             48.704            110.187
 Electronic               0.000              0.000              0.000
 Translational            0.889              2.981             42.162
 Rotational               0.889              2.981             32.513
 Vibrational            124.898             42.742             35.512
 Vibration     1          0.594              1.984              5.799
 Vibration     2          0.597              1.971              4.295
 Vibration     3          0.607              1.939              3.223
 Vibration     4          0.609              1.933              3.114
 Vibration     5          0.635              1.850              2.200
 Vibration     6          0.652              1.796              1.883
 Vibration     7          0.673              1.732              1.608
 Vibration     8          0.696              1.663              1.387
 Vibration     9          0.702              1.646              1.338
 Vibration    10          0.758              1.492              1.001
 Vibration    11          0.788              1.414              0.872
 Vibration    12          0.803              1.374              0.814
 Vibration    13          0.859              1.242              0.649
 Vibration    14          0.876              1.203              0.607
 Vibration    15          0.892              1.168              0.571
 Vibration    16          0.906              1.139              0.543
 Vibration    17          0.910              1.129              0.534
 Vibration    18          0.918              1.113              0.520
 Vibration    19          0.940              1.068              0.480

 Optimization completed.
    -- Stationary point found.
 Normal termination of Gaussian 16 at Tue Oct 27 22:46:30 2020.
