 Gaussian 16, Revision C.01,
 Gaussian 16:  ES64L-G16RevC.01  3-Jul-2019

 ----------------------------------------------------------------------
 #p opt=addgic freq wb97xd/cc-pvdz nosymm int=ultrafine scrf=(solvent=C
 arbonTetraChloride)
 ----------------------------------------------------------------------

 ------------------------------------------------
 NM 2D-scan of HBT TD-WB97XD pVDZ in CTC Relaxed.
 ------------------------------------------------
 Symbolic Z-matrix:
 Charge =  0 Multiplicity = 1

 SCF Done:  E(RwB97XD) =  -1028.80251847     A.U. after   16 cycles
 SCF Done:  E(RwB97XD) =  -1028.81023052     A.U. after   13 cycles
 SCF Done:  E(RwB97XD) =  -1028.81007826     A.U. after   13 cycles
 SCF Done:  E(RwB97XD) =  -1028.81105501     A.U. after   12 cycles
 SCF Done:  E(RwB97XD) =  -1028.81108807     A.U. after   11 cycles
 SCF Done:  E(RwB97XD) =  -1028.81109001     A.U. after    9 cycles
 Optimization completed.
    -- Stationary point found.
 Normal termination of Gaussian 16 at Tue Oct 27 21:07:29 2020.

 --------------------------------------------------------------------
 #P Geom=AllCheck Guess=TCheck SCRF=Check GenChk RwB97XD/CC-pVDZ Freq
 --------------------------------------------------------------------

 Structure from the checkpoint file:  "config_9_3.chk"
 ------------------------------------------------
 NM 2D-scan of HBT TD-WB97XD pVDZ in CTC Relaxed.
 ------------------------------------------------
 Charge =  0 Multiplicity = 1

                          Input orientation:
 ---------------------------------------------------------------------
 Center     Atomic      Atomic             Coordinates (Angstroms)
 Number     Number       Type             X           Y           Z
 ---------------------------------------------------------------------
      1          6           0        1.732190   -3.262092   -0.000017
      2          6           0        1.004762   -2.070915   -0.000009
      3          6           0        1.674252   -0.844477   -0.000014
      4          6           0        3.066347   -0.758736   -0.000026
      5          6           0        3.785121   -1.945213   -0.000033
      6          6           0        3.123882   -3.181804   -0.000028
      7          1           0        1.231240   -4.230303   -0.000015
      8          1           0        3.556889    0.214749   -0.000031
      9          1           0        4.875333   -1.915252   -0.000042
     10          1           0        3.707634   -4.103113   -0.000035
     11          7           0        0.805627    0.216832   -0.000012
     12         16           0       -0.748841   -1.796819   -0.000003
     13          6           0       -1.412338    1.044759    0.000010
     14          6           0       -2.822098    0.897542   -0.000008
     15          6           0       -0.817060    2.377737    0.000047
     16          6           0       -3.656890    1.991877    0.000008
     17          1           0       -3.249722   -0.109178   -0.000039
     18          6           0       -1.736063    3.480687    0.000068
     19          6           0       -3.094398    3.293062    0.000048
     20          1           0       -4.739064    1.861088   -0.000009
     21          1           0       -1.295600    4.478871    0.000103
     22          1           0       -3.756787    4.162119    0.000066
     23          6           0       -0.492869   -0.054012    0.000000
     24          8           0        0.439500    2.587581    0.000074
     25          1           0        0.996434    1.287685   -0.000024
 ---------------------------------------------------------------------

 SCF Done:  E(RwB97XD) =  -1028.81109001     A.U. after    1 cycles

 Alpha  occ. eigenvalues --  -89.10161 -19.22366 -14.50256 -10.41213 -10.36623
 Alpha  occ. eigenvalues --  -10.36363 -10.35981 -10.33282 -10.32619 -10.32370
 Alpha  occ. eigenvalues --  -10.32241 -10.31352 -10.31177 -10.30744 -10.29247
 Alpha  occ. eigenvalues --  -10.28712  -8.12112  -6.06996  -6.06617  -6.06128
 Alpha  occ. eigenvalues --   -1.13389  -1.10065  -0.98313  -0.95091  -0.92876
 Alpha  occ. eigenvalues --   -0.89228  -0.86203  -0.84010  -0.82104  -0.75823
 Alpha  occ. eigenvalues --   -0.72402  -0.71364  -0.69093  -0.68123  -0.64334
 Alpha  occ. eigenvalues --   -0.60825  -0.59647  -0.56948  -0.55718  -0.55676
 Alpha  occ. eigenvalues --   -0.54830  -0.53591  -0.52706  -0.50787  -0.49950
 Alpha  occ. eigenvalues --   -0.49194  -0.47980  -0.46602  -0.45467  -0.44919
 Alpha  occ. eigenvalues --   -0.44380  -0.43057  -0.41740  -0.40572  -0.36656
 Alpha  occ. eigenvalues --   -0.33370  -0.32858  -0.31589  -0.26880
 Alpha virt. eigenvalues --   -0.01172   0.03913   0.06321   0.06693   0.08808
 Alpha virt. eigenvalues --    0.10935   0.12785   0.14734   0.16017   0.17527
 Alpha virt. eigenvalues --    0.19166   0.20379   0.21381   0.21752   0.22944

 Mulliken charges:
               1
     1  C    0.009877
     2  C   -0.244544
     3  C    0.275840
     4  C   -0.009773
     5  C    0.012069
     6  C    0.001109
     7  H    0.025308
     8  H    0.031431
     9  H    0.026171
    10  H    0.025628
    11  N   -0.168905
    12  S    0.180697
    13  C   -0.136600
    14  C   -0.004272
    15  C    0.116797
    16  C   -0.029495
    17  H    0.002363
    18  C   -0.011076
    19  C    0.025844
    20  H    0.003804
    21  H    0.003719
    22  H    0.013719
    23  C    0.073108
    24  O   -0.392578
    25  H    0.169759
 Sum of Mulliken charges =  -0.00000

 Dipole moment (field-independent basis, Debye):
    X=              1.3867    Y=             -4.6904    Z=             -0.0002  Tot=              4.8910
 Quadrupole moment (field-independent basis, Debye-Ang):
   XX=            -82.6080   YY=            -93.3624   ZZ=           -104.0660
   XY=             -7.0731   XZ=             -0.0002   YZ=             -0.0001

  Exact polarizability:     284.805     -81.653     279.594      -0.001       0.003      63.013
 Approx polarizability:     266.734     -30.725     255.115      -0.000       0.002      82.134

                      1                      2                      3
                      A                      A                      A
 Frequencies --     52.8942                68.4505               105.9968
 Red. masses --      5.1732                 5.7010                 5.5228
 Frc consts  --      0.0085                 0.0157                 0.0366
 IR Inten    --      0.2535                 2.0184                 9.8343

                      4                      5                      6
                      A                      A                      A
 Frequencies --    144.3680               199.5339               238.9501
 Red. masses --      5.1677                 5.9869                 6.1841
 Frc consts  --      0.0635                 0.1404                 0.2080
 IR Inten    --      0.9786                 0.0316                 0.6679

                      7                      8                      9
                      A                      A                      A
 Frequencies --    260.9671               299.3176               311.5494
 Red. masses --      6.6663                 5.1827                 5.3339
 Frc consts  --      0.2675                 0.2736                 0.3050
 IR Inten    --     28.4617                23.5250                 0.9335

                     10                     11                     12
                      A                      A                      A
 Frequencies --    408.6815               431.8559               452.0680
 Red. masses --     11.1160                 3.1975                 3.6274
 Frc consts  --      1.0939                 0.3513                 0.4368
 IR Inten    --      4.1309                 0.8723                10.3854

                     13                     14                     15
                      A                      A                      A
 Frequencies --    511.4836               524.2754               535.6467
 Red. masses --      7.9660                 3.9877                 3.0079
 Frc consts  --      1.2279                 0.6458                 0.5085
 IR Inten    --      1.0211                36.2713                 5.0484

                     16                     17                     18
                      A                      A                      A
 Frequencies --    548.1046               564.2828               583.5890
 Red. masses --      8.7242                 3.6767                 6.7156
 Frc consts  --      1.5442                 0.6898                 1.3476
 IR Inten    --      9.1915                 0.0478                35.3085

                     19                     20                     21
                      A                      A                      A
 Frequencies --    625.5841               643.9412               706.9465
 Red. masses --      5.5317                 6.3765                 7.1325
 Frc consts  --      1.2755                 1.5579                 2.1002
 IR Inten    --      3.3596                 0.0038                62.9445

                     22                     23                     24
                      A                      A                      A
 Frequencies --    714.0333               751.3546               763.8833
 Red. masses --      6.0915                 2.5083                 1.4820
 Frc consts  --      1.8298                 0.8343                 0.5095
 IR Inten    --      9.6299                12.1298                48.5772

                     25                     26                     27
                      A                      A                      A
 Frequencies --    776.9680               778.2352               817.6345
 Red. masses --      2.4250                 1.6141                 3.9088
 Frc consts  --      0.8625                 0.5760                 1.5396
 IR Inten    --     25.9538                35.0872                21.1120

                     28                     29                     30
                      A                      A                      A
 Frequencies --    851.9456               879.0577               882.7216
 Red. masses --      5.3049                 1.7840                 1.3937
 Frc consts  --      2.2686                 0.8122                 0.6398
 IR Inten    --     14.8523                 9.0865                 0.1075

                     31                     32                     33
                      A                      A                      A
 Frequencies --    947.5232               968.5153               972.5317
 Red. masses --      5.6829                 1.3301                 1.3583
 Frc consts  --      3.0061                 0.7351                 0.7569
 IR Inten    --     34.3014                 0.4153                 0.9682

                     34                     35                     36
                      A                      A                      A
 Frequencies --   1015.0425              1015.3136              1043.9570
 Red. masses --      1.3026                 1.3043                 2.8120
 Frc consts  --      0.7907                 0.7922                 1.8056
 IR Inten    --      0.0009                 0.1703                19.4714

                     37                     38                     39
                      A                      A                      A
 Frequencies --   1051.4071              1055.0969              1059.6618
 Red. masses --      1.0790                 2.1884                 2.7045
 Frc consts  --      0.7028                 1.4353                 1.7893
 IR Inten    --     72.3863                 8.2663                14.6693

                     40                     41                     42
                      A                      A                      A
 Frequencies --   1107.3055              1155.3899              1158.9323
 Red. masses --      3.0981                 1.3759                 1.2410
 Frc consts  --      2.2381                 1.0822                 0.9821
 IR Inten    --     39.1339                10.0245                22.3295

                     43                     44                     45
                      A                      A                      A
 Frequencies --   1181.9520              1189.4803              1261.9803
 Red. masses --      1.1412                 1.2028                 1.8149
 Frc consts  --      0.9394                 1.0026                 1.7030
 IR Inten    --     22.6722                 4.3616                 9.1002

                     46                     47                     48
                      A                      A                      A
 Frequencies --   1289.9185              1328.9972              1367.0951
 Red. masses --      1.5233                 3.0482                 3.6035
 Frc consts  --      1.4933                 3.1721                 3.9680
 IR Inten    --     20.8942               149.8843                56.3452

                     49                     50                     51
                      A                      A                      A
 Frequencies --   1379.9190              1392.3432              1416.8096
 Red. masses --      6.1991                 4.5571                 2.5150
 Frc consts  --      6.9548                 5.2052                 2.9745
 IR Inten    --     58.2987                12.6005                 9.4774

                     52                     53                     54
                      A                      A                      A
 Frequencies --   1495.2774              1506.3278              1525.3682
 Red. masses --      2.6803                 2.7487                 3.4417
 Frc consts  --      3.5308                 3.6747                 4.7182
 IR Inten    --     18.9262                92.6879               171.5952

                     55                     56                     57
                      A                      A                      A
 Frequencies --   1579.6507              1600.5286              1616.2718
 Red. masses --      5.0876                 6.3282                 4.2388
 Frc consts  --      7.4798                 9.5512                 6.5241
 IR Inten    --   1094.2448               247.3772               739.2386

                     58                     59                     60
                      A                      A                      A
 Frequencies --   1667.2484              1683.2054              1713.7440
 Red. masses --      7.0946                 6.9314                 5.7977
 Frc consts  --     11.6193                11.5703                10.0323
 IR Inten    --     58.2199                67.7858               117.7055

                     61                     62                     63
                      A                      A                      A
 Frequencies --   2447.0309              3181.3851              3194.8096
 Red. masses --      1.1273                 1.0895                 1.0883
 Frc consts  --      3.9770                 6.4970                 6.5446
 IR Inten    --    641.8914                 4.9754                13.3473

                     64                     65                     66
                      A                      A                      A
 Frequencies --   3216.7869              3222.9874              3226.6271
 Red. masses --      1.0864                 1.0939                 1.0907
 Frc consts  --      6.6232                 6.6951                 6.6904
 IR Inten    --      1.5184                18.0583                 2.5083

                     67                     68                     69
                      A                      A                      A
 Frequencies --   3231.1972              3235.7022              3242.3484
 Red. masses --      1.0976                 1.0963                 1.1001
 Frc consts  --      6.7521                 6.7624                 6.8137
 IR Inten    --     20.9950                 5.7165                11.6404

 - Thermochemistry -
 -------------------
 Temperature   298.150 Kelvin.  Pressure   1.00000 Atm.
 Atom     1 has atomic number  6 and mass  12.00000

 Molecular mass:   227.04049 amu.
 Principal axes and moments of inertia in atomic units:
                           1         2         3
     Eigenvalues --  1320.952666270.566247591.51890
           X           -0.70458   0.70962  -0.00000
           Y            0.70962   0.70458  -0.00001
           Z            0.00001   0.00001   1.00000
 This molecule is an asymmetric top.
 Rotational symmetry number  1.
 Warning -- assumption of classical behavior for rotation
           may cause significant error
 Rotational temperatures (Kelvin)      0.06557     0.01381     0.01141
 Rotational constants (GHZ):           1.36624     0.28781     0.23773
 Zero-point vibrational energy     492741.8 (Joules/Mol)
                                  117.76811 (Kcal/Mol)
 Warning -- explicit consideration of  18 degrees of freedom as
           vibrations may cause significant error
 Vibrational temperatures:     76.10    98.48   152.51   207.71   287.08
          (Kelvin)            343.80   375.47   430.65   448.25   588.00
                              621.34   650.43   735.91   754.32   770.68
                              788.60   811.88   839.65   900.08   926.49
                             1017.14  1027.33  1081.03  1099.06  1117.88
                             1119.71  1176.39  1225.76  1264.77  1270.04
                             1363.27  1393.48  1399.26  1460.42  1460.81
                             1502.02  1512.74  1518.05  1524.62  1593.17
                             1662.35  1667.45  1700.57  1711.40  1815.71
                             1855.91  1912.13  1966.94  1985.40  2003.27
                             2038.47  2151.37  2167.27  2194.66  2272.77
                             2302.80  2325.45  2398.80  2421.76  2465.70
                             3520.73  4577.30  4596.62  4628.24  4637.16
                             4642.40  4648.97  4655.45  4665.02

 Zero-point correction=                           0.187675 (Hartree/Particle)
 Thermal correction to Energy=                    0.199499
 Thermal correction to Enthalpy=                  0.200443
 Thermal correction to Gibbs Free Energy=         0.149022
 Sum of electronic and zero-point Energies=          -1028.623415
 Sum of electronic and thermal Energies=             -1028.611591
 Sum of electronic and thermal Enthalpies=           -1028.610647
 Sum of electronic and thermal Free Energies=        -1028.662068

                     E (Thermal)             CV                S
                      KCal/Mol        Cal/Mol-Kelvin    Cal/Mol-Kelvin
 Total                  125.187             48.012            108.225
 Electronic               0.000              0.000              0.000
 Translational            0.889              2.981             42.162
 Rotational               0.889              2.981             32.508
 Vibrational            123.410             42.051             33.555
 Vibration     1          0.596              1.976              4.706
 Vibration     2          0.598              1.969              4.197
 Vibration     3          0.605              1.944              3.341
 Vibration     4          0.616              1.909              2.745
 Vibration     5          0.638              1.841              2.137
 Vibration     6          0.657              1.781              1.811
 Vibration     7          0.669              1.744              1.655
 Vibration     8          0.692              1.675              1.421
 Vibration     9          0.700              1.652              1.354
 Vibration    10          0.773              1.451              0.931
 Vibration    11          0.793              1.401              0.853
 Vibration    12          0.811              1.356              0.790
 Vibration    13          0.867              1.225              0.630
 Vibration    14          0.879              1.196              0.600
 Vibration    15          0.891              1.171              0.575
 Vibration    16          0.903              1.144              0.548
 Vibration    17          0.920              1.109              0.515
 Vibration    18          0.940              1.067              0.479

 Optimization completed.
    -- Stationary point found.
 Normal termination of Gaussian 16 at Tue Oct 27 21:13:44 2020.
