 Gaussian 16, Revision C.01,
 Gaussian 16:  ES64L-G16RevC.01  3-Jul-2019

 ----------------------------------------------------------------------
 #p opt=addgic freq wb97xd/cc-pvdz nosymm int=ultrafine scrf=(solvent=C
 arbonTetraChloride)
 ----------------------------------------------------------------------

 ------------------------------------------------
 NM 2D-scan of HBT TD-WB97XD pVDZ in CTC Relaxed.
 ------------------------------------------------
 Symbolic Z-matrix:
 Charge =  0 Multiplicity = 1

 SCF Done:  E(RwB97XD) =  -1028.80916906     A.U. after   15 cycles
 SCF Done:  E(RwB97XD) =  -1028.81558345     A.U. after   13 cycles
 SCF Done:  E(RwB97XD) =  -1028.81715586     A.U. after   13 cycles
 SCF Done:  E(RwB97XD) =  -1028.81755478     A.U. after   12 cycles
 SCF Done:  E(RwB97XD) =  -1028.81768552     A.U. after   11 cycles
 SCF Done:  E(RwB97XD) =  -1028.81770899     A.U. after   10 cycles
 Optimization completed.
    -- Stationary point found.
 Normal termination of Gaussian 16 at Tue Oct 27 21:02:26 2020.

 --------------------------------------------------------------------
 #P Geom=AllCheck Guess=TCheck SCRF=Check GenChk RwB97XD/CC-pVDZ Freq
 --------------------------------------------------------------------

 Structure from the checkpoint file:  "config_7_3.chk"
 ------------------------------------------------
 NM 2D-scan of HBT TD-WB97XD pVDZ in CTC Relaxed.
 ------------------------------------------------
 Charge =  0 Multiplicity = 1

                          Input orientation:
 ---------------------------------------------------------------------
 Center     Atomic      Atomic             Coordinates (Angstroms)
 Number     Number       Type             X           Y           Z
 ---------------------------------------------------------------------
      1          6           0        1.730777   -3.259184   -0.000046
      2          6           0        1.007152   -2.065249   -0.000010
      3          6           0        1.671097   -0.834925    0.000011
      4          6           0        3.066566   -0.757814    0.000002
      5          6           0        3.783140   -1.945495   -0.000032
      6          6           0        3.120457   -3.182511   -0.000057
      7          1           0        1.226266   -4.225540   -0.000059
      8          1           0        3.559785    0.214420    0.000017
      9          1           0        4.873567   -1.918411   -0.000041
     10          1           0        3.703095   -4.104716   -0.000082
     11          7           0        0.807550    0.231429    0.000024
     12         16           0       -0.740207   -1.795876    0.000033
     13          6           0       -1.418527    1.046906    0.000016
     14          6           0       -2.814582    0.897588    0.000007
     15          6           0       -0.838767    2.362333    0.000027
     16          6           0       -3.656712    2.000155    0.000012
     17          1           0       -3.241203   -0.109025   -0.000005
     18          6           0       -1.725629    3.467287    0.000041
     19          6           0       -3.097232    3.287810    0.000032
     20          1           0       -4.738555    1.866240    0.000003
     21          1           0       -1.283330    4.464463    0.000057
     22          1           0       -3.752387    4.161693    0.000041
     23          6           0       -0.470304   -0.061466    0.000018
     24          8           0        0.453045    2.552507    0.000040
     25          1           0        0.894908    1.533590    0.000035
 ---------------------------------------------------------------------

 SCF Done:  E(RwB97XD) =  -1028.81770899     A.U. after    1 cycles

 Alpha  occ. eigenvalues --  -89.09506 -19.25030 -14.47752 -10.40247 -10.36777
 Alpha  occ. eigenvalues --  -10.35558 -10.35366 -10.32820 -10.32145 -10.31971
 Alpha  occ. eigenvalues --  -10.31924 -10.31849 -10.31604 -10.31028 -10.29706
 Alpha  occ. eigenvalues --  -10.29400  -8.11486  -6.06354  -6.05983  -6.05524
 Alpha  occ. eigenvalues --   -1.14750  -1.09783  -0.97675  -0.95614  -0.92081
 Alpha  occ. eigenvalues --   -0.88812  -0.85636  -0.84088  -0.82900  -0.75708
 Alpha  occ. eigenvalues --   -0.71598  -0.70513  -0.69022  -0.68607  -0.63380
 Alpha  occ. eigenvalues --   -0.60810  -0.59232  -0.57784  -0.56020  -0.54832
 Alpha  occ. eigenvalues --   -0.54517  -0.53519  -0.52326  -0.51138  -0.49883
 Alpha  occ. eigenvalues --   -0.49745  -0.47364  -0.46281  -0.45210  -0.45179
 Alpha  occ. eigenvalues --   -0.43971  -0.43034  -0.42223  -0.40246  -0.36327
 Alpha  occ. eigenvalues --   -0.35070  -0.32754  -0.31523  -0.28172
 Alpha virt. eigenvalues --   -0.00726   0.04386   0.06807   0.07282   0.07881
 Alpha virt. eigenvalues --    0.11060   0.13408   0.14958   0.16092   0.17786
 Alpha virt. eigenvalues --    0.19141   0.20718   0.21721   0.22319   0.22716

 Mulliken charges:
               1
     1  C    0.009269
     2  C   -0.237452
     3  C    0.274508
     4  C   -0.010529
     5  C    0.009047
     6  C    0.001416
     7  H    0.022106
     8  H    0.025460
     9  H    0.023217
    10  H    0.023795
    11  N   -0.298003
    12  S    0.164379
    13  C   -0.105413
    14  C   -0.012114
    15  C    0.100637
    16  C   -0.019179
    17  H    0.005239
    18  C   -0.005325
    19  C    0.022907
    20  H    0.006944
    21  H    0.009817
    22  H    0.015953
    23  C    0.077941
    24  O   -0.291505
    25  H    0.186884
 Sum of Mulliken charges =  -0.00000

 Dipole moment (field-independent basis, Debye):
    X=              0.7206    Y=             -3.5384    Z=             -0.0000  Tot=              3.6110
 Quadrupole moment (field-independent basis, Debye-Ang):
   XX=            -82.7375   YY=            -91.2301   ZZ=           -104.0572
   XY=             -7.1249   XZ=             -0.0001   YZ=              0.0002

  Exact polarizability:     278.309     -71.091     262.490      -0.001       0.002      62.986
 Approx polarizability:     264.661     -25.561     246.250      -0.001       0.002      82.223

                      1                      2                      3
                      A                      A                      A
 Frequencies --      7.9618                63.6780               111.2490
 Red. masses --      5.3947                 6.0962                 5.0328
 Frc consts  --      0.0002                 0.0146                 0.0367
 IR Inten    --      0.0604                 1.5786                29.5780

                      4                      5                      6
                      A                      A                      A
 Frequencies --    151.4722               197.4349               243.4440
 Red. masses --      5.0220                 5.8454                 5.8400
 Frc consts  --      0.0679                 0.1342                 0.2039
 IR Inten    --      0.3206                 0.2823                 0.2177

                      7                      8                      9
                      A                      A                      A
 Frequencies --    260.8968               299.9293               323.5304
 Red. masses --      5.5496                 4.0691                 5.2049
 Frc consts  --      0.2226                 0.2157                 0.3210
 IR Inten    --     66.0181               150.3414                 0.4882

                     10                     11                     12
                      A                      A                      A
 Frequencies --    407.3014               435.2047               459.3341
 Red. masses --      8.6604                 3.1298                 3.6350
 Frc consts  --      0.8465                 0.3493                 0.4519
 IR Inten    --      8.2182                 1.9534                 8.8302

                     13                     14                     15
                      A                      A                      A
 Frequencies --    465.3769               516.7109               539.6379
 Red. masses --      3.9903                 8.6452                 3.3930
 Frc consts  --      0.5092                 1.3599                 0.5822
 IR Inten    --    154.8453                 5.4249                 3.8487

                     16                     17                     18
                      A                      A                      A
 Frequencies --    559.1384               572.2997               588.9381
 Red. masses --      7.4675                 3.6446                 7.8509
 Frc consts  --      1.3755                 0.7033                 1.6044
 IR Inten    --     14.9178                 0.1304                 2.1283

                     19                     20                     21
                      A                      A                      A
 Frequencies --    648.8961               687.0339               711.4057
 Red. masses --      6.4963                 6.1978                 6.6456
 Frc consts  --      1.6116                 1.7236                 1.9816
 IR Inten    --      0.0193                37.6161                31.4409

                     22                     23                     24
                      A                      A                      A
 Frequencies --    753.9113               768.1458               770.4933
 Red. masses --      2.1841                 2.0841                 9.3050
 Frc consts  --      0.7314                 0.7245                 3.2547
 IR Inten    --     20.3358                16.4594                11.2390

                     25                     26                     27
                      A                      A                      A
 Frequencies --    774.7634               782.8755               847.9211
 Red. masses --      1.7368                 1.7773                 5.7362
 Frc consts  --      0.6142                 0.6418                 2.4299
 IR Inten    --     50.9161                37.9408                24.4714

                     28                     29                     30
                      A                      A                      A
 Frequencies --    881.2947               884.8569               892.9760
 Red. masses --      1.6129                 1.4070                 3.7414
 Frc consts  --      0.7381                 0.6491                 1.7578
 IR Inten    --      6.4992                 0.2449               274.7139

                     31                     32                     33
                      A                      A                      A
 Frequencies --    958.8165               967.9880               974.9101
 Red. masses --      4.0533                 1.3521                 1.3605
 Frc consts  --      2.1955                 0.7465                 0.7619
 IR Inten    --    384.4360                 0.9795                 1.0217

                     34                     35                     36
                      A                      A                      A
 Frequencies --   1010.7674              1016.1445              1018.5438
 Red. masses --      1.3003                 1.3053                 5.8124
 Frc consts  --      0.7827                 0.7941                 3.5528
 IR Inten    --      0.2333                 0.0039                26.7193

                     37                     38                     39
                      A                      A                      A
 Frequencies --   1053.5723              1064.3461              1096.7220
 Red. masses --      2.0255                 1.9579                 3.9964
 Frc consts  --      1.3247                 1.3068                 2.8321
 IR Inten    --      4.5751                16.9401                 7.3018

                     40                     41                     42
                      A                      A                      A
 Frequencies --   1144.4832              1149.0156              1154.6218
 Red. masses --      1.0614                 1.4814                 1.3035
 Frc consts  --      0.8191                 1.1523                 1.0239
 IR Inten    --     67.5464                 9.4881                 0.9424

                     43                     44                     45
                      A                      A                      A
 Frequencies --   1177.1185              1185.0471              1258.6800
 Red. masses --      1.0813                 1.1683                 2.0042
 Frc consts  --      0.8827                 0.9667                 1.8708
 IR Inten    --    123.9334                 6.1584                96.1939

                     46                     47                     48
                      A                      A                      A
 Frequencies --   1288.9396              1313.8184              1352.2771
 Red. masses --      1.5198                 2.7357                 6.8565
 Frc consts  --      1.4876                 2.7822                 7.3873
 IR Inten    --      5.0748               324.0241                 1.0363

                     49                     50                     51
                      A                      A                      A
 Frequencies --   1380.4070              1387.2969              1405.4186
 Red. masses --      5.7087                 3.0348                 2.4310
 Frc consts  --      6.4091                 3.4412                 2.8291
 IR Inten    --      4.3934                23.1628                27.7106

                     52                     53                     54
                      A                      A                      A
 Frequencies --   1495.4574              1502.3557              1529.8619
 Red. masses --      2.7346                 2.8618                 4.1608
 Frc consts  --      3.6032                 3.8057                 5.7376
 IR Inten    --     14.9311                32.0316                27.4931

                     55                     56                     57
                      A                      A                      A
 Frequencies --   1578.7017              1592.6109              1620.0311
 Red. masses --      7.1588                 3.4851                 5.4848
 Frc consts  --     10.5121                 5.2082                 8.4811
 IR Inten    --    512.6540               547.6965               616.5882

                     58                     59                     60
                      A                      A                      A
 Frequencies --   1661.1244              1688.6672              1712.3933
 Red. masses --      7.0785                 6.6668                 5.2290
 Frc consts  --     11.5078                11.2010                 9.0338
 IR Inten    --      7.1984                63.7405               233.8860

                     61                     62                     63
                      A                      A                      A
 Frequencies --   1905.7135              3187.8808              3201.0276
 Red. masses --      1.1084                 1.0896                 1.0883
 Frc consts  --      2.3718                 6.5242                 6.5704
 IR Inten    --    180.5526                 4.5253                 7.6763

                     64                     65                     66
                      A                      A                      A
 Frequencies --   3214.6666              3224.1841              3225.2841
 Red. masses --      1.0863                 1.0937                 1.0907
 Frc consts  --      6.6140                 6.6987                 6.6847
 IR Inten    --      1.6654                13.8186                 3.1687

                     67                     68                     69
                      A                      A                      A
 Frequencies --   3232.5801              3235.2338              3241.3063
 Red. masses --      1.0983                 1.0961                 1.0999
 Frc consts  --      6.7618                 6.7591                 6.8081
 IR Inten    --     19.7520                 8.3108                12.5461

 - Thermochemistry -
 -------------------
 Temperature   298.150 Kelvin.  Pressure   1.00000 Atm.
 Atom     1 has atomic number  6 and mass  12.00000

 Molecular mass:   227.04049 amu.
 Principal axes and moments of inertia in atomic units:
                           1         2         3
     Eigenvalues --  1311.846106256.893297568.73939
           X           -0.70547   0.70874   0.00000
           Y            0.70874   0.70547  -0.00001
           Z            0.00001   0.00000   1.00000
 This molecule is an asymmetric top.
 Rotational symmetry number  1.
 Warning -- assumption of classical behavior for rotation
           may cause significant error
 Rotational temperatures (Kelvin)      0.06602     0.01384     0.01144
 Rotational constants (GHZ):           1.37573     0.28844     0.23845
 Zero-point vibrational energy     490565.4 (Joules/Mol)
                                  117.24794 (Kcal/Mol)
 Warning -- explicit consideration of  18 degrees of freedom as
           vibrations may cause significant error
 Vibrational temperatures:     11.46    91.62   160.06   217.93   284.06
          (Kelvin)            350.26   375.37   431.53   465.49   586.02
                              626.16   660.88   669.57   743.43   776.42
                              804.48   823.41   847.35   933.62   988.49
                             1023.55  1084.71  1105.19  1108.57  1114.71
                             1126.38  1219.97  1267.99  1273.11  1284.79
                             1379.52  1392.72  1402.68  1454.27  1462.01
                             1465.46  1515.86  1531.36  1577.94  1646.66
                             1653.18  1661.24  1693.61  1705.02  1810.96
                             1854.50  1890.29  1945.63  1986.10  1996.01
                             2022.08  2151.63  2161.55  2201.13  2271.40
                             2291.41  2330.86  2389.99  2429.62  2463.75
                             2741.90  4586.65  4605.56  4625.19  4638.88
                             4640.46  4650.96  4654.78  4663.52

 Zero-point correction=                           0.186846 (Hartree/Particle)
 Thermal correction to Energy=                    0.198675
 Thermal correction to Enthalpy=                  0.199620
 Thermal correction to Gibbs Free Energy=         0.146556
 Sum of electronic and zero-point Energies=          -1028.630863
 Sum of electronic and thermal Energies=             -1028.619034
 Sum of electronic and thermal Enthalpies=           -1028.618089
 Sum of electronic and thermal Free Energies=        -1028.671153

                     E (Thermal)             CV                S
                      KCal/Mol        Cal/Mol-Kelvin    Cal/Mol-Kelvin
 Total                  124.671             47.639            111.682
 Electronic               0.000              0.000              0.000
 Translational            0.889              2.981             42.162
 Rotational               0.889              2.981             32.496
 Vibrational            122.893             41.678             37.024
 Vibration     1          0.593              1.987              8.464
 Vibration     2          0.597              1.972              4.340
 Vibration     3          0.607              1.940              3.247
 Vibration     4          0.619              1.901              2.654
 Vibration     5          0.637              1.843              2.157
 Vibration     6          0.659              1.774              1.778
 Vibration     7          0.669              1.744              1.656
 Vibration     8          0.692              1.674              1.417
 Vibration     9          0.708              1.628              1.292
 Vibration    10          0.772              1.454              0.936
 Vibration    11          0.796              1.393              0.842
 Vibration    12          0.817              1.340              0.768
 Vibration    13          0.823              1.327              0.751
 Vibration    14          0.872              1.213              0.618
 Vibration    15          0.895              1.162              0.566
 Vibration    16          0.915              1.120              0.526
 Vibration    17          0.928              1.091              0.500
 Vibration    18          0.946              1.055              0.469

                           ! Non-Optimized Parameters !
 Normal termination of Gaussian 16 at Tue Oct 27 21:08:36 2020.
