 Gaussian 16, Revision C.01,
 Gaussian 16:  ES64L-G16RevC.01  3-Jul-2019

 ----------------------------------------------------------------------
 #p opt=addgic freq wb97xd/cc-pvdz nosymm int=ultrafine scrf=(solvent=C
 arbonTetraChloride)
 ----------------------------------------------------------------------

 ------------------------------------------------
 NM 2D-scan of HBT TD-WB97XD pVDZ in CTC Relaxed.
 ------------------------------------------------
 Symbolic Z-matrix:
 Charge =  0 Multiplicity = 1

 SCF Done:  E(RwB97XD) =  -1028.81221394     A.U. after   15 cycles
 SCF Done:  E(RwB97XD) =  -1028.81910613     A.U. after   13 cycles
 SCF Done:  E(RwB97XD) =  -1028.81879086     A.U. after   12 cycles
 SCF Done:  E(RwB97XD) =  -1028.82077017     A.U. after   12 cycles
 SCF Done:  E(RwB97XD) =  -1028.82078662     A.U. after   10 cycles
 SCF Done:  E(RwB97XD) =  -1028.82078816     A.U. after    9 cycles
 SCF Done:  E(RwB97XD) =  -1028.82078835     A.U. after    9 cycles
 SCF Done:  E(RwB97XD) =  -1028.82078857     A.U. after    7 cycles
 Optimization completed.
    -- Stationary point found.
 Normal termination of Gaussian 16 at Tue Oct 27 20:52:58 2020.

 --------------------------------------------------------------------
 #P Geom=AllCheck Guess=TCheck SCRF=Check GenChk RwB97XD/CC-pVDZ Freq
 --------------------------------------------------------------------

 Structure from the checkpoint file:  "config_6_2.chk"
 ------------------------------------------------
 NM 2D-scan of HBT TD-WB97XD pVDZ in CTC Relaxed.
 ------------------------------------------------
 Charge =  0 Multiplicity = 1

                          Input orientation:
 ---------------------------------------------------------------------
 Center     Atomic      Atomic             Coordinates (Angstroms)
 Number     Number       Type             X           Y           Z
 ---------------------------------------------------------------------
      1          6           0        1.748127   -3.270776   -0.000049
      2          6           0        1.001388   -2.088435   -0.000028
      3          6           0        1.654026   -0.850502    0.000006
      4          6           0        3.048290   -0.751197    0.000023
      5          6           0        3.784986   -1.923780    0.000002
      6          6           0        3.137376   -3.169834   -0.000034
      7          1           0        1.263502   -4.247321   -0.000075
      8          1           0        3.520777    0.231393    0.000050
      9          1           0        4.874932   -1.881102    0.000014
     10          1           0        3.733595   -4.083471   -0.000051
     11          7           0        0.799665    0.218436    0.000013
     12         16           0       -0.748124   -1.822356   -0.000035
     13          6           0       -1.421256    1.045335   -0.000005
     14          6           0       -2.819724    0.912620    0.000003
     15          6           0       -0.848782    2.361452    0.000006
     16          6           0       -3.653403    2.023686    0.000040
     17          1           0       -3.257658   -0.088927   -0.000011
     18          6           0       -1.716772    3.472589    0.000052
     19          6           0       -3.089909    3.307497    0.000070
     20          1           0       -4.735952    1.895070    0.000050
     21          1           0       -1.260548    4.463272    0.000066
     22          1           0       -3.737697    4.186544    0.000104
     23          6           0       -0.472838   -0.074532   -0.000015
     24          8           0        0.450133    2.579964   -0.000036
     25          1           0        0.890487    1.630871   -0.000076
 ---------------------------------------------------------------------

 SCF Done:  E(RwB97XD) =  -1028.82078857     A.U. after    1 cycles

 Alpha  occ. eigenvalues --  -89.09323 -19.26127 -14.47096 -10.40023 -10.36984
 Alpha  occ. eigenvalues --  -10.35246 -10.35127 -10.32715 -10.32242 -10.31898
 Alpha  occ. eigenvalues --  -10.31850 -10.31754 -10.31709 -10.31111 -10.29889
 Alpha  occ. eigenvalues --  -10.29588  -8.11266  -6.06137  -6.05769  -6.05305
 Alpha  occ. eigenvalues --   -1.15506  -1.09542  -0.97458  -0.95767  -0.91697
 Alpha  occ. eigenvalues --   -0.88687  -0.85395  -0.84202  -0.83038  -0.75627
 Alpha  occ. eigenvalues --   -0.71432  -0.70414  -0.69217  -0.68492  -0.63137
 Alpha  occ. eigenvalues --   -0.60739  -0.59003  -0.58044  -0.56112  -0.54497
 Alpha  occ. eigenvalues --   -0.54466  -0.53413  -0.52328  -0.51146  -0.49949
 Alpha  occ. eigenvalues --   -0.49737  -0.47486  -0.46112  -0.45274  -0.45066
 Alpha  occ. eigenvalues --   -0.43796  -0.42933  -0.42480  -0.40028  -0.36241
 Alpha  occ. eigenvalues --   -0.35863  -0.32554  -0.31530  -0.28542
 Alpha virt. eigenvalues --   -0.00601   0.04539   0.06923   0.07371   0.07585
 Alpha virt. eigenvalues --    0.11181   0.13138   0.15024   0.15996   0.17826
 Alpha virt. eigenvalues --    0.19091   0.20750   0.21750   0.22512   0.22610

 Mulliken charges:
               1
     1  C    0.005613
     2  C   -0.233568
     3  C    0.268302
     4  C   -0.011611
     5  C    0.008886
     6  C    0.000174
     7  H    0.021655
     8  H    0.023102
     9  H    0.021904
    10  H    0.023053
    11  N   -0.324041
    12  S    0.155734
    13  C   -0.098926
    14  C   -0.013087
    15  C    0.090893
    16  C   -0.015635
    17  H    0.006026
    18  C    0.001761
    19  C    0.021921
    20  H    0.008298
    21  H    0.012136
    22  H    0.016661
    23  C    0.081124
    24  O   -0.246950
    25  H    0.176576
 Sum of Mulliken charges =  -0.00000

 Dipole moment (field-independent basis, Debye):
    X=              0.5187    Y=             -3.0339    Z=             -0.0000  Tot=              3.0779
 Quadrupole moment (field-independent basis, Debye-Ang):
   XX=            -82.7373   YY=            -90.5717   ZZ=           -104.1163
   XY=             -7.1365   XZ=             -0.0001   YZ=              0.0004

  Exact polarizability:     277.005     -68.399     259.315      -0.001       0.003      63.035
 Approx polarizability:     264.224     -24.202     244.540      -0.000       0.003      82.265

 ******    1 imaginary frequencies (negative Signs) ******

                      1                      2                      3
                      A                      A                      A
 Frequencies --    -20.2501                60.8651               122.6624
 Red. masses --      5.5860                 6.0294                 5.6312
 Frc consts  --      0.0013                 0.0132                 0.0499
 IR Inten    --      0.0295                 1.4974                 1.8318

                      4                      5                      6
                      A                      A                      A
 Frequencies --    151.2754               197.1019               244.1437
 Red. masses --      4.9384                 5.7289                 5.7974
 Frc consts  --      0.0666                 0.1311                 0.2036
 IR Inten    --      0.1337                 0.3861                 0.1399

                      7                      8                      9
                      A                      A                      A
 Frequencies --    271.1980               324.5539               342.2630
 Red. masses --      7.3895                 5.1580                 6.0820
 Frc consts  --      0.3202                 0.3201                 0.4198
 IR Inten    --      0.7726                 0.4497                13.9398

                     10                     11                     12
                      A                      A                      A
 Frequencies --    405.5480               436.5085               461.8669
 Red. masses --     10.1593                 3.1292                 3.6684
 Frc consts  --      0.9845                 0.3513                 0.4611
 IR Inten    --      0.3099                 2.1766                 8.4648

                     13                     14                     15
                      A                      A                      A
 Frequencies --    515.0453               526.1652               539.7138
 Red. masses --      8.5786                 5.2106                 3.4613
 Frc consts  --      1.3408                 0.8499                 0.5940
 IR Inten    --      0.2027                29.1312                 3.7277

                     16                     17                     18
                      A                      A                      A
 Frequencies --    554.4286               573.0774               592.8458
 Red. masses --      7.2953                 3.6591                 7.6487
 Frc consts  --      1.3213                 0.7080                 1.5839
 IR Inten    --      8.1904                 0.1041                 3.4776

                     19                     20                     21
                      A                      A                      A
 Frequencies --    647.9908               685.5322               708.6337
 Red. masses --      6.3856                 6.3480                 6.7522
 Frc consts  --      1.5798                 1.7577                 1.9977
 IR Inten    --      0.0142                18.5162                22.0779

                     22                     23                     24
                      A                      A                      A
 Frequencies --    753.4958               753.9094               767.4066
 Red. masses --     10.0861                 2.0826                 2.8550
 Frc consts  --      3.3739                 0.6974                 0.9906
 IR Inten    --     12.0711                23.1383                 3.3077

                     25                     26                     27
                      A                      A                      A
 Frequencies --    774.8845               783.8255               846.6742
 Red. masses --      1.4209                 1.8404                 5.9841
 Frc consts  --      0.5027                 0.6662                 2.5274
 IR Inten    --     64.1783                34.8406                17.4140

                     28                     29                     30
                      A                      A                      A
 Frequencies --    882.9335               884.5257               913.6737
 Red. masses --      1.5658                 1.4265                 6.6663
 Frc consts  --      0.7192                 0.6576                 3.2788
 IR Inten    --      5.8946                 0.0243                 0.1319

                     31                     32                     33
                      A                      A                      A
 Frequencies --    969.5626               974.5869               995.7160
 Red. masses --      1.3549                 1.3608                 7.3480
 Frc consts  --      0.7504                 0.7615                 4.2923
 IR Inten    --      1.2293                 0.6500                65.1796

                     34                     35                     36
                      A                      A                      A
 Frequencies --   1010.5216              1015.5189              1052.0859
 Red. masses --      1.2988                 1.3052                 2.0349
 Frc consts  --      0.7814                 0.7930                 1.3271
 IR Inten    --      0.1047                 0.0808                 8.7473

                     37                     38                     39
                      A                      A                      A
 Frequencies --   1053.2323              1066.3458              1092.6089
 Red. masses --      1.0702                 1.9572                 4.3695
 Frc consts  --      0.6995                 1.3112                 3.0734
 IR Inten    --     70.9239                 9.7956                 4.7116

                     40                     41                     42
                      A                      A                      A
 Frequencies --   1145.2934              1151.9096              1171.3327
 Red. masses --      1.5016                 1.2812                 1.1379
 Frc consts  --      1.1605                 1.0016                 0.9198
 IR Inten    --     19.1504                 3.2201                45.8099

                     43                     44                     45
                      A                      A                      A
 Frequencies --   1183.6294              1254.1893              1285.9728
 Red. masses --      1.1715                 1.9024                 1.5706
 Frc consts  --      0.9670                 1.7631                 1.5303
 IR Inten    --      0.0054               139.8385                 3.2879

                     46                     47                     48
                      A                      A                      A
 Frequencies --   1297.6868              1331.7226              1340.7329
 Red. masses --      2.5848                 3.8090                 5.3987
 Frc consts  --      2.5646                 3.9800                 5.7178
 IR Inten    --    140.6081                67.4526                16.4302

                     49                     50                     51
                      A                      A                      A
 Frequencies --   1378.3869              1384.4354              1458.1299
 Red. masses --      7.4507                 2.6766                 2.3560
 Frc consts  --      8.3405                 3.0226                 2.9513
 IR Inten    --     12.4723                15.6054                 0.7248

                     52                     53                     54
                      A                      A                      A
 Frequencies --   1494.4493              1498.0265              1529.1483
 Red. masses --      2.7069                 2.8351                 4.3480
 Frc consts  --      3.5619                 3.7485                 5.9902
 IR Inten    --      6.4882                36.8911                83.7019

                     55                     56                     57
                      A                      A                      A
 Frequencies --   1583.8529              1596.4518              1655.4844
 Red. masses --      6.5574                 3.1480                 6.5536
 Frc consts  --      9.6919                 4.7271                10.5823
 IR Inten    --    271.9480                60.5042                22.7206

                     58                     59                     60
                      A                      A                      A
 Frequencies --   1671.7831              1698.7261              1707.8135
 Red. masses --      5.0285                 5.3722                 2.2825
 Frc consts  --      8.2804                 9.1338                 3.9223
 IR Inten    --    212.5581               183.3724               337.6734

                     61                     62                     63
                      A                      A                      A
 Frequencies --   2316.8564              3190.4603              3204.0297
 Red. masses --      1.0974                 1.0894                 1.0884
 Frc consts  --      3.4705                 6.5336                 6.5831
 IR Inten    --   1546.8250                 4.3851                 6.2904

                     64                     65                     66
                      A                      A                      A
 Frequencies --   3213.4163              3223.5453              3225.9380
 Red. masses --      1.0861                 1.0905                 1.0935
 Frc consts  --      6.6077                 6.6761                 6.7050
 IR Inten    --      1.1294                 3.0256                12.8407

                     67                     68                     69
                      A                      A                      A
 Frequencies --   3232.9612              3233.1716              3239.7537
 Red. masses --      1.0961                 1.0988                 1.1000
 Frc consts  --      6.7501                 6.7674                 6.8027
 IR Inten    --     10.8090                17.5721                13.6691

 - Thermochemistry -
 -------------------
 Temperature   298.150 Kelvin.  Pressure   1.00000 Atm.
 Atom     1 has atomic number  6 and mass  12.00000

 Molecular mass:   227.04049 amu.
 Principal axes and moments of inertia in atomic units:
                           1         2         3
     Eigenvalues --  1324.319226276.553267600.87248
           X           -0.70296   0.71123  -0.00000
           Y            0.71123   0.70296  -0.00001
           Z            0.00001   0.00001   1.00000
 This molecule is an asymmetric top.
 Rotational symmetry number  1.
 Warning -- assumption of classical behavior for rotation
           may cause significant error
 Rotational temperatures (Kelvin)      0.06540     0.01380     0.01140
 Rotational constants (GHZ):           1.36277     0.28754     0.23744
    1 imaginary frequencies ignored.
 Zero-point vibrational energy     495566.3 (Joules/Mol)
                                  118.44319 (Kcal/Mol)
 Warning -- explicit consideration of  17 degrees of freedom as
           vibrations may cause significant error
 Vibrational temperatures:     87.57   176.48   217.65   283.59   351.27
          (Kelvin)            390.19   466.96   492.44   583.49   628.04
                              664.52   741.04   757.03   776.53   797.70
                              824.53   852.97   932.31   986.33  1019.57
                             1084.11  1084.71  1104.13  1114.89  1127.75
                             1218.18  1270.34  1272.64  1314.57  1394.98
                             1402.21  1432.61  1453.92  1461.11  1513.72
                             1515.37  1534.23  1572.02  1647.82  1657.34
                             1685.29  1702.98  1804.50  1850.23  1867.08
                             1916.05  1929.02  1983.19  1991.89  2097.92
                             2150.18  2155.33  2200.10  2278.81  2296.94
                             2381.87  2405.32  2444.09  2457.16  3333.44
                             4590.36  4609.88  4623.39  4637.96  4641.41
                             4651.51  4651.81  4661.28

 Zero-point correction=                           0.188751 (Hartree/Particle)
 Thermal correction to Energy=                    0.199510
 Thermal correction to Enthalpy=                  0.200454
 Thermal correction to Gibbs Free Energy=         0.151682
 Sum of electronic and zero-point Energies=          -1028.632037
 Sum of electronic and thermal Energies=             -1028.621279
 Sum of electronic and thermal Enthalpies=           -1028.620334
 Sum of electronic and thermal Free Energies=        -1028.669107

                     E (Thermal)             CV                S
                      KCal/Mol        Cal/Mol-Kelvin    Cal/Mol-Kelvin
 Total                  125.194             45.219            102.650
 Electronic               0.000              0.000              0.000
 Translational            0.889              2.981             42.162
 Rotational               0.889              2.981             32.513
 Vibrational            123.417             39.258             27.975
 Vibration     1          0.597              1.973              4.429
 Vibration     2          0.610              1.930              3.058
 Vibration     3          0.619              1.901              2.656
 Vibration     4          0.636              1.844              2.160
 Vibration     5          0.659              1.772              1.772
 Vibration     6          0.675              1.726              1.589
 Vibration     7          0.709              1.626              1.287
 Vibration     8          0.721              1.591              1.202
 Vibration     9          0.771              1.458              0.942
 Vibration    10          0.797              1.391              0.838
 Vibration    11          0.820              1.335              0.761
 Vibration    12          0.870              1.217              0.622
 Vibration    13          0.881              1.192              0.596
 Vibration    14          0.895              1.162              0.566
 Vibration    15          0.910              1.130              0.535
 Vibration    16          0.929              1.089              0.498
 Vibration    17          0.950              1.047              0.462

 Optimization completed.
    -- Stationary point found.
 Normal termination of Gaussian 16 at Tue Oct 27 20:59:23 2020.
