 Gaussian 16, Revision C.01,
 Gaussian 16:  ES64L-G16RevC.01  3-Jul-2019

 ----------------------------------------------------------------------
 #p opt=addgic freq wb97xd/cc-pvdz nosymm int=ultrafine scrf=(solvent=C
 arbonTetraChloride)
 ----------------------------------------------------------------------

 ------------------------------------------------
 NM 2D-scan of HBT TD-WB97XD pVDZ in CTC Relaxed.
 ------------------------------------------------
 Symbolic Z-matrix:
 Charge =  0 Multiplicity = 1

 SCF Done:  E(RwB97XD) =  -1028.26943664     A.U. after   16 cycles
 SCF Done:  E(RwB97XD) =  -1028.61027198     A.U. after   14 cycles
 SCF Done:  E(RwB97XD) =  -1028.76308124     A.U. after   15 cycles
 SCF Done:  E(RwB97XD) =  -1028.78330864     A.U. after   14 cycles
 SCF Done:  E(RwB97XD) =  -1028.78731310     A.U. after   13 cycles
 SCF Done:  E(RwB97XD) =  -1028.78773875     A.U. after   12 cycles
 SCF Done:  E(RwB97XD) =  -1028.78779091     A.U. after   10 cycles
 SCF Done:  E(RwB97XD) =  -1028.78779315     A.U. after    9 cycles
 Optimization completed.
    -- Stationary point found.
 Normal termination of Gaussian 16 at Wed Oct 28 02:32:20 2020.

 --------------------------------------------------------------------
 #P Geom=AllCheck Guess=TCheck SCRF=Check GenChk RwB97XD/CC-pVDZ Freq
 --------------------------------------------------------------------

 Structure from the checkpoint file:  "config_12_20.chk"
 ------------------------------------------------
 NM 2D-scan of HBT TD-WB97XD pVDZ in CTC Relaxed.
 ------------------------------------------------
 Charge =  0 Multiplicity = 1

                          Input orientation:
 ---------------------------------------------------------------------
 Center     Atomic      Atomic             Coordinates (Angstroms)
 Number     Number       Type             X           Y           Z
 ---------------------------------------------------------------------
      1          6           0        1.516179   -3.283573   -0.000121
      2          6           0        1.002567   -1.995913   -0.000083
      3          6           0        1.823505   -0.887422   -0.000003
      4          6           0        3.212916   -1.021257    0.000039
      5          6           0        3.734003   -2.318030    0.000003
      6          6           0        2.898343   -3.437938   -0.000075
      7          1           0        0.851399   -4.146840   -0.000177
      8          1           0        3.870630   -0.150383    0.000103
      9          1           0        4.816626   -2.450844    0.000039
     10          1           0        3.331137   -4.438501   -0.000098
     11          7           0        1.049127    0.275402    0.000041
     12         16           0       -0.685809   -1.513524   -0.000103
     13          6           0       -1.312396    1.158979    0.000067
     14          6           0       -2.673895    0.757055    0.000133
     15          6           0       -0.917630    2.560134   -0.000006
     16          6           0       -3.694388    1.674888    0.000109
     17          1           0       -2.924744   -0.307144    0.000213
     18          6           0       -2.067384    3.490622   -0.000062
     19          6           0       -3.370478    3.060064   -0.000006
     20          1           0       -4.733847    1.345260    0.000166
     21          1           0       -1.839339    4.558744   -0.000149
     22          1           0       -4.183471    3.791332   -0.000048
     23          6           0       -0.303695    0.171724    0.000028
     24          8           0        0.276789    2.864147   -0.000046
     25          1           0        1.679748    1.035448    0.000132
 ---------------------------------------------------------------------

 SCF Done:  E(RwB97XD) =  -1028.78779315     A.U. after    1 cycles

 Alpha  occ. eigenvalues --  -89.09539 -19.20927 -14.52741 -10.41880 -10.37093
 Alpha  occ. eigenvalues --  -10.35851 -10.35543 -10.33341 -10.33194 -10.32731
 Alpha  occ. eigenvalues --  -10.32325 -10.31003 -10.30685 -10.30167 -10.29074
 Alpha  occ. eigenvalues --  -10.28664  -8.11679  -6.06563  -6.06159  -6.05680
 Alpha  occ. eigenvalues --   -1.12906  -1.10217  -0.98682  -0.95883  -0.93328
 Alpha  occ. eigenvalues --   -0.89114  -0.86778  -0.83830  -0.81539  -0.75571
 Alpha  occ. eigenvalues --   -0.74533  -0.71972  -0.69568  -0.67786  -0.64240
 Alpha  occ. eigenvalues --   -0.60889  -0.59739  -0.56701  -0.56051  -0.55978
 Alpha  occ. eigenvalues --   -0.55004  -0.53798  -0.52954  -0.49928  -0.49319
 Alpha  occ. eigenvalues --   -0.48993  -0.48205  -0.46742  -0.45720  -0.44768
 Alpha  occ. eigenvalues --   -0.44469  -0.42725  -0.41880  -0.40341  -0.36973
 Alpha  occ. eigenvalues --   -0.33644  -0.31657  -0.30976  -0.25953
 Alpha virt. eigenvalues --   -0.01387   0.03727   0.05748   0.07295   0.09695
 Alpha virt. eigenvalues --    0.11393   0.14129   0.14562   0.15770   0.16527
 Alpha virt. eigenvalues --    0.17765   0.19619   0.20943   0.21571   0.22697

 Mulliken charges:
               1
     1  C    0.016272
     2  C   -0.224925
     3  C    0.183006
     4  C   -0.015635
     5  C    0.008392
     6  C    0.006379
     7  H    0.022573
     8  H    0.030146
     9  H    0.027898
    10  H    0.026087
    11  N   -0.111750
    12  S    0.175274
    13  C   -0.075618
    14  C   -0.024395
    15  C    0.087953
    16  C   -0.034784
    17  H    0.015508
    18  C   -0.053962
    19  C    0.030129
    20  H    0.001628
    21  H    0.001786
    22  H    0.014215
    23  C    0.114386
    24  O   -0.340464
    25  H    0.119901
 Sum of Mulliken charges =  -0.00000

 Dipole moment (field-independent basis, Debye):
    X=              2.4498    Y=             -5.5746    Z=              0.0002  Tot=              6.0891
 Quadrupole moment (field-independent basis, Debye-Ang):
   XX=            -80.2691   YY=            -97.0307   ZZ=           -103.9534
   XY=             -6.1817   XZ=              0.0005   YZ=              0.0006

  Exact polarizability:     292.340     -94.214     290.359      -0.001       0.002      62.860
 Approx polarizability:     268.056     -35.914     254.639      -0.000       0.001      81.852

 ******    1 imaginary frequencies (negative Signs) ******

                      1                      2                      3
                      A                      A                      A
 Frequencies --   -136.6857                49.2496                68.5330
 Red. masses --      1.9342                 5.5616                 5.9889
 Frc consts  --      0.0213                 0.0079                 0.0166
 IR Inten    --     35.7623                 0.0249                 1.2415

                      4                      5                      6
                      A                      A                      A
 Frequencies --    112.3304               176.2820               189.9853
 Red. masses --      5.8693                 3.0019                 5.7047
 Frc consts  --      0.0436                 0.0550                 0.1213
 IR Inten    --      1.0955                23.5812                 7.4193

                      7                      8                      9
                      A                      A                      A
 Frequencies --    249.7257               262.5865               288.2671
 Red. masses --      2.6314                 8.8679                 6.9250
 Frc consts  --      0.0967                 0.3603                 0.3390
 IR Inten    --     17.9014                 5.1520                 1.5863

                     10                     11                     12
                      A                      A                      A
 Frequencies --    324.5165               395.8043               429.6616
 Red. masses --      4.3205                 7.6953                 2.9843
 Frc consts  --      0.2681                 0.7103                 0.3246
 IR Inten    --      7.3971                 2.4123                 4.2589

                     13                     14                     15
                      A                      A                      A
 Frequencies --    440.9230               507.6754               515.9805
 Red. masses --      3.4355                 8.2321                 2.5827
 Frc consts  --      0.3935                 1.2501                 0.4051
 IR Inten    --      7.0917                10.8359                 3.7813

                     16                     17                     18
                      A                      A                      A
 Frequencies --    526.0239               545.2198               564.2208
 Red. masses --      6.4456                 7.9623                 3.8188
 Frc consts  --      1.0508                 1.3945                 0.7163
 IR Inten    --      1.9907                18.9515                 0.0019

                     19                     20                     21
                      A                      A                      A
 Frequencies --    577.6044               626.1028               655.1230
 Red. masses --      7.5070                 6.7707                 6.5932
 Frc consts  --      1.4756                 1.5638                 1.6672
 IR Inten    --     42.0889                 0.6153                 0.0121

                     22                     23                     24
                      A                      A                      A
 Frequencies --    717.6640               745.3050               750.1504
 Red. masses --      5.5680                 7.1231                 2.5591
 Frc consts  --      1.6896                 2.3312                 0.8485
 IR Inten    --     56.6560                43.4002                16.3435

                     25                     26                     27
                      A                      A                      A
 Frequencies --    755.2467               773.3483               777.2934
 Red. masses --      1.4213                 1.5878                 2.4152
 Frc consts  --      0.4776                 0.5595                 0.8597
 IR Inten    --     47.1002                53.6823                11.8210

                     28                     29                     30
                      A                      A                      A
 Frequencies --    827.4935               873.8490               879.1008
 Red. masses --      6.3335                 2.1657                 1.3745
 Frc consts  --      2.5552                 0.9744                 0.6259
 IR Inten    --     23.4617                16.5534                 0.7601

                     31                     32                     33
                      A                      A                      A
 Frequencies --    890.4529               961.2734               967.9425
 Red. masses --      6.0036                 1.3287                 1.3614
 Frc consts  --      2.8047                 0.7234                 0.7515
 IR Inten    --      1.5061                 0.0381                 1.5513

                     34                     35                     36
                      A                      A                      A
 Frequencies --    983.7007              1012.1863              1017.1436
 Red. masses --      5.1713                 1.3029                 1.3079
 Frc consts  --      2.9483                 0.7865                 0.7973
 IR Inten    --     19.4975                 0.0014                 0.3405

                     37                     38                     39
                      A                      A                      A
 Frequencies --   1046.8979              1057.4635              1103.3136
 Red. masses --      2.1020                 2.0445                 3.4777
 Frc consts  --      1.3574                 1.3470                 2.4942
 IR Inten    --     11.9061                12.6462                 1.6329

                     40                     41                     42
                      A                      A                      A
 Frequencies --   1138.8317              1160.0623              1164.7878
 Red. masses --      1.8786                 1.4402                 1.1396
 Frc consts  --      1.4355                 1.1419                 0.9110
 IR Inten    --     19.2316                 9.3738               102.5109

                     43                     44                     45
                      A                      A                      A
 Frequencies --   1181.4874              1206.4046              1222.7786
 Red. masses --      1.1654                 1.2385                 2.6047
 Frc consts  --      0.9585                 1.0620                 2.2946
 IR Inten    --     16.3905                15.4217                50.8952

                     46                     47                     48
                      A                      A                      A
 Frequencies --   1270.1587              1305.6877              1340.6975
 Red. masses --      2.0434                 1.8979                 2.4575
 Frc consts  --      1.9424                 1.9064                 2.6026
 IR Inten    --     59.4563               158.2205                26.0491

                     49                     50                     51
                      A                      A                      A
 Frequencies --   1384.2673              1398.0565              1409.2560
 Red. masses --      3.5583                 5.7708                 2.2741
 Frc consts  --      4.0173                 6.6456                 2.6610
 IR Inten    --    295.7169                18.0184                57.6648

                     52                     53                     54
                      A                      A                      A
 Frequencies --   1493.8664              1505.1232              1527.4758
 Red. masses --      3.1025                 2.8845                 4.4233
 Frc consts  --      4.0794                 3.8500                 6.0805
 IR Inten    --    164.0755               771.9413              1509.0632

                     55                     56                     57
                      A                      A                      A
 Frequencies --   1536.8936              1591.2617              1657.1402
 Red. masses --      2.9297                 6.8784                 5.6463
 Frc consts  --      4.0772                10.2618                 9.1355
 IR Inten    --    214.6346                17.8714                83.5882

                     58                     59                     60
                      A                      A                      A
 Frequencies --   1678.7489              1710.1492              1755.4253
 Red. masses --      7.0703                 7.7834                10.4884
 Frc consts  --     11.7398                13.4118                19.0425
 IR Inten    --     14.4976                 8.4031               465.8313

                     61                     62                     63
                      A                      A                      A
 Frequencies --   3184.8124              3189.9658              3211.7278
 Red. masses --      1.0877                 1.0884                 1.0881
 Frc consts  --      6.5001                 6.5256                 6.6132
 IR Inten    --      2.0712                13.5009                 1.0452

                     64                     65                     66
                      A                      A                      A
 Frequencies --   3212.8636              3221.6845              3229.6734
 Red. masses --      1.0947                 1.0906                 1.0971
 Frc consts  --      6.6579                 6.6693                 6.7426
 IR Inten    --     37.9204                 1.1215                17.8947

                     67                     68                     69
                      A                      A                      A
 Frequencies --   3231.0876              3241.8348              3956.4863
 Red. masses --      1.0949                 1.0996                 1.0786
 Frc consts  --      6.7349                 6.8090                 9.9478
 IR Inten    --      5.9528                13.2975               149.1743

 - Thermochemistry -
 -------------------
 Temperature   298.150 Kelvin.  Pressure   1.00000 Atm.
 Atom     1 has atomic number  6 and mass  12.00000

 Molecular mass:   227.04049 amu.
 Principal axes and moments of inertia in atomic units:
                           1         2         3
     Eigenvalues --  1253.826296476.212637730.03891
           X           -0.70488   0.70933   0.00000
           Y            0.70933   0.70488  -0.00001
           Z            0.00001   0.00001   1.00000
 This molecule is an asymmetric top.
 Rotational symmetry number  1.
 Warning -- assumption of classical behavior for rotation
           may cause significant error
 Rotational temperatures (Kelvin)      0.06908     0.01337     0.01120
 Rotational constants (GHZ):           1.43939     0.27867     0.23347
    1 imaginary frequencies ignored.
 Zero-point vibrational energy     496236.9 (Joules/Mol)
                                  118.60347 (Kcal/Mol)
 Warning -- explicit consideration of  18 degrees of freedom as
           vibrations may cause significant error
 Vibrational temperatures:     70.86    98.60   161.62   253.63   273.35
          (Kelvin)            359.30   377.80   414.75   466.91   569.47
                              618.19   634.39   730.43   742.38   756.83
                              784.45   811.79   831.04   900.82   942.58
                             1032.56  1072.33  1079.30  1086.63  1112.68
                             1118.35  1190.58  1257.27  1264.83  1281.16
                             1383.06  1392.65  1415.33  1456.31  1463.44
                             1506.25  1521.45  1587.42  1638.52  1669.07
                             1675.87  1699.90  1735.75  1759.31  1827.48
                             1878.59  1928.96  1991.65  2011.49  2027.61
                             2149.34  2165.54  2197.70  2211.25  2289.47
                             2384.26  2415.35  2460.52  2525.67  4582.23
                             4589.65  4620.96  4622.59  4635.29  4646.78
                             4648.81  4664.28  5692.50

 Zero-point correction=                           0.189007 (Hartree/Particle)
 Thermal correction to Energy=                    0.200747
 Thermal correction to Enthalpy=                  0.201691
 Thermal correction to Gibbs Free Energy=         0.150447
 Sum of electronic and zero-point Energies=          -1028.598786
 Sum of electronic and thermal Energies=             -1028.587047
 Sum of electronic and thermal Enthalpies=           -1028.586102
 Sum of electronic and thermal Free Energies=        -1028.637346

                     E (Thermal)             CV                S
                      KCal/Mol        Cal/Mol-Kelvin    Cal/Mol-Kelvin
 Total                  125.970             47.554            107.850
 Electronic               0.000              0.000              0.000
 Translational            0.889              2.981             42.162
 Rotational               0.889              2.981             32.507
 Vibrational            124.193             41.592             33.182
 Vibration     1          0.595              1.978              4.847
 Vibration     2          0.598              1.969              4.195
 Vibration     3          0.607              1.939              3.228
 Vibration     4          0.628              1.872              2.367
 Vibration     5          0.633              1.854              2.228
 Vibration     6          0.663              1.763              1.733
 Vibration     7          0.670              1.741              1.645
 Vibration     8          0.685              1.696              1.484
 Vibration     9          0.709              1.626              1.287
 Vibration    10          0.763              1.479              0.978
 Vibration    11          0.791              1.406              0.860
 Vibration    12          0.801              1.381              0.824
 Vibration    13          0.863              1.233              0.639
 Vibration    14          0.871              1.215              0.619
 Vibration    15          0.881              1.192              0.596
 Vibration    16          0.900              1.150              0.554
 Vibration    17          0.920              1.109              0.515
 Vibration    18          0.934              1.080              0.490

 Optimization completed.
    -- Stationary point found.
 Normal termination of Gaussian 16 at Wed Oct 28 02:38:12 2020.
