 Gaussian 16, Revision C.01,
 Gaussian 16:  ES64L-G16RevC.01  3-Jul-2019

 ----------------------------------------------------------------------
 #p opt=addgic freq wb97xd/cc-pvdz nosymm int=ultrafine scrf=(solvent=C
 arbonTetraChloride)
 ----------------------------------------------------------------------

 ------------------------------------------------
 NM 2D-scan of HBT TD-WB97XD pVDZ in CTC Relaxed.
 ------------------------------------------------
 Symbolic Z-matrix:
 Charge =  0 Multiplicity = 1

 SCF Done:  E(RwB97XD) =  -1028.80826561     A.U. after   15 cycles
 SCF Done:  E(RwB97XD) =  -1028.81386508     A.U. after   13 cycles
 SCF Done:  E(RwB97XD) =  -1028.81440249     A.U. after   12 cycles
 SCF Done:  E(RwB97XD) =  -1028.81442970     A.U. after   11 cycles
 SCF Done:  E(RwB97XD) =  -1028.81443244     A.U. after   11 cycles
 SCF Done:  E(RwB97XD) =  -1028.81443801     A.U. after   10 cycles
 SCF Done:  E(RwB97XD) =  -1028.81444096     A.U. after   10 cycles
 SCF Done:  E(RwB97XD) =  -1028.81444315     A.U. after    9 cycles
 Optimization completed.
    -- Stationary point found.
 Normal termination of Gaussian 16 at Tue Oct 27 22:51:55 2020.

 --------------------------------------------------------------------
 #P Geom=AllCheck Guess=TCheck SCRF=Check GenChk RwB97XD/CC-pVDZ Freq
 --------------------------------------------------------------------

 Structure from the checkpoint file:  "config_8_8.chk"
 ------------------------------------------------
 NM 2D-scan of HBT TD-WB97XD pVDZ in CTC Relaxed.
 ------------------------------------------------
 Charge =  0 Multiplicity = 1

                          Input orientation:
 ---------------------------------------------------------------------
 Center     Atomic      Atomic             Coordinates (Angstroms)
 Number     Number       Type             X           Y           Z
 ---------------------------------------------------------------------
      1          6           0        1.656739   -3.256121   -0.000056
      2          6           0        1.000158   -2.027161   -0.000034
      3          6           0        1.713494   -0.820476    0.000000
      4          6           0        3.110268   -0.820505    0.000016
      5          6           0        3.764419   -2.047108   -0.000007
      6          6           0        3.047781   -3.252286   -0.000044
      7          1           0        1.097593   -4.192006   -0.000081
      8          1           0        3.660703    0.120461    0.000044
      9          1           0        4.854919   -2.070821    0.000003
     10          1           0        3.585742   -4.201004   -0.000061
     11          7           0        0.875726    0.279394    0.000017
     12         16           0       -0.732311   -1.713329   -0.000029
     13          6           0       -1.377078    1.065476    0.000007
     14          6           0       -2.771142    0.836806    0.000027
     15          6           0       -0.839373    2.406759   -0.000003
     16          6           0       -3.658886    1.888121    0.000050
     17          1           0       -3.143520   -0.191504    0.000029
     18          6           0       -1.800788    3.467036    0.000020
     19          6           0       -3.153000    3.209523    0.000048
     20          1           0       -4.733908    1.708552    0.000068
     21          1           0       -1.416975    4.488349    0.000008
     22          1           0       -3.854624    4.047154    0.000064
     23          6           0       -0.420619    0.003991   -0.000005
     24          8           0        0.424154    2.635161   -0.000065
     25          1           0        0.992241    1.417346    0.000071
 ---------------------------------------------------------------------

 SCF Done:  E(RwB97XD) =  -1028.81444315     A.U. after    1 cycles

 Alpha  occ. eigenvalues --  -89.09830 -19.22921 -14.49974 -10.40756 -10.36625
 Alpha  occ. eigenvalues --  -10.36381 -10.35747 -10.33064 -10.32573 -10.32259
 Alpha  occ. eigenvalues --  -10.32146 -10.31410 -10.30969 -10.30891 -10.29375
 Alpha  occ. eigenvalues --  -10.28962  -8.11862  -6.06730  -6.06359  -6.05889
 Alpha  occ. eigenvalues --   -1.13223  -1.09927  -0.98153  -0.95406  -0.92876
 Alpha  occ. eigenvalues --   -0.89096  -0.86220  -0.83913  -0.82384  -0.75758
 Alpha  occ. eigenvalues --   -0.71994  -0.71376  -0.68796  -0.68216  -0.64090
 Alpha  occ. eigenvalues --   -0.60861  -0.59587  -0.57116  -0.55736  -0.55447
 Alpha  occ. eigenvalues --   -0.54746  -0.53597  -0.52681  -0.50784  -0.49962
 Alpha  occ. eigenvalues --   -0.49317  -0.47744  -0.46566  -0.45385  -0.44958
 Alpha  occ. eigenvalues --   -0.44358  -0.43177  -0.41821  -0.40594  -0.36563
 Alpha  occ. eigenvalues --   -0.33489  -0.33182  -0.31563  -0.27232
 Alpha virt. eigenvalues --   -0.01042   0.04062   0.06309   0.06944   0.08562
 Alpha virt. eigenvalues --    0.10999   0.13923   0.14810   0.16250   0.17619
 Alpha virt. eigenvalues --    0.19122   0.20502   0.21446   0.21842   0.22985

 Mulliken charges:
               1
     1  C    0.014486
     2  C   -0.236043
     3  C    0.272246
     4  C   -0.009983
     5  C    0.009347
     6  C    0.002789
     7  H    0.023673
     8  H    0.029083
     9  H    0.025365
    10  H    0.025084
    11  N   -0.221996
    12  S    0.180621
    13  C   -0.114615
    14  C   -0.012270
    15  C    0.116492
    16  C   -0.025359
    17  H    0.006775
    18  C   -0.012788
    19  C    0.024535
    20  H    0.004062
    21  H    0.005397
    22  H    0.014608
    23  C    0.072023
    24  O   -0.388131
    25  H    0.194598
 Sum of Mulliken charges =  -0.00000

 Dipole moment (field-independent basis, Debye):
    X=              1.1334    Y=             -4.5739    Z=              0.0002  Tot=              4.7123
 Quadrupole moment (field-independent basis, Debye-Ang):
   XX=            -82.5855   YY=            -93.2135   ZZ=           -104.0072
   XY=             -7.0708   XZ=              0.0001   YZ=              0.0007

  Exact polarizability:     282.320     -78.997     273.828      -0.001       0.002      62.911
 Approx polarizability:     265.418     -28.984     252.433      -0.001       0.002      82.095

 ******    1 imaginary frequencies (negative Signs) ******

                      1                      2                      3
                      A                      A                      A
 Frequencies --   -747.5288                58.1406                74.5271
 Red. masses --      1.3108                 5.4674                 5.2310
 Frc consts  --      0.4316                 0.0109                 0.0171
 IR Inten    --    638.5852                 0.7741                 1.0415

                      4                      5                      6
                      A                      A                      A
 Frequencies --    143.8832               150.8683               201.7674
 Red. masses --      5.5470                 5.2156                 6.2064
 Frc consts  --      0.0677                 0.0699                 0.1489
 IR Inten    --      0.8112                 0.9827                 0.0908

                      7                      8                      9
                      A                      A                      A
 Frequencies --    242.1065               280.4148               317.3133
 Red. masses --      6.2242                 7.1108                 5.3294
 Frc consts  --      0.2150                 0.3294                 0.3162
 IR Inten    --      0.5567                 1.9795                 0.6163

                     10                     11                     12
                      A                      A                      A
 Frequencies --    391.2667               419.8964               432.9024
 Red. masses --      5.7485                10.9478                 3.1659
 Frc consts  --      0.5185                 1.1373                 0.3496
 IR Inten    --      0.8425                 1.3724                 1.0410

                     13                     14                     15
                      A                      A                      A
 Frequencies --    455.8765               514.6538               537.2077
 Red. masses --      3.6232                 8.8030                 3.0951
 Frc consts  --      0.4436                 1.3738                 0.5263
 IR Inten    --      9.7844                 7.0005                 4.3983

                     16                     17                     18
                      A                      A                      A
 Frequencies --    552.2302               567.2333               578.5585
 Red. masses --      8.8671                 3.6808                 7.2195
 Frc consts  --      1.5932                 0.6978                 1.4238
 IR Inten    --      6.4666                 0.0895                14.3617

                     19                     20                     21
                      A                      A                      A
 Frequencies --    611.8876               647.3984               697.8680
 Red. masses --      7.0889                 6.4698                 6.1733
 Frc consts  --      1.5638                 1.5977                 1.7714
 IR Inten    --     11.7014                 0.0008                14.9890

                     22                     23                     24
                      A                      A                      A
 Frequencies --    722.2416               753.0628               765.5500
 Red. masses --      6.5678                 2.4904                 1.5202
 Frc consts  --      2.0185                 0.8321                 0.5249
 IR Inten    --     17.9154                13.7107                44.6528

                     25                     26                     27
                      A                      A                      A
 Frequencies --    777.2100               778.3574               780.1345
 Red. masses --      6.6980                 2.3808                 1.6390
 Frc consts  --      2.3838                 0.8498                 0.5877
 IR Inten    --     35.8910                15.1357                51.3454

                     28                     29                     30
                      A                      A                      A
 Frequencies --    852.5527               879.0810               885.2108
 Red. masses --      6.2713                 1.7469                 1.3862
 Frc consts  --      2.6857                 0.7954                 0.6400
 IR Inten    --     16.2019                 8.5713                 0.4426

                     31                     32                     33
                      A                      A                      A
 Frequencies --    938.1307               968.5442               973.7666
 Red. masses --      6.5718                 1.3335                 1.3601
 Frc consts  --      3.4077                 0.7370                 0.7598
 IR Inten    --     12.1944                 0.5083                 1.3610

                     34                     35                     36
                      A                      A                      A
 Frequencies --   1013.8533              1016.1842              1020.6712
 Red. masses --      1.3049                 1.3047                 6.9225
 Frc consts  --      0.7902                 0.7938                 4.2490
 IR Inten    --      0.2475                 0.0006                 5.5302

                     37                     38                     39
                      A                      A                      A
 Frequencies --   1052.7997              1055.0937              1106.0586
 Red. masses --      2.0234                 2.0074                 3.5879
 Frc consts  --      1.3214                 1.3167                 2.5861
 IR Inten    --      4.2378                11.1396                 4.2039

                     40                     41                     42
                      A                      A                      A
 Frequencies --   1133.6972              1157.7194              1159.0173
 Red. masses --      1.0632                 1.4054                 1.2933
 Frc consts  --      0.8051                 1.1098                 1.0236
 IR Inten    --     71.2176                10.5219                 5.5839

                     43                     44                     45
                      A                      A                      A
 Frequencies --   1178.8310              1186.8878              1258.5571
 Red. masses --      1.1244                 1.1897                 1.8793
 Frc consts  --      0.9206                 0.9874                 1.7539
 IR Inten    --     75.4706                 1.1894                34.5653

                     46                     47                     48
                      A                      A                      A
 Frequencies --   1290.0740              1329.4251              1363.4365
 Red. masses --      1.5333                 3.0585                 3.6091
 Frc consts  --      1.5035                 3.1848                 3.9529
 IR Inten    --     19.6138               297.4095                10.4062

                     49                     50                     51
                      A                      A                      A
 Frequencies --   1378.4076              1391.7462              1410.0354
 Red. masses --      4.9308                 6.2724                 2.7302
 Frc consts  --      5.5198                 7.1582                 3.1982
 IR Inten    --     19.7664                 6.6157                20.2387

                     52                     53                     54
                      A                      A                      A
 Frequencies --   1494.4610              1504.3906              1520.0964
 Red. masses --      2.7191                 2.8169                 3.3697
 Frc consts  --      3.5780                 3.7562                 4.5876
 IR Inten    --     21.2882                25.0055                28.6908

                     55                     56                     57
                      A                      A                      A
 Frequencies --   1570.2350              1590.1716              1605.5198
 Red. masses --      6.2085                 4.5998                 6.8551
 Frc consts  --      9.0192                 6.8529                10.4111
 IR Inten    --   1986.5863               184.1979                71.5561

                     58                     59                     60
                      A                      A                      A
 Frequencies --   1660.3232              1681.3301              1710.2416
 Red. masses --      7.0068                 6.7782                 6.4258
 Frc consts  --     11.3803                11.2894                11.0737
 IR Inten    --      8.8226                11.2005               183.7257

                     61                     62                     63
                      A                      A                      A
 Frequencies --   2100.3904              3187.2984              3197.0383
 Red. masses --      1.1224                 1.0892                 1.0885
 Frc consts  --      2.9173                 6.5191                 6.5551
 IR Inten    --    420.7422                 4.0924                12.5546

                     64                     65                     66
                      A                      A                      A
 Frequencies --   3215.9575              3224.2225              3226.6849
 Red. masses --      1.0865                 1.0942                 1.0910
 Frc consts  --      6.6207                 6.7018                 6.6926
 IR Inten    --      1.8691                19.1141                 3.3668

                     67                     68                     69
                      A                      A                      A
 Frequencies --   3235.2081              3237.3263              3243.0301
 Red. masses --      1.0974                 1.0961                 1.0995
 Frc consts  --      6.7671                 6.7684                 6.8134
 IR Inten    --     18.6366                 7.3035                 9.4983

 - Thermochemistry -
 -------------------
 Temperature   298.150 Kelvin.  Pressure   1.00000 Atm.
 Atom     1 has atomic number  6 and mass  12.00000

 Molecular mass:   227.04049 amu.
 Principal axes and moments of inertia in atomic units:
                           1         2         3
     Eigenvalues --  1299.925056251.452947551.37798
           X           -0.70586   0.70835   0.00000
           Y            0.70835   0.70586  -0.00001
           Z            0.00001   0.00000   1.00000
 This molecule is an asymmetric top.
 Rotational symmetry number  1.
 Warning -- assumption of classical behavior for rotation
           may cause significant error
 Rotational temperatures (Kelvin)      0.06663     0.01386     0.01147
 Rotational constants (GHZ):           1.38834     0.28869     0.23899
    1 imaginary frequencies ignored.
 Zero-point vibrational energy     488412.9 (Joules/Mol)
                                  116.73349 (Kcal/Mol)
 Warning -- explicit consideration of  18 degrees of freedom as
           vibrations may cause significant error
 Vibrational temperatures:     83.65   107.23   207.02   217.07   290.30
          (Kelvin)            348.34   403.45   456.54   562.95   604.14
                              622.85   655.90   740.47   772.92   794.54
                              816.12   832.42   880.37   931.46  1004.08
                             1039.14  1083.49  1101.46  1118.23  1119.88
                             1122.44  1226.63  1264.80  1273.62  1349.76
                             1393.52  1401.03  1458.71  1462.06  1468.52
                             1514.74  1518.04  1591.37  1631.14  1665.70
                             1667.57  1696.07  1707.67  1810.78  1856.13
                             1912.75  1961.68  1983.22  2002.41  2028.73
                             2150.20  2164.48  2187.08  2259.22  2287.90
                             2309.98  2388.83  2419.06  2460.66  3021.99
                             4585.81  4599.83  4627.05  4638.94  4642.48
                             4654.74  4657.79  4666.00

 Zero-point correction=                           0.186027 (Hartree/Particle)
 Thermal correction to Energy=                    0.197390
 Thermal correction to Enthalpy=                  0.198334
 Thermal correction to Gibbs Free Energy=         0.148007
 Sum of electronic and zero-point Energies=          -1028.628416
 Sum of electronic and thermal Energies=             -1028.617054
 Sum of electronic and thermal Enthalpies=           -1028.616109
 Sum of electronic and thermal Free Energies=        -1028.666436

                     E (Thermal)             CV                S
                      KCal/Mol        Cal/Mol-Kelvin    Cal/Mol-Kelvin
 Total                  123.864             46.547            105.921
 Electronic               0.000              0.000              0.000
 Translational            0.889              2.981             42.162
 Rotational               0.889              2.981             32.484
 Vibrational            122.086             40.585             31.275
 Vibration     1          0.596              1.974              4.519
 Vibration     2          0.599              1.966              4.030
 Vibration     3          0.616              1.909              2.752
 Vibration     4          0.618              1.902              2.661
 Vibration     5          0.639              1.837              2.117
 Vibration     6          0.658              1.776              1.787
 Vibration     7          0.680              1.710              1.531
 Vibration     8          0.704              1.641              1.324
 Vibration     9          0.759              1.489              0.995
 Vibration    10          0.783              1.427              0.892
 Vibration    11          0.794              1.399              0.849
 Vibration    12          0.814              1.348              0.778
 Vibration    13          0.870              1.218              0.622
 Vibration    14          0.892              1.168              0.571
 Vibration    15          0.908              1.135              0.540
 Vibration    16          0.923              1.102              0.510
 Vibration    17          0.935              1.078              0.488
 Vibration    18          0.971              1.007              0.430

 Optimization completed.
    -- Stationary point found.
 Normal termination of Gaussian 16 at Tue Oct 27 22:57:59 2020.
