 Gaussian 16, Revision C.01,
 Gaussian 16:  ES64L-G16RevC.01  3-Jul-2019

 ----------------------------------------------------------------------
 #p opt=addgic freq wb97xd/cc-pvdz nosymm int=ultrafine scrf=(solvent=C
 arbonTetraChloride)
 ----------------------------------------------------------------------

 ------------------------------------------------
 NM 2D-scan of HBT TD-WB97XD pVDZ in CTC Relaxed.
 ------------------------------------------------
 Symbolic Z-matrix:
 Charge =  0 Multiplicity = 1

 SCF Done:  E(RwB97XD) =  -1028.81781033     A.U. after   15 cycles
 SCF Done:  E(RwB97XD) =  -1028.82597809     A.U. after   13 cycles
 SCF Done:  E(RwB97XD) =  -1028.82672729     A.U. after   12 cycles
 SCF Done:  E(RwB97XD) =  -1028.82677601     A.U. after   11 cycles
 SCF Done:  E(RwB97XD) =  -1028.82681189     A.U. after    9 cycles
 SCF Done:  E(RwB97XD) =  -1028.82681551     A.U. after    9 cycles
 SCF Done:  E(RwB97XD) =  -1028.82681547     A.U. after    8 cycles
 SCF Done:  E(RwB97XD) =  -1028.82681568     A.U. after    7 cycles
 Optimization completed.
    -- Stationary point found.
 Normal termination of Gaussian 16 at Wed Oct 28 01:15:28 2020.

 --------------------------------------------------------------------
 #P Geom=AllCheck Guess=TCheck SCRF=Check GenChk RwB97XD/CC-pVDZ Freq
 --------------------------------------------------------------------

 Structure from the checkpoint file:  "config_4_15.chk"
 ------------------------------------------------
 NM 2D-scan of HBT TD-WB97XD pVDZ in CTC Relaxed.
 ------------------------------------------------
 Charge =  0 Multiplicity = 1

                          Input orientation:
 ---------------------------------------------------------------------
 Center     Atomic      Atomic             Coordinates (Angstroms)
 Number     Number       Type             X           Y           Z
 ---------------------------------------------------------------------
      1          6           0        1.565139   -3.265738   -0.000083
      2          6           0        0.997758   -1.994176   -0.000065
      3          6           0        1.764817   -0.817841    0.000008
      4          6           0        3.163200   -0.924922    0.000065
      5          6           0        3.735761   -2.194126    0.000049
      6          6           0        2.948995   -3.356373   -0.000025
      7          1           0        0.937835   -4.157486   -0.000138
      8          1           0        3.782619   -0.027376    0.000124
      9          1           0        4.822916   -2.286266    0.000095
     10          1           0        3.427176   -4.336743   -0.000035
     11          7           0        0.988298    0.338125    0.000020
     12         16           0       -0.701527   -1.608606   -0.000115
     13          6           0       -1.323587    1.106996   -0.000009
     14          6           0       -2.683943    0.775510    0.000044
     15          6           0       -0.905233    2.458243   -0.000024
     16          6           0       -3.656534    1.761834    0.000095
     17          1           0       -2.982760   -0.275341    0.000060
     18          6           0       -1.906921    3.452712    0.000033
     19          6           0       -3.252988    3.102699    0.000090
     20          1           0       -4.713631    1.496219    0.000143
     21          1           0       -1.600198    4.499514    0.000017
     22          1           0       -4.006858    3.892659    0.000126
     23          6           0       -0.296143    0.079384   -0.000037
     24          8           0        0.384087    2.758454   -0.000120
     25          1           0        0.904594    1.871826   -0.000209
 ---------------------------------------------------------------------

 SCF Done:  E(RwB97XD) =  -1028.82681568     A.U. after    1 cycles

 Alpha  occ. eigenvalues --  -89.08631 -19.27285 -14.47316 -10.39411 -10.37220
 Alpha  occ. eigenvalues --  -10.35314 -10.34724 -10.32303 -10.31929 -10.31838
 Alpha  occ. eigenvalues --  -10.31784 -10.31658 -10.31607 -10.31432 -10.30172
 Alpha  occ. eigenvalues --  -10.30168  -8.10762  -6.05605  -6.05245  -6.04815
 Alpha  occ. eigenvalues --   -1.15989  -1.09077  -0.97390  -0.96255  -0.92010
 Alpha  occ. eigenvalues --   -0.88649  -0.85588  -0.84470  -0.82989  -0.75537
 Alpha  occ. eigenvalues --   -0.71542  -0.70666  -0.69412  -0.68096  -0.63342
 Alpha  occ. eigenvalues --   -0.60714  -0.58991  -0.58371  -0.56386  -0.54552
 Alpha  occ. eigenvalues --   -0.54331  -0.53364  -0.52873  -0.50891  -0.50262
 Alpha  occ. eigenvalues --   -0.49359  -0.47275  -0.46062  -0.45453  -0.45077
 Alpha  occ. eigenvalues --   -0.44069  -0.42861  -0.42699  -0.39911  -0.36847
 Alpha  occ. eigenvalues --   -0.36252  -0.32207  -0.31683  -0.29012
 Alpha virt. eigenvalues --   -0.00513   0.04760   0.06762   0.07276   0.07937
 Alpha virt. eigenvalues --    0.11320   0.14585   0.15195   0.17029   0.18030
 Alpha virt. eigenvalues --    0.18979   0.21067   0.21684   0.22608   0.22630

 Mulliken charges:
               1
     1  C    0.016290
     2  C   -0.216303
     3  C    0.229920
     4  C   -0.017450
     5  C    0.003910
     6  C    0.002955
     7  H    0.018627
     8  H    0.020959
     9  H    0.020938
    10  H    0.021838
    11  N   -0.354998
    12  S    0.153782
    13  C   -0.053732
    14  C   -0.029905
    15  C    0.078675
    16  C   -0.007997
    17  H    0.018269
    18  C   -0.002136
    19  C    0.021319
    20  H    0.009046
    21  H    0.015490
    22  H    0.018623
    23  C    0.086624
    24  O   -0.230164
    25  H    0.175418
 Sum of Mulliken charges =  -0.00000

 Dipole moment (field-independent basis, Debye):
    X=             -0.0393    Y=             -2.9201    Z=             -0.0001  Tot=              2.9204
 Quadrupole moment (field-independent basis, Debye-Ang):
   XX=            -82.6935   YY=            -90.5079   ZZ=           -103.9989
   XY=             -7.2996   XZ=             -0.0002   YZ=              0.0004

  Exact polarizability:     274.022     -68.156     254.732      -0.000       0.003      62.853
 Approx polarizability:     261.834     -23.481     241.982       0.000       0.003      82.139

                      1                      2                      3
                      A                      A                      A
 Frequencies --     12.0706                64.5975               130.0267
 Red. masses --      5.4323                 5.9537                 5.6431
 Frc consts  --      0.0005                 0.0146                 0.0562
 IR Inten    --      0.0316                 1.2471                 2.2961

                      4                      5                      6
                      A                      A                      A
 Frequencies --    152.0139               197.2636               244.4235
 Red. masses --      5.0486                 6.0689                 5.5955
 Frc consts  --      0.0687                 0.1391                 0.1970
 IR Inten    --      0.1509                 0.6855                 0.0458

                      7                      8                      9
                      A                      A                      A
 Frequencies --    279.7050               327.7301               329.6297
 Red. masses --      7.4984                 6.2548                 5.1166
 Frc consts  --      0.3456                 0.3958                 0.3276
 IR Inten    --      0.9043                11.1647                 0.0941

                     10                     11                     12
                      A                      A                      A
 Frequencies --    420.4378               436.5845               464.1225
 Red. masses --     10.3082                 3.1037                 3.6042
 Frc consts  --      1.0736                 0.3486                 0.4574
 IR Inten    --      0.0332                 1.7509                 8.1312

                     13                     14                     15
                      A                      A                      A
 Frequencies --    516.9118               525.4070               537.4330
 Red. masses --      8.1470                 5.8142                 3.4645
 Frc consts  --      1.2826                 0.9456                 0.5896
 IR Inten    --      0.7247                16.3406                 3.4541

                     16                     17                     18
                      A                      A                      A
 Frequencies --    558.6334               576.3239               591.2987
 Red. masses --      7.2226                 3.7297                 7.6415
 Frc consts  --      1.3280                 0.7299                 1.5741
 IR Inten    --      4.2275                 0.0426                 3.4393

                     19                     20                     21
                      A                      A                      A
 Frequencies --    647.8429               684.0837               731.1821
 Red. masses --      6.2927                 6.5354                 6.5121
 Frc consts  --      1.5561                 1.8019                 2.0513
 IR Inten    --      0.0042                 5.0258                17.8153

                     22                     23                     24
                      A                      A                      A
 Frequencies --    756.1373               760.4901               767.7626
 Red. masses --      1.9678                10.1519                 3.2508
 Frc consts  --      0.6629                 3.4593                 1.1290
 IR Inten    --     28.7608                19.3990                 1.1832

                     25                     26                     27
                      A                      A                      A
 Frequencies --    774.7718               785.5505               854.3991
 Red. masses --      1.3547                 1.9522                 6.0394
 Frc consts  --      0.4791                 0.7098                 2.5975
 IR Inten    --     58.8321                40.4715                15.2046

                     28                     29                     30
                      A                      A                      A
 Frequencies --    882.1640               886.8565               898.9619
 Red. masses --      1.5634                 1.4101                 6.7060
 Frc consts  --      0.7168                 0.6535                 3.1930
 IR Inten    --      5.3161                 0.3073                 4.5637

                     31                     32                     33
                      A                      A                      A
 Frequencies --    967.2000               975.2640               988.3086
 Red. masses --      1.3628                 1.3630                 1.0704
 Frc consts  --      0.7511                 0.7638                 0.6160
 IR Inten    --      1.9831                 0.3499                74.8767

                     34                     35                     36
                      A                      A                      A
 Frequencies --   1009.1024              1011.0410              1015.4334
 Red. masses --      7.6995                 1.3030                 1.3053
 Frc consts  --      4.6194                 0.7847                 0.7930
 IR Inten    --     46.9241                 1.2183                 0.1260

                     37                     38                     39
                      A                      A                      A
 Frequencies --   1052.1040              1071.3931              1106.6008
 Red. masses --      1.9992                 1.8997                 3.4537
 Frc consts  --      1.3038                 1.2848                 2.4918
 IR Inten    --      9.0924                 7.4153                 5.7272

                     40                     41                     42
                      A                      A                      A
 Frequencies --   1156.1711              1158.2749              1177.6440
 Red. masses --      1.4298                 1.3820                 1.1655
 Frc consts  --      1.1260                 1.0924                 0.9523
 IR Inten    --      8.0545                 3.4274                38.2682

                     43                     44                     45
                      A                      A                      A
 Frequencies --   1184.1840              1265.4409              1286.8945
 Red. masses --      1.2485                 2.0212                 1.8786
 Frc consts  --      1.0315                 1.9070                 1.8330
 IR Inten    --      1.8675                86.9407                37.8836

                     46                     47                     48
                      A                      A                      A
 Frequencies --   1301.5385              1323.0701              1361.0898
 Red. masses --      2.5024                 2.4938                 3.7498
 Frc consts  --      2.4976                 2.5720                 4.0929
 IR Inten    --    152.6977                37.0116                19.4879

                     49                     50                     51
                      A                      A                      A
 Frequencies --   1376.6837              1379.7328              1484.5424
 Red. masses --      5.5776                 5.8948                 2.6829
 Frc consts  --      6.2283                 6.6117                 3.4837
 IR Inten    --     14.9310                 8.3793                20.5573

                     52                     53                     54
                      A                      A                      A
 Frequencies --   1492.7667              1504.1066              1531.7062
 Red. masses --      2.6097                 2.8412                 3.8597
 Frc consts  --      3.4263                 3.7872                 5.3353
 IR Inten    --     27.9941                19.4366               105.7860

                     55                     56                     57
                      A                      A                      A
 Frequencies --   1578.2538              1607.2804              1652.1193
 Red. masses --      6.2765                 2.6534                 6.9464
 Frc consts  --      9.2113                 4.0386                11.1711
 IR Inten    --    286.8171                 6.4248                 7.4509

                     58                     59                     60
                      A                      A                      A
 Frequencies --   1677.3822              1696.0124              1722.0606
 Red. masses --      6.7954                 4.5867                 2.0016
 Frc consts  --     11.2650                 7.7733                 3.4972
 IR Inten    --     31.3501               187.3396               218.9694

                     61                     62                     63
                      A                      A                      A
 Frequencies --   2626.1174              3202.3336              3209.9644
 Red. masses --      1.0834                 1.0879                 1.0892
 Frc consts  --      4.4021                 6.5729                 6.6124
 IR Inten    --   1458.9085                 3.7717                 7.3459

                     64                     65                     66
                      A                      A                      A
 Frequencies --   3210.8046              3221.1816              3228.6601
 Red. masses --      1.0861                 1.0905                 1.0939
 Frc consts  --      6.5969                 6.6665                 6.7186
 IR Inten    --      1.6038                 3.1165                13.4539

                     67                     68                     69
                      A                      A                      A
 Frequencies --   3231.0294              3237.3395              3237.5441
 Red. masses --      1.0959                 1.0993                 1.0997
 Frc consts  --      6.7408                 6.7879                 6.7912
 IR Inten    --      8.8629                27.7790                 3.2379

 - Thermochemistry -
 -------------------
 Temperature   298.150 Kelvin.  Pressure   1.00000 Atm.
 Atom     1 has atomic number  6 and mass  12.00000

 Molecular mass:   227.04049 amu.
 Principal axes and moments of inertia in atomic units:
                           1         2         3
     Eigenvalues --  1279.029926291.047587570.07750
           X           -0.70378   0.71042  -0.00000
           Y            0.71042   0.70378  -0.00001
           Z            0.00001   0.00001   1.00000
 This molecule is an asymmetric top.
 Rotational symmetry number  1.
 Warning -- assumption of classical behavior for rotation
           may cause significant error
 Rotational temperatures (Kelvin)      0.06772     0.01377     0.01144
 Rotational constants (GHZ):           1.41102     0.28687     0.23840
 Zero-point vibrational energy     498323.6 (Joules/Mol)
                                  119.10219 (Kcal/Mol)
 Warning -- explicit consideration of  18 degrees of freedom as
           vibrations may cause significant error
 Vibrational temperatures:     17.37    92.94   187.08   218.71   283.82
          (Kelvin)            351.67   402.43   471.53   474.26   604.92
                              628.15   667.77   743.72   755.94   773.25
                              803.75   829.20   850.75   932.10   984.24
                             1052.01  1087.91  1094.18  1104.64  1114.72
                             1130.23  1229.29  1269.24  1275.99  1293.41
                             1391.59  1403.19  1421.96  1451.87  1454.66
                             1460.98  1513.74  1541.50  1592.15  1663.47
                             1666.50  1694.37  1703.78  1820.69  1851.55
                             1872.62  1903.60  1958.30  1980.74  1985.13
                             2135.93  2147.76  2164.07  2203.78  2270.76
                             2312.52  2377.03  2413.38  2440.18  2477.66
                             3778.40  4607.44  4618.42  4619.63  4634.56
                             4645.32  4648.73  4657.81  4658.10

 Zero-point correction=                           0.189801 (Hartree/Particle)
 Thermal correction to Energy=                    0.201425
 Thermal correction to Enthalpy=                  0.202369
 Thermal correction to Gibbs Free Energy=         0.150151
 Sum of electronic and zero-point Energies=          -1028.637014
 Sum of electronic and thermal Energies=             -1028.625391
 Sum of electronic and thermal Enthalpies=           -1028.624447
 Sum of electronic and thermal Free Energies=        -1028.676665

                     E (Thermal)             CV                S
                      KCal/Mol        Cal/Mol-Kelvin    Cal/Mol-Kelvin
 Total                  126.396             47.094            109.903
 Electronic               0.000              0.000              0.000
 Translational            0.889              2.981             42.162
 Rotational               0.889              2.981             32.477
 Vibrational            124.619             41.133             35.264
 Vibration     1          0.593              1.987              7.637
 Vibration     2          0.597              1.971              4.312
 Vibration     3          0.612              1.923              2.946
 Vibration     4          0.619              1.900              2.647
 Vibration     5          0.637              1.844              2.158
 Vibration     6          0.660              1.772              1.770
 Vibration     7          0.680              1.711              1.535
 Vibration     8          0.711              1.620              1.271
 Vibration     9          0.712              1.616              1.262
 Vibration    10          0.783              1.426              0.890
 Vibration    11          0.797              1.390              0.837
 Vibration    12          0.822              1.330              0.754
 Vibration    13          0.872              1.213              0.617
 Vibration    14          0.880              1.194              0.598
 Vibration    15          0.892              1.167              0.571
 Vibration    16          0.914              1.121              0.527
 Vibration    17          0.933              1.082              0.492
 Vibration    18          0.949              1.050              0.465

 Optimization completed.
    -- Stationary point found.
 Normal termination of Gaussian 16 at Wed Oct 28 01:23:57 2020.
