 Gaussian 16, Revision C.01,
 Gaussian 16:  ES64L-G16RevC.01  3-Jul-2019

 ----------------------------------------------------------------------
 #p opt=addgic freq wb97xd/cc-pvdz nosymm int=ultrafine scrf=(solvent=C
 arbonTetraChloride)
 ----------------------------------------------------------------------

 ------------------------------------------------
 NM 2D-scan of HBT TD-WB97XD pVDZ in CTC Relaxed.
 ------------------------------------------------
 Symbolic Z-matrix:
 Charge =  0 Multiplicity = 1

 SCF Done:  E(RwB97XD) =  -1028.79887955     A.U. after   16 cycles
 SCF Done:  E(RwB97XD) =  -1028.80582414     A.U. after   14 cycles
 SCF Done:  E(RwB97XD) =  -1028.80634577     A.U. after   12 cycles
 SCF Done:  E(RwB97XD) =  -1028.80640013     A.U. after   11 cycles
 SCF Done:  E(RwB97XD) =  -1028.80640867     A.U. after   10 cycles
 SCF Done:  E(RwB97XD) =  -1028.80641286     A.U. after   10 cycles
 SCF Done:  E(RwB97XD) =  -1028.80641909     A.U. after   10 cycles
 Optimization completed.
    -- Stationary point found.
 Normal termination of Gaussian 16 at Wed Oct 28 01:46:41 2020.

 --------------------------------------------------------------------
 #P Geom=AllCheck Guess=TCheck SCRF=Check GenChk RwB97XD/CC-pVDZ Freq
 --------------------------------------------------------------------

 Structure from the checkpoint file:  "config_7_18.chk"
 ------------------------------------------------
 NM 2D-scan of HBT TD-WB97XD pVDZ in CTC Relaxed.
 ------------------------------------------------
 Charge =  0 Multiplicity = 1

                          Input orientation:
 ---------------------------------------------------------------------
 Center     Atomic      Atomic             Coordinates (Angstroms)
 Number     Number       Type             X           Y           Z
 ---------------------------------------------------------------------
      1          6           0        1.513088   -3.240924    0.000001
      2          6           0        0.999002   -1.949392   -0.000021
      3          6           0        1.797073   -0.789392   -0.000043
      4          6           0        3.188957   -0.953910   -0.000055
      5          6           0        3.711844   -2.249383   -0.000031
      6          6           0        2.891654   -3.386467   -0.000001
      7          1           0        0.845621   -4.103189    0.000019
      8          1           0        3.851015   -0.087522   -0.000077
      9          1           0        4.795468   -2.376142   -0.000035
     10          1           0        3.335956   -4.382409    0.000018
     11          7           0        1.015205    0.382850   -0.000053
     12         16           0       -0.692334   -1.554028   -0.000029
     13          6           0       -1.303478    1.110917    0.000035
     14          6           0       -2.663873    0.729001    0.000023
     15          6           0       -0.880995    2.477411    0.000084
     16          6           0       -3.652156    1.677681    0.000011
     17          1           0       -2.931562   -0.330455    0.000008
     18          6           0       -1.945409    3.440171    0.000061
     19          6           0       -3.267491    3.040708    0.000018
     20          1           0       -4.704442    1.394519   -0.000007
     21          1           0       -1.681842    4.499152    0.000092
     22          1           0       -4.047014    3.806591    0.000004
     23          6           0       -0.288725    0.122945   -0.000010
     24          8           0        0.374395    2.765794    0.000191
     25          1           0        1.058968    1.553778   -0.000094
 ---------------------------------------------------------------------

 SCF Done:  E(RwB97XD) =  -1028.80641909     A.U. after    1 cycles

 Alpha  occ. eigenvalues --  -89.09351 -19.23073 -14.50679 -10.40426 -10.37155
 Alpha  occ. eigenvalues --  -10.36359 -10.35520 -10.32868 -10.32797 -10.32264
 Alpha  occ. eigenvalues --  -10.32134 -10.31389 -10.31070 -10.30495 -10.29473
 Alpha  occ. eigenvalues --  -10.29236  -8.11530  -6.06380  -6.06014  -6.05560
 Alpha  occ. eigenvalues --   -1.12677  -1.09638  -0.98178  -0.95849  -0.93104
 Alpha  occ. eigenvalues --   -0.89031  -0.86496  -0.83731  -0.82500  -0.75625
 Alpha  occ. eigenvalues --   -0.72036  -0.71629  -0.68706  -0.67714  -0.64017
 Alpha  occ. eigenvalues --   -0.60945  -0.59615  -0.57221  -0.55676  -0.55351
 Alpha  occ. eigenvalues --   -0.54772  -0.53766  -0.52823  -0.50644  -0.49641
 Alpha  occ. eigenvalues --   -0.49339  -0.47603  -0.46631  -0.45388  -0.44963
 Alpha  occ. eigenvalues --   -0.44491  -0.43137  -0.41911  -0.40599  -0.36547
 Alpha  occ. eigenvalues --   -0.33715  -0.33138  -0.31534  -0.27361
 Alpha virt. eigenvalues --   -0.01014   0.04110   0.05960   0.07373   0.08496
 Alpha virt. eigenvalues --    0.11073   0.14690   0.14978   0.16946   0.17749
 Alpha virt. eigenvalues --    0.19007   0.20528   0.21164   0.21710   0.22926

 Mulliken charges:
               1
     1  C    0.021717
     2  C   -0.218683
     3  C    0.257691
     4  C   -0.015929
     5  C    0.004807
     6  C    0.006216
     7  H    0.022996
     8  H    0.029043
     9  H    0.025401
    10  H    0.025019
    11  N   -0.258147
    12  S    0.180283
    13  C   -0.087603
    14  C   -0.026921
    15  C    0.121842
    16  C   -0.021874
    17  H    0.018521
    18  C   -0.020345
    19  C    0.024055
    20  H    0.003929
    21  H    0.006735
    22  H    0.015448
    23  C    0.074807
    24  O   -0.405830
    25  H    0.216821
 Sum of Mulliken charges =  -0.00000

 Dipole moment (field-independent basis, Debye):
    X=              0.9685    Y=             -4.7948    Z=             -0.0005  Tot=              4.8917
 Quadrupole moment (field-independent basis, Debye-Ang):
   XX=            -82.2474   YY=            -94.0478   ZZ=           -103.9583
   XY=             -7.0395   XZ=             -0.0004   YZ=             -0.0012

  Exact polarizability:     280.525     -78.943     271.310      -0.001       0.002      62.780
 Approx polarizability:     264.040     -28.039     251.605       0.000       0.002      82.038

 ******    1 imaginary frequencies (negative Signs) ******

                      1                      2                      3
                      A                      A                      A
 Frequencies --  -1147.8412                56.1396                59.8155
 Red. masses --      1.1485                 5.6931                 5.0042
 Frc consts  --      0.8916                 0.0106                 0.0105
 IR Inten    --    926.2529                 0.9576                 0.4498

                      4                      5                      6
                      A                      A                      A
 Frequencies --    150.7603               155.3989               202.1773
 Red. masses --      5.1100                 5.5853                 6.3728
 Frc consts  --      0.0684                 0.0795                 0.1535
 IR Inten    --      1.2439                 0.5761                 0.0927

                      7                      8                      9
                      A                      A                      A
 Frequencies --    243.8665               292.8661               319.6010
 Red. masses --      6.1625                 7.2301                 5.3086
 Frc consts  --      0.2159                 0.3654                 0.3195
 IR Inten    --      0.5557                 4.1984                 0.2229

                     10                     11                     12
                      A                      A                      A
 Frequencies --    381.2450               430.0893               432.2379
 Red. masses --      6.2013                11.2918                 3.1327
 Frc consts  --      0.5311                 1.2306                 0.3448
 IR Inten    --      0.0561                 1.0539                 0.3683

                     13                     14                     15
                      A                      A                      A
 Frequencies --    456.8538               517.2940               533.5152
 Red. masses --      3.5285                 8.7836                 3.0378
 Frc consts  --      0.4339                 1.3848                 0.5095
 IR Inten    --     10.4589                 7.5455                 4.0803

                     16                     17                     18
                      A                      A                      A
 Frequencies --    554.1611               567.9435               572.3084
 Red. masses --      8.8396                 3.7647                 7.0335
 Frc consts  --      1.5994                 0.7155                 1.3573
 IR Inten    --      7.8447                 0.1044                 8.3725

                     19                     20                     21
                      A                      A                      A
 Frequencies --    606.7405               647.0576               692.4125
 Red. masses --      7.2734                 6.3847                 6.1910
 Frc consts  --      1.5776                 1.5750                 1.7488
 IR Inten    --     16.4662                 0.0099                 2.2868

                     22                     23                     24
                      A                      A                      A
 Frequencies --    741.3297               752.6692               763.9277
 Red. masses --      6.5415                 2.4774                 1.4319
 Frc consts  --      2.1181                 0.8269                 0.4923
 IR Inten    --     14.7291                16.3849                51.1537

                     25                     26                     27
                      A                      A                      A
 Frequencies --    766.5895               776.1139               779.0054
 Red. masses --      7.7974                 2.4561                 1.7632
 Frc consts  --      2.6998                 0.8717                 0.6304
 IR Inten    --     56.9987                 0.3615                58.7852

                     28                     29                     30
                      A                      A                      A
 Frequencies --    857.9801               876.2886               885.3086
 Red. masses --      6.4624                 1.7612                 1.3774
 Frc consts  --      2.8028                 0.7968                 0.6360
 IR Inten    --     13.5686                 9.6384                 0.5241

                     31                     32                     33
                      A                      A                      A
 Frequencies --    923.0161               962.1741               972.5763
 Red. masses --      6.7900                 1.3430                 1.3633
 Frc consts  --      3.4083                 0.7325                 0.7598
 IR Inten    --      2.4743                 0.4228                 1.8932

                     34                     35                     36
                      A                      A                      A
 Frequencies --   1014.5602              1014.8435              1018.6933
 Red. masses --      1.3082                 1.3060                 7.5482
 Frc consts  --      0.7934                 0.7925                 4.6151
 IR Inten    --      0.3045                 0.0004                 6.2775

                     37                     38                     39
                      A                      A                      A
 Frequencies --   1053.3338              1056.1849              1114.1535
 Red. masses --      2.0606                 1.9461                 2.9806
 Frc consts  --      1.3470                 1.2791                 2.1800
 IR Inten    --     11.4311                 6.0040                 0.9865

                     40                     41                     42
                      A                      A                      A
 Frequencies --   1140.2422              1165.4521              1167.1540
 Red. masses --      1.0601                 1.2932                 1.4033
 Frc consts  --      0.8120                 1.0349                 1.1263
 IR Inten    --     76.3251                22.9136                 9.4134

                     43                     44                     45
                      A                      A                      A
 Frequencies --   1180.8591              1192.1279              1260.4039
 Red. masses --      1.2268                 1.3287                 2.1476
 Frc consts  --      1.0079                 1.1126                 2.0101
 IR Inten    --     32.2114                16.3686                41.8698

                     46                     47                     48
                      A                      A                      A
 Frequencies --   1293.0907              1319.1471              1334.0777
 Red. masses --      1.5557                 3.4137                 2.6214
 Frc consts  --      1.5326                 3.4999                 2.7488
 IR Inten    --      0.6189               130.1301               255.9969

                     49                     50                     51
                      A                      A                      A
 Frequencies --   1365.6317              1398.6522              1413.1756
 Red. masses --      6.2831                 2.4252                 7.4897
 Frc consts  --      6.9039                 2.7952                 8.8126
 IR Inten    --     36.4731                 2.5319                94.1241

                     52                     53                     54
                      A                      A                      A
 Frequencies --   1489.7726              1499.8682              1507.4991
 Red. masses --      2.5997                 2.7193                 2.9595
 Frc consts  --      3.3995                 3.6042                 3.9626
 IR Inten    --     28.9126                 2.8809                33.0673

                     55                     56                     57
                      A                      A                      A
 Frequencies --   1570.4893              1584.4165              1617.6066
 Red. masses --      4.5921                 6.7508                 6.9090
 Frc consts  --      6.6732                 9.9849                10.6515
 IR Inten    --    928.1919               941.3047                88.6291

                     58                     59                     60
                      A                      A                      A
 Frequencies --   1651.0966              1678.5019              1706.1756
 Red. masses --      6.8160                 6.7505                 6.3748
 Frc consts  --     10.9477                11.2055                10.9337
 IR Inten    --      0.8236                 2.9876               270.5362

                     61                     62                     63
                      A                      A                      A
 Frequencies --   2050.3597              3195.9535              3200.2804
 Red. masses --      1.1030                 1.0869                 1.0895
 Frc consts  --      2.7319                 6.5411                 6.5744
 IR Inten    --    357.9755                 1.5133                15.2361

                     64                     65                     66
                      A                      A                      A
 Frequencies --   3211.8656              3221.2722              3222.9031
 Red. masses --      1.0863                 1.0907                 1.0945
 Frc consts  --      6.6026                 6.6683                 6.6981
 IR Inten    --      1.3698                 2.4413                23.8227

                     67                     68                     69
                      A                      A                      A
 Frequencies --   3230.7974              3236.8480              3237.8891
 Red. masses --      1.0958                 1.0981                 1.1000
 Frc consts  --      6.7393                 6.7785                 6.7947
 IR Inten    --      5.6144                16.1793                11.6428

 - Thermochemistry -
 -------------------
 Temperature   298.150 Kelvin.  Pressure   1.00000 Atm.
 Atom     1 has atomic number  6 and mass  12.00000

 Molecular mass:   227.04049 amu.
 Principal axes and moments of inertia in atomic units:
                           1         2         3
     Eigenvalues --  1273.061586233.884417506.94599
           X           -0.70598   0.70823  -0.00001
           Y            0.70823   0.70598  -0.00002
           Z            0.00001   0.00002   1.00000
 This molecule is an asymmetric top.
 Rotational symmetry number  1.
 Warning -- assumption of classical behavior for rotation
           may cause significant error
 Rotational temperatures (Kelvin)      0.06804     0.01389     0.01154
 Rotational constants (GHZ):           1.41764     0.28951     0.24041
    1 imaginary frequencies ignored.
 Zero-point vibrational energy     487746.5 (Joules/Mol)
                                  116.57420 (Kcal/Mol)
 Warning -- explicit consideration of  18 degrees of freedom as
           vibrations may cause significant error
 Vibrational temperatures:     80.77    86.06   216.91   223.58   290.89
          (Kelvin)            350.87   421.37   459.83   548.53   618.80
                              621.89   657.31   744.27   767.61   797.31
                              817.14   823.42   872.96   930.97   996.23
                             1066.61  1082.92  1099.12  1102.95  1116.65
                             1120.82  1234.44  1260.78  1273.76  1328.01
                             1384.35  1399.32  1459.73  1460.13  1465.67
                             1515.51  1519.61  1603.02  1640.55  1676.83
                             1679.27  1698.99  1715.21  1813.44  1860.47
                             1897.96  1919.44  1964.84  2012.35  2033.24
                             2143.45  2157.98  2168.95  2259.58  2279.62
                             2327.38  2375.56  2414.99  2454.81  2950.01
                             4598.26  4604.49  4621.16  4634.69  4637.04
                             4648.40  4657.10  4658.60

 Zero-point correction=                           0.185773 (Hartree/Particle)
 Thermal correction to Energy=                    0.197137
 Thermal correction to Enthalpy=                  0.198081
 Thermal correction to Gibbs Free Energy=         0.147634
 Sum of electronic and zero-point Energies=          -1028.620646
 Sum of electronic and thermal Energies=             -1028.609282
 Sum of electronic and thermal Enthalpies=           -1028.608338
 Sum of electronic and thermal Free Energies=        -1028.658785

                     E (Thermal)             CV                S
                      KCal/Mol        Cal/Mol-Kelvin    Cal/Mol-Kelvin
 Total                  123.705             46.556            106.175
 Electronic               0.000              0.000              0.000
 Translational            0.889              2.981             42.162
 Rotational               0.889              2.981             32.455
 Vibrational            121.928             40.595             31.558
 Vibration     1          0.596              1.975              4.588
 Vibration     2          0.597              1.973              4.463
 Vibration     3          0.618              1.902              2.663
 Vibration     4          0.620              1.897              2.605
 Vibration     5          0.639              1.837              2.113
 Vibration     6          0.659              1.773              1.774
 Vibration     7          0.688              1.687              1.457
 Vibration     8          0.706              1.636              1.312
 Vibration     9          0.751              1.510              1.034
 Vibration    10          0.791              1.405              0.858
 Vibration    11          0.793              1.400              0.851
 Vibration    12          0.815              1.346              0.775
 Vibration    13          0.872              1.212              0.616
 Vibration    14          0.888              1.176              0.579
 Vibration    15          0.910              1.131              0.536
 Vibration    16          0.924              1.101              0.508
 Vibration    17          0.929              1.091              0.500
 Vibration    18          0.965              1.018              0.438

 Optimization completed.
    -- Stationary point found.
 Normal termination of Gaussian 16 at Wed Oct 28 01:52:40 2020.
