 Gaussian 16, Revision C.01,
 Gaussian 16:  ES64L-G16RevC.01  3-Jul-2019

 ----------------------------------------------------------------------
 #p opt=addgic freq wb97xd/cc-pvdz nosymm int=ultrafine scrf=(solvent=C
 arbonTetraChloride)
 ----------------------------------------------------------------------

 ------------------------------------------------
 NM 2D-scan of HBT TD-WB97XD pVDZ in CTC Relaxed.
 ------------------------------------------------
 Symbolic Z-matrix:
 Charge =  0 Multiplicity = 1

 SCF Done:  E(RwB97XD) =  -1028.80423017     A.U. after   15 cycles
 SCF Done:  E(RwB97XD) =  -1028.81342448     A.U. after   13 cycles
 SCF Done:  E(RwB97XD) =  -1028.81413364     A.U. after   13 cycles
 SCF Done:  E(RwB97XD) =  -1028.81464643     A.U. after   12 cycles
 SCF Done:  E(RwB97XD) =  -1028.81522387     A.U. after   12 cycles
 SCF Done:  E(RwB97XD) =  -1028.81524520     A.U. after   10 cycles
 SCF Done:  E(RwB97XD) =  -1028.81519271     A.U. after   11 cycles
 SCF Done:  E(RwB97XD) =  -1028.81524584     A.U. after   10 cycles
 SCF Done:  E(RwB97XD) =  -1028.81524953     A.U. after    9 cycles
 Optimization completed.
    -- Stationary point found.
 Normal termination of Gaussian 16 at Wed Oct 28 02:39:33 2020.

 --------------------------------------------------------------------
 #P Geom=AllCheck Guess=TCheck SCRF=Check GenChk RwB97XD/CC-pVDZ Freq
 --------------------------------------------------------------------

 Structure from the checkpoint file:  "config_5_19.chk"
 ------------------------------------------------
 NM 2D-scan of HBT TD-WB97XD pVDZ in CTC Relaxed.
 ------------------------------------------------
 Charge =  0 Multiplicity = 1

                          Input orientation:
 ---------------------------------------------------------------------
 Center     Atomic      Atomic             Coordinates (Angstroms)
 Number     Number       Type             X           Y           Z
 ---------------------------------------------------------------------
      1          6           0        1.505286   -3.235421   -0.000204
      2          6           0        1.014477   -1.936216   -0.000140
      3          6           0        1.815995   -0.784931    0.000032
      4          6           0        3.209311   -0.972845    0.000126
      5          6           0        3.713256   -2.277415    0.000062
      6          6           0        2.878491   -3.404415   -0.000096
      7          1           0        0.821058   -4.084350   -0.000319
      8          1           0        3.887979   -0.119061    0.000256
      9          1           0        4.795115   -2.419648    0.000146
     10          1           0        3.307991   -4.406865   -0.000129
     11          7           0        1.034598    0.385415    0.000119
     12         16           0       -0.670241   -1.532133   -0.000199
     13          6           0       -1.306189    1.119799    0.000087
     14          6           0       -2.646859    0.728088    0.000205
     15          6           0       -0.906702    2.472126   -0.000038
     16          6           0       -3.656203    1.675279    0.000170
     17          1           0       -2.905518   -0.332790    0.000343
     18          6           0       -1.956052    3.431136   -0.000098
     19          6           0       -3.292006    3.027207   -0.000001
     20          1           0       -4.703501    1.373380    0.000268
     21          1           0       -1.702941    4.492469   -0.000231
     22          1           0       -4.072713    3.791114   -0.000053
     23          6           0       -0.256089    0.127103    0.000039
     24          8           0        0.381155    2.737318   -0.000138
     25          1           0        0.918316    1.798968   -0.000096
 ---------------------------------------------------------------------

 SCF Done:  E(RwB97XD) =  -1028.81524953     A.U. after    1 cycles

 Alpha  occ. eigenvalues --  -89.08589 -19.26364 -14.47941 -10.39448 -10.37057
 Alpha  occ. eigenvalues --  -10.35874 -10.34685 -10.32320 -10.32313 -10.31831
 Alpha  occ. eigenvalues --  -10.31739 -10.31684 -10.31419 -10.31335 -10.30182
 Alpha  occ. eigenvalues --  -10.30049  -8.10831  -6.05664  -6.05299  -6.04883
 Alpha  occ. eigenvalues --   -1.15220  -1.09222  -0.97557  -0.96316  -0.92453
 Alpha  occ. eigenvalues --   -0.88717  -0.85884  -0.84268  -0.82992  -0.75576
 Alpha  occ. eigenvalues --   -0.71684  -0.70925  -0.69306  -0.67832  -0.63501
 Alpha  occ. eigenvalues --   -0.60880  -0.59219  -0.58236  -0.56316  -0.54627
 Alpha  occ. eigenvalues --   -0.54587  -0.53591  -0.52879  -0.50913  -0.50096
 Alpha  occ. eigenvalues --   -0.49279  -0.46804  -0.46262  -0.45425  -0.45166
 Alpha  occ. eigenvalues --   -0.44251  -0.42793  -0.42692  -0.40084  -0.36302
 Alpha  occ. eigenvalues --   -0.36284  -0.32361  -0.31631  -0.28820
 Alpha virt. eigenvalues --   -0.00590   0.04635   0.06553   0.07464   0.08102
 Alpha virt. eigenvalues --    0.11197   0.14840   0.15196   0.17528   0.17992
 Alpha virt. eigenvalues --    0.19115   0.21030   0.21666   0.22395   0.22672

 Mulliken charges:
               1
     1  C    0.021868
     2  C   -0.214269
     3  C    0.234735
     4  C   -0.021589
     5  C    0.001622
     6  C    0.005885
     7  H    0.019344
     8  H    0.024355
     9  H    0.022392
    10  H    0.022491
    11  N   -0.351294
    12  S    0.161584
    13  C   -0.052869
    14  C   -0.035415
    15  C    0.097036
    16  C   -0.010402
    17  H    0.022614
    18  C   -0.015571
    19  C    0.021732
    20  H    0.007962
    21  H    0.014171
    22  H    0.018401
    23  C    0.085817
    24  O   -0.272586
    25  H    0.191988
 Sum of Mulliken charges =  -0.00000

 Dipole moment (field-independent basis, Debye):
    X=              0.0567    Y=             -3.4581    Z=             -0.0000  Tot=              3.4586
 Quadrupole moment (field-independent basis, Debye-Ang):
   XX=            -82.5844   YY=            -91.2648   ZZ=           -103.9137
   XY=             -7.3386   XZ=              0.0001   YZ=              0.0003

  Exact polarizability:     274.237     -69.867     255.282       0.001       0.002      62.786
 Approx polarizability:     261.724     -24.057     242.403       0.003       0.002      82.140

 ******    1 imaginary frequencies (negative Signs) ******

                      1                      2                      3
                      A                      A                      A
 Frequencies --    -47.3234                65.5827               123.6004
 Red. masses --      5.3556                 6.1731                 5.5067
 Frc consts  --      0.0071                 0.0156                 0.0496
 IR Inten    --      0.0359                 1.1604                10.6564

                      4                      5                      6
                      A                      A                      A
 Frequencies --    150.6508               197.3965               242.6899
 Red. masses --      5.0214                 6.2509                 5.4982
 Frc consts  --      0.0671                 0.1435                 0.1908
 IR Inten    --      0.4324                 0.5381                 0.0813

                      7                      8                      9
                      A                      A                      A
 Frequencies --    278.0597               325.1443               329.8944
 Red. masses --      7.1190                 5.5798                 5.1236
 Frc consts  --      0.3243                 0.3476                 0.3285
 IR Inten    --      3.2419                42.3505                 0.0400

                     10                     11                     12
                      A                      A                      A
 Frequencies --    432.6489               434.9256               460.9598
 Red. masses --     10.7602                 3.0774                 3.5203
 Frc consts  --      1.1867                 0.3430                 0.4407
 IR Inten    --      0.1820                 1.2998                 8.6331

                     13                     14                     15
                      A                      A                      A
 Frequencies --    500.5778               522.3371               536.3938
 Red. masses --      5.4404                 8.0155                 3.4282
 Frc consts  --      0.8032                 1.2885                 0.5811
 IR Inten    --     47.4930                12.2424                 3.3650

                     16                     17                     18
                      A                      A                      A
 Frequencies --    567.8646               576.7565               587.5251
 Red. masses --      7.0715                 3.7352                 7.6033
 Frc consts  --      1.3435                 0.7321                 1.5463
 IR Inten    --      9.1317                 0.0684                 1.4408

                     19                     20                     21
                      A                      A                      A
 Frequencies --    648.0934               685.9799               740.7280
 Red. masses --      6.3811                 6.5223                 6.4458
 Frc consts  --      1.5791                 1.8083                 2.0837
 IR Inten    --      0.0090                 6.2261                21.7849

                     22                     23                     24
                      A                      A                      A
 Frequencies --    756.2964               768.7495               772.1092
 Red. masses --      2.0734                 2.6042                 1.5247
 Frc consts  --      0.6987                 0.9068                 0.5356
 IR Inten    --     27.2574                 7.7846                48.1084

                     25                     26                     27
                      A                      A                      A
 Frequencies --    780.0632               783.9105               858.2666
 Red. masses --      9.0825                 1.8816                 6.0499
 Frc consts  --      3.2562                 0.6813                 2.6257
 IR Inten    --     28.2557                46.8885                11.5895

                     28                     29                     30
                      A                      A                      A
 Frequencies --    878.7106               886.3330               898.7794
 Red. masses --      1.5820                 1.3966                 6.8250
 Frc consts  --      0.7197                 0.6464                 3.2483
 IR Inten    --      5.9992                 0.4105                21.1374

                     31                     32                     33
                      A                      A                      A
 Frequencies --    962.5056               974.8422              1010.3452
 Red. masses --      1.3678                 1.3658                 1.3049
 Frc consts  --      0.7466                 0.7647                 0.7848
 IR Inten    --      1.1237                 1.4964                 0.2278

                     34                     35                     36
                      A                      A                      A
 Frequencies --   1015.6370              1021.5402              1052.6035
 Red. masses --      1.3059                 7.6564                 2.0290
 Frc consts  --      0.7937                 4.7075                 1.3245
 IR Inten    --      0.0015                44.8760                11.6469

                     37                     38                     39
                      A                      A                      A
 Frequencies --   1066.0220              1098.3429              1111.2035
 Red. masses --      1.8459                 1.0577                 3.1281
 Frc consts  --      1.2360                 0.7518                 2.2757
 IR Inten    --      6.3903                72.5579                 5.5586

                     40                     41                     42
                      A                      A                      A
 Frequencies --   1156.6855              1163.9774              1172.4590
 Red. masses --      1.4336                 1.4010                 1.1990
 Frc consts  --      1.1301                 1.1183                 0.9711
 IR Inten    --     20.4893                 1.8944                22.5786

                     43                     44                     45
                      A                      A                      A
 Frequencies --   1185.2304              1251.7101              1263.6621
 Red. masses --      1.3100                 3.0745                 1.9601
 Frc consts  --      1.0842                 2.8382                 1.8441
 IR Inten    --      5.4979               147.0359               174.1945

                     46                     47                     48
                      A                      A                      A
 Frequencies --   1291.7627              1311.0473              1354.6346
 Red. masses --      1.5083                 3.4168                 3.5152
 Frc consts  --      1.4829                 3.4603                 3.8005
 IR Inten    --     17.7297               164.1152                25.1650

                     49                     50                     51
                      A                      A                      A
 Frequencies --   1373.4362              1381.7546              1475.1629
 Red. masses --      3.3621                 6.8258                 3.2953
 Frc consts  --      3.7366                 7.6783                 4.2250
 IR Inten    --     11.4852                12.3453                37.4536

                     52                     53                     54
                      A                      A                      A
 Frequencies --   1482.4195              1493.5048              1510.4359
 Red. masses --      2.3634                 2.6712                 3.2467
 Frc consts  --      3.0600                 3.5105                 4.3641
 IR Inten    --     93.8118                14.5450                27.8820

                     55                     56                     57
                      A                      A                      A
 Frequencies --   1573.0022              1625.4111              1652.2405
 Red. masses --      5.9208                 4.2598                 6.7361
 Frc consts  --      8.6315                 6.6307                10.8344
 IR Inten    --    266.5879                20.9678                90.6383

                     58                     59                     60
                      A                      A                      A
 Frequencies --   1670.4869              1694.0736              1772.5690
 Red. masses --      6.1037                 6.8126                 1.6259
 Frc consts  --     10.0353                11.5194                 3.0100
 IR Inten    --    274.0518               264.2219               935.6277

                     61                     62                     63
                      A                      A                      A
 Frequencies --   1877.4538              3201.0995              3206.8521
 Red. masses --      1.1747                 1.0880                 1.0895
 Frc consts  --      2.4395                 6.5685                 6.6014
 IR Inten    --    849.5539                 2.5806                 8.7097

                     64                     65                     66
                      A                      A                      A
 Frequencies --   3210.0550              3219.5201              3225.0965
 Red. masses --      1.0862                 1.0906                 1.0938
 Frc consts  --      6.5946                 6.6602                 6.7033
 IR Inten    --      1.4909                 2.0243                16.7662

                     67                     68                     69
                      A                      A                      A
 Frequencies --   3228.7668              3236.6515              3237.3779
 Red. masses --      1.0957                 1.1002                 1.0986
 Frc consts  --      6.7303                 6.7904                 6.7841
 IR Inten    --      8.4289                18.2315                12.2707

 - Thermochemistry -
 -------------------
 Temperature   298.150 Kelvin.  Pressure   1.00000 Atm.
 Atom     1 has atomic number  6 and mass  12.00000

 Molecular mass:   227.04049 amu.
 Principal axes and moments of inertia in atomic units:
                           1         2         3
     Eigenvalues --  1255.438046251.517517506.95552
           X            0.70770   0.70652  -0.00001
           Y           -0.70652   0.70770  -0.00002
           Z           -0.00001   0.00002   1.00000
 This molecule is an asymmetric top.
 Rotational symmetry number  1.
 Warning -- assumption of classical behavior for rotation
           may cause significant error
 Rotational temperatures (Kelvin)      0.06899     0.01385     0.01154
 Rotational constants (GHZ):           1.43754     0.28869     0.24041
    1 imaginary frequencies ignored.
 Zero-point vibrational energy     494073.3 (Joules/Mol)
                                  118.08636 (Kcal/Mol)
 Warning -- explicit consideration of  17 degrees of freedom as
           vibrations may cause significant error
 Vibrational temperatures:     94.36   177.83   216.75   284.01   349.18
          (Kelvin)            400.07   467.81   474.64   622.49   625.76
                              663.22   720.22   751.53   771.75   817.03
                              829.82   845.32   932.46   986.97  1065.74
                             1088.14  1106.06  1110.89  1122.34  1127.87
                             1234.85  1264.27  1275.24  1293.14  1384.83
                             1402.58  1453.66  1461.28  1469.77  1514.46
                             1533.77  1580.27  1598.77  1664.21  1674.70
                             1686.91  1705.28  1800.93  1818.13  1858.56
                             1886.30  1949.02  1976.07  1988.04  2122.43
                             2132.87  2148.82  2173.18  2263.20  2338.60
                             2377.21  2403.46  2437.39  2550.33  2701.24
                             4605.67  4613.94  4618.55  4632.17  4640.19
                             4645.48  4656.82  4657.86

 Zero-point correction=                           0.188183 (Hartree/Particle)
 Thermal correction to Energy=                    0.198893
 Thermal correction to Enthalpy=                  0.199837
 Thermal correction to Gibbs Free Energy=         0.151228
 Sum of electronic and zero-point Energies=          -1028.627067
 Sum of electronic and thermal Energies=             -1028.616357
 Sum of electronic and thermal Enthalpies=           -1028.615412
 Sum of electronic and thermal Free Energies=        -1028.664022

                     E (Thermal)             CV                S
                      KCal/Mol        Cal/Mol-Kelvin    Cal/Mol-Kelvin
 Total                  124.807             45.033            102.308
 Electronic               0.000              0.000              0.000
 Translational            0.889              2.981             42.162
 Rotational               0.889              2.981             32.444
 Vibrational            123.030             39.072             27.702
 Vibration     1          0.597              1.971              4.282
 Vibration     2          0.610              1.929              3.043
 Vibration     3          0.618              1.902              2.664
 Vibration     4          0.637              1.844              2.157
 Vibration     5          0.659              1.775              1.783
 Vibration     6          0.679              1.714              1.546
 Vibration     7          0.709              1.625              1.284
 Vibration     8          0.713              1.616              1.261
 Vibration     9          0.794              1.399              0.850
 Vibration    10          0.796              1.394              0.843
 Vibration    11          0.819              1.337              0.763
 Vibration    12          0.856              1.249              0.657
 Vibration    13          0.877              1.201              0.605
 Vibration    14          0.891              1.170              0.573
 Vibration    15          0.924              1.101              0.508
 Vibration    16          0.933              1.082              0.491
 Vibration    17          0.945              1.058              0.472

 Optimization completed.
    -- Stationary point found.
 Normal termination of Gaussian 16 at Wed Oct 28 02:46:06 2020.
