 Gaussian 16, Revision C.01,
 Gaussian 16:  ES64L-G16RevC.01  3-Jul-2019

 ----------------------------------------------------------------------
 #p opt=addgic freq wb97xd/cc-pvdz nosymm int=ultrafine scrf=(solvent=C
 arbonTetraChloride)
 ----------------------------------------------------------------------

 ------------------------------------------------
 NM 2D-scan of HBT TD-WB97XD pVDZ in CTC Relaxed.
 ------------------------------------------------
 Symbolic Z-matrix:
 Charge =  0 Multiplicity = 1

 SCF Done:  E(RwB97XD) =  -1028.81437168     A.U. after   15 cycles
 SCF Done:  E(RwB97XD) =  -1028.82085207     A.U. after   13 cycles
 SCF Done:  E(RwB97XD) =  -1028.81964404     A.U. after   13 cycles
 SCF Done:  E(RwB97XD) =  -1028.82272499     A.U. after   12 cycles
 SCF Done:  E(RwB97XD) =  -1028.82277222     A.U. after   10 cycles
 SCF Done:  E(RwB97XD) =  -1028.82277694     A.U. after   10 cycles
 SCF Done:  E(RwB97XD) =  -1028.82278009     A.U. after    9 cycles
 Optimization completed.
    -- Stationary point found.
 Normal termination of Gaussian 16 at Tue Oct 27 22:46:18 2020.

 --------------------------------------------------------------------
 #P Geom=AllCheck Guess=TCheck SCRF=Check GenChk RwB97XD/CC-pVDZ Freq
 --------------------------------------------------------------------

 Structure from the checkpoint file:  "config_6_8.chk"
 ------------------------------------------------
 NM 2D-scan of HBT TD-WB97XD pVDZ in CTC Relaxed.
 ------------------------------------------------
 Charge =  0 Multiplicity = 1

                          Input orientation:
 ---------------------------------------------------------------------
 Center     Atomic      Atomic             Coordinates (Angstroms)
 Number     Number       Type             X           Y           Z
 ---------------------------------------------------------------------
      1          6           0        1.659939   -3.259828   -0.000044
      2          6           0        1.003735   -2.030234   -0.000010
      3          6           0        1.711794   -0.822190    0.000002
      4          6           0        3.111198   -0.824688   -0.000015
      5          6           0        3.766177   -2.050313   -0.000047
      6          6           0        3.049376   -3.256356   -0.000063
      7          1           0        1.100383   -4.195432   -0.000058
      8          1           0        3.661172    0.116720   -0.000004
      9          1           0        4.856793   -2.074872   -0.000061
     10          1           0        3.587488   -4.205134   -0.000091
     11          7           0        0.880125    0.279947    0.000029
     12         16           0       -0.724860   -1.714240    0.000014
     13          6           0       -1.381546    1.070226    0.000051
     14          6           0       -2.763861    0.842828    0.000043
     15          6           0       -0.862495    2.399614    0.000042
     16          6           0       -3.661021    1.900271    0.000017
     17          1           0       -3.136000   -0.185025    0.000047
     18          6           0       -1.798292    3.461184    0.000008
     19          6           0       -3.162768    3.210752   -0.000003
     20          1           0       -4.734916    1.713386    0.000007
     21          1           0       -1.412746    4.481632    0.000000
     22          1           0       -3.859279    4.051902   -0.000024
     23          6           0       -0.400380   -0.002511    0.000047
     24          8           0        0.430208    2.622652    0.000075
     25          1           0        0.903979    1.655049    0.000133
 ---------------------------------------------------------------------

 SCF Done:  E(RwB97XD) =  -1028.82278009     A.U. after    1 cycles

 Alpha  occ. eigenvalues --  -89.09161 -19.25816 -14.47543 -10.39853 -10.36917
 Alpha  occ. eigenvalues --  -10.35482 -10.35099 -10.32599 -10.32075 -10.31847
 Alpha  occ. eigenvalues --  -10.31800 -10.31736 -10.31663 -10.31185 -10.29877
 Alpha  occ. eigenvalues --  -10.29700  -8.11212  -6.06068  -6.05702  -6.05258
 Alpha  occ. eigenvalues --   -1.15157  -1.09529  -0.97551  -0.95902  -0.92086
 Alpha  occ. eigenvalues --   -0.88741  -0.85642  -0.84151  -0.83046  -0.75643
 Alpha  occ. eigenvalues --   -0.71495  -0.70607  -0.69232  -0.68354  -0.63352
 Alpha  occ. eigenvalues --   -0.60815  -0.59158  -0.58012  -0.56143  -0.54651
 Alpha  occ. eigenvalues --   -0.54526  -0.53464  -0.52554  -0.51055  -0.49940
 Alpha  occ. eigenvalues --   -0.49703  -0.47236  -0.46221  -0.45291  -0.45133
 Alpha  occ. eigenvalues --   -0.44009  -0.42983  -0.42471  -0.40134  -0.36296
 Alpha  occ. eigenvalues --   -0.35747  -0.32542  -0.31564  -0.28512
 Alpha virt. eigenvalues --   -0.00623   0.04543   0.06796   0.07524   0.07653
 Alpha virt. eigenvalues --    0.11179   0.14192   0.15039   0.16414   0.17868
 Alpha virt. eigenvalues --    0.19078   0.20843   0.21766   0.22448   0.22704

 Mulliken charges:
               1
     1  C    0.012996
     2  C   -0.230105
     3  C    0.259952
     4  C   -0.012442
     5  C    0.006869
     6  C    0.002397
     7  H    0.020460
     8  H    0.023330
     9  H    0.022352
    10  H    0.022992
    11  N   -0.325366
    12  S    0.161970
    13  C   -0.083188
    14  C   -0.019002
    15  C    0.093480
    16  C   -0.014875
    17  H    0.009588
    18  C   -0.005685
    19  C    0.022065
    20  H    0.007611
    21  H    0.011821
    22  H    0.017007
    23  C    0.080382
    24  O   -0.268825
    25  H    0.184217
 Sum of Mulliken charges =  -0.00000

 Dipole moment (field-independent basis, Debye):
    X=              0.4331    Y=             -3.3369    Z=             -0.0000  Tot=              3.3649
 Quadrupole moment (field-independent basis, Debye-Ang):
   XX=            -82.7091   YY=            -90.9850   ZZ=           -104.0087
   XY=             -7.1904   XZ=             -0.0000   YZ=              0.0001

  Exact polarizability:     276.652     -69.880     258.852      -0.001       0.002      62.910
 Approx polarizability:     263.449     -24.742     244.075      -0.001       0.001      82.170

                      1                      2                      3
                      A                      A                      A
 Frequencies --     22.3688                65.4032               125.8414
 Red. masses --      5.3511                 6.1247                 5.5448
 Frc consts  --      0.0016                 0.0154                 0.0517
 IR Inten    --      0.0215                 1.4269                 4.5667

                      4                      5                      6
                      A                      A                      A
 Frequencies --    153.1475               197.6003               243.6487
 Red. masses --      5.0610                 5.9704                 5.7470
 Frc consts  --      0.0699                 0.1374                 0.2010
 IR Inten    --      0.2776                 0.4145                 0.1434

                      7                      8                      9
                      A                      A                      A
 Frequencies --    274.5387               326.9694               337.6921
 Red. masses --      7.2950                 5.1923                 5.5916
 Frc consts  --      0.3240                 0.3271                 0.3757
 IR Inten    --      1.0037                 0.3109                33.3289

                     10                     11                     12
                      A                      A                      A
 Frequencies --    416.1913               435.6174               461.4045
 Red. masses --     10.4354                 3.1230                 3.6294
 Frc consts  --      1.0650                 0.3492                 0.4552
 IR Inten    --      0.5749                 2.0074                 8.2308

                     13                     14                     15
                      A                      A                      A
 Frequencies --    510.3208               520.6842               539.2899
 Red. masses --      5.8640                 6.7684                 3.4276
 Frc consts  --      0.8998                 1.0811                 0.5873
 IR Inten    --     32.0443                27.6711                 3.6066

                     16                     17                     18
                      A                      A                      A
 Frequencies --    560.9160               574.2001               590.6546
 Red. masses --      7.0476                 3.6796                 7.6735
 Frc consts  --      1.3064                 0.7148                 1.5773
 IR Inten    --     12.0422                 0.0933                 1.9288

                     19                     20                     21
                      A                      A                      A
 Frequencies --    648.8665               688.4549               720.9630
 Red. masses --      6.4399                 6.2967                 6.6067
 Frc consts  --      1.5975                 1.7584                 2.0233
 IR Inten    --      0.0136                14.0178                25.0059

                     22                     23                     24
                      A                      A                      A
 Frequencies --    755.5295               767.7684               768.6791
 Red. masses --      2.1377                 9.8215                 2.3465
 Frc consts  --      0.7189                 3.4111                 0.8169
 IR Inten    --     22.4804                17.3013                10.8858

                     25                     26                     27
                      A                      A                      A
 Frequencies --    776.0007               784.4109               852.4991
 Red. masses --      1.6049                 1.8132                 6.0033
 Frc consts  --      0.5694                 0.6573                 2.5706
 IR Inten    --     53.1920                40.9456                14.6858

                     28                     29                     30
                      A                      A                      A
 Frequencies --    882.0906               886.5620               914.1623
 Red. masses --      1.5884                 1.4041                 6.6494
 Frc consts  --      0.7282                 0.6502                 3.2740
 IR Inten    --      5.5976                 0.3734                 7.2995

                     31                     32                     33
                      A                      A                      A
 Frequencies --    968.8957               975.7291              1004.9181
 Red. masses --      1.3542                 1.3619                 7.2269
 Frc consts  --      0.7490                 0.7639                 4.3000
 IR Inten    --      1.1371                 1.1350                68.7424

                     34                     35                     36
                      A                      A                      A
 Frequencies --   1010.4890              1016.5229              1053.7624
 Red. masses --      1.3011                 1.3048                 2.0122
 Frc consts  --      0.7827                 0.7944                 1.3165
 IR Inten    --      0.2155                 0.0009                10.5116

                     37                     38                     39
                      A                      A                      A
 Frequencies --   1065.8722              1101.2856              1107.2701
 Red. masses --      1.9135                 3.9370                 1.0607
 Frc consts  --      1.2808                 2.8133                 0.7662
 IR Inten    --      7.2398                 4.2258                70.1186

                     40                     41                     42
                      A                      A                      A
 Frequencies --   1148.5795              1155.2632              1169.9966
 Red. masses --      1.4621                 1.3391                 1.1973
 Frc consts  --      1.1364                 1.0530                 0.9657
 IR Inten    --     29.3699                 2.8109                21.7965

                     43                     44                     45
                      A                      A                      A
 Frequencies --   1185.4250              1252.9931              1270.6922
 Red. masses --      1.1917                 1.7628                 2.8730
 Frc consts  --      0.9867                 1.6306                 2.7332
 IR Inten    --      1.0464               226.2850                60.8428

                     46                     47                     48
                      A                      A                      A
 Frequencies --   1289.8533              1312.6974              1360.5813
 Red. masses --      1.5184                 3.1181                 4.6759
 Frc consts  --      1.4884                 3.1657                 5.0999
 IR Inten    --      4.4502               289.1204                 0.2813

                     49                     50                     51
                      A                      A                      A
 Frequencies --   1380.3305              1384.6468              1437.2658
 Red. masses --      4.6943                 4.0405                 2.3649
 Frc consts  --      5.2697                 4.5642                 2.8783
 IR Inten    --      9.3352                17.4661                35.7225

                     52                     53                     54
                      A                      A                      A
 Frequencies --   1492.6808              1499.8008              1520.8336
 Red. masses --      2.7549                 2.7872                 3.8372
 Frc consts  --      3.6165                 3.6940                 5.2291
 IR Inten    --     17.6029                28.0149                69.5358

                     55                     56                     57
                      A                      A                      A
 Frequencies --   1578.0087              1608.3489              1656.2783
 Red. masses --      6.4072                 3.7171                 5.9237
 Frc consts  --      9.4002                 5.6652                 9.5743
 IR Inten    --    291.5076                61.2538               234.3563

                     58                     59                     60
                      A                      A                      A
 Frequencies --   1665.6769              1697.2256              1726.7722
 Red. masses --      5.6984                 6.6662                 2.1775
 Frc consts  --      9.3151                11.3138                 3.8254
 IR Inten    --    335.3330               261.0734               578.6792

                     61                     62                     63
                      A                      A                      A
 Frequencies --   1977.3300              3193.7491              3203.4035
 Red. masses --      1.1409                 1.0892                 1.0887
 Frc consts  --      2.6282                 6.5455                 6.5821
 IR Inten    --    967.7935                 4.0999                 7.5715

                     64                     65                     66
                      A                      A                      A
 Frequencies --   3213.8924              3225.1906              3225.8660
 Red. masses --      1.0864                 1.0908                 1.0939
 Frc consts  --      6.6117                 6.6852                 6.7068
 IR Inten    --      2.2276                 3.7271                14.0909

                     67                     68                     69
                      A                      A                      A
 Frequencies --   3236.0262              3236.0607              3241.5893
 Red. masses --      1.0974                 1.0967                 1.0996
 Frc consts  --      6.7706                 6.7666                 6.8075
 IR Inten    --     17.1580                 9.2196                12.0189

 - Thermochemistry -
 -------------------
 Temperature   298.150 Kelvin.  Pressure   1.00000 Atm.
 Atom     1 has atomic number  6 and mass  12.00000

 Molecular mass:   227.04049 amu.
 Principal axes and moments of inertia in atomic units:
                           1         2         3
     Eigenvalues --  1293.411996264.503607557.91559
           X           -0.70588   0.70833   0.00000
           Y            0.70833   0.70588  -0.00001
           Z            0.00001   0.00000   1.00000
 This molecule is an asymmetric top.
 Rotational symmetry number  1.
 Warning -- assumption of classical behavior for rotation
           may cause significant error
 Rotational temperatures (Kelvin)      0.06697     0.01383     0.01146
 Rotational constants (GHZ):           1.39533     0.28809     0.23879
 Zero-point vibrational energy     494382.4 (Joules/Mol)
                                  118.16022 (Kcal/Mol)
 Warning -- explicit consideration of  18 degrees of freedom as
           vibrations may cause significant error
 Vibrational temperatures:     32.18    94.10   181.06   220.35   284.30
          (Kelvin)            350.56   395.00   470.44   485.86   598.81
                              626.76   663.86   734.24   749.15   775.92
                              807.03   826.15   849.82   933.57   990.53
                             1037.30  1087.04  1104.65  1105.96  1116.49
                             1128.59  1226.56  1269.13  1275.57  1315.28
                             1394.02  1403.86  1445.85  1453.87  1462.55
                             1516.13  1533.55  1584.50  1593.11  1652.55
                             1662.17  1683.36  1705.56  1802.78  1828.24
                             1855.81  1888.68  1957.57  1985.99  1992.20
                             2067.90  2147.63  2157.88  2188.14  2270.40
                             2314.06  2383.02  2396.54  2441.93  2484.44
                             2844.94  4595.09  4608.98  4624.07  4640.33
                             4641.30  4655.92  4655.97  4663.92

 Zero-point correction=                           0.188300 (Hartree/Particle)
 Thermal correction to Energy=                    0.199907
 Thermal correction to Enthalpy=                  0.200851
 Thermal correction to Gibbs Free Energy=         0.149192
 Sum of electronic and zero-point Energies=          -1028.634480
 Sum of electronic and thermal Energies=             -1028.622873
 Sum of electronic and thermal Enthalpies=           -1028.621929
 Sum of electronic and thermal Free Energies=        -1028.673588

                     E (Thermal)             CV                S
                      KCal/Mol        Cal/Mol-Kelvin    Cal/Mol-Kelvin
 Total                  125.443             47.066            108.725
 Electronic               0.000              0.000              0.000
 Translational            0.889              2.981             42.162
 Rotational               0.889              2.981             32.482
 Vibrational            123.666             41.105             34.081
 Vibration     1          0.593              1.985              6.412
 Vibration     2          0.597              1.971              4.287
 Vibration     3          0.611              1.927              3.009
 Vibration     4          0.619              1.899              2.633
 Vibration     5          0.637              1.843              2.155
 Vibration     6          0.659              1.773              1.776
 Vibration     7          0.677              1.720              1.567
 Vibration     8          0.711              1.622              1.275
 Vibration     9          0.718              1.600              1.223
 Vibration    10          0.779              1.435              0.905
 Vibration    11          0.796              1.393              0.840
 Vibration    12          0.819              1.336              0.762
 Vibration    13          0.865              1.227              0.633
 Vibration    14          0.876              1.204              0.608
 Vibration    15          0.894              1.163              0.567
 Vibration    16          0.917              1.116              0.522
 Vibration    17          0.931              1.087              0.496
 Vibration    18          0.948              1.052              0.466

 Optimization completed.
    -- Stationary point found.
 Normal termination of Gaussian 16 at Tue Oct 27 22:53:04 2020.
