 Gaussian 16, Revision C.01,
 Gaussian 16:  ES64L-G16RevC.01  3-Jul-2019

 ----------------------------------------------------------------------
 #p opt=addgic freq wb97xd/cc-pvdz nosymm int=ultrafine scrf=(solvent=C
 arbonTetraChloride)
 ----------------------------------------------------------------------

 ------------------------------------------------
 NM 2D-scan of HBT TD-WB97XD pVDZ in CTC Relaxed.
 ------------------------------------------------
 Symbolic Z-matrix:
 Charge =  0 Multiplicity = 1

 SCF Done:  E(RwB97XD) =  -1028.79633024     A.U. after   16 cycles
 SCF Done:  E(RwB97XD) =  -1028.80398502     A.U. after   13 cycles
 SCF Done:  E(RwB97XD) =  -1028.80455845     A.U. after   12 cycles
 SCF Done:  E(RwB97XD) =  -1028.80463201     A.U. after   11 cycles
 SCF Done:  E(RwB97XD) =  -1028.80463587     A.U. after   10 cycles
 SCF Done:  E(RwB97XD) =  -1028.80462954     A.U. after   11 cycles
 SCF Done:  E(RwB97XD) =  -1028.80464499     A.U. after   10 cycles
 SCF Done:  E(RwB97XD) =  -1028.80464556     A.U. after    9 cycles
 Optimization completed.
    -- Stationary point found.
 Normal termination of Gaussian 16 at Wed Oct 28 02:03:38 2020.

 --------------------------------------------------------------------
 #P Geom=AllCheck Guess=TCheck SCRF=Check GenChk RwB97XD/CC-pVDZ Freq
 --------------------------------------------------------------------

 Structure from the checkpoint file:  "config_7_19.chk"
 ------------------------------------------------
 NM 2D-scan of HBT TD-WB97XD pVDZ in CTC Relaxed.
 ------------------------------------------------
 Charge =  0 Multiplicity = 1

                          Input orientation:
 ---------------------------------------------------------------------
 Center     Atomic      Atomic             Coordinates (Angstroms)
 Number     Number       Type             X           Y           Z
 ---------------------------------------------------------------------
      1          6           0        1.499639   -3.242853   -0.000032
      2          6           0        0.996660   -1.946858   -0.000031
      3          6           0        1.803122   -0.791235   -0.000022
      4          6           0        3.193415   -0.968766   -0.000024
      5          6           0        3.705640   -2.268746   -0.000023
      6          6           0        2.876996   -3.399796   -0.000025
      7          1           0        0.824447   -4.099059   -0.000036
      8          1           0        3.863568   -0.108661   -0.000019
      9          1           0        4.788262   -2.403625   -0.000019
     10          1           0        3.313539   -4.399116   -0.000023
     11          7           0        1.030503    0.390011   -0.000009
     12         16           0       -0.690368   -1.541192   -0.000037
     13          6           0       -1.293462    1.116409    0.000044
     14          6           0       -2.652413    0.719874    0.000056
     15          6           0       -0.886169    2.489291    0.000051
     16          6           0       -3.649586    1.656068    0.000040
     17          1           0       -2.910659   -0.341761    0.000073
     18          6           0       -1.963344    3.439591    0.000018
     19          6           0       -3.278862    3.024899    0.000010
     20          1           0       -4.698823    1.362025    0.000045
     21          1           0       -1.711707    4.501442    0.000005
     22          1           0       -4.067121    3.781866   -0.000013
     23          6           0       -0.276278    0.135448    0.000007
     24          8           0        0.362762    2.796359    0.000081
     25          1           0        1.085763    1.548166   -0.000007
 ---------------------------------------------------------------------

 SCF Done:  E(RwB97XD) =  -1028.80464556     A.U. after    1 cycles

 Alpha  occ. eigenvalues --  -89.09356 -19.22852 -14.51057 -10.40509 -10.37321
 Alpha  occ. eigenvalues --  -10.36309 -10.35576 -10.32902 -10.32849 -10.32296
 Alpha  occ. eigenvalues --  -10.32166 -10.31361 -10.31053 -10.30425 -10.29442
 Alpha  occ. eigenvalues --  -10.29172  -8.11539  -6.06390  -6.06023  -6.05565
 Alpha  occ. eigenvalues --   -1.12509  -1.09576  -0.98241  -0.95851  -0.93154
 Alpha  occ. eigenvalues --   -0.89054  -0.86569  -0.83699  -0.82433  -0.75603
 Alpha  occ. eigenvalues --   -0.72120  -0.71721  -0.68671  -0.67656  -0.64112
 Alpha  occ. eigenvalues --   -0.60945  -0.59637  -0.57168  -0.55609  -0.55399
 Alpha  occ. eigenvalues --   -0.54818  -0.53826  -0.52849  -0.50543  -0.49628
 Alpha  occ. eigenvalues --   -0.49279  -0.47726  -0.46666  -0.45417  -0.44935
 Alpha  occ. eigenvalues --   -0.44490  -0.43099  -0.41898  -0.40588  -0.36577
 Alpha  occ. eigenvalues --   -0.33492  -0.33208  -0.31526  -0.27237
 Alpha virt. eigenvalues --   -0.01054   0.04068   0.05858   0.07360   0.08585
 Alpha virt. eigenvalues --    0.11082   0.14634   0.14993   0.16930   0.17740
 Alpha virt. eigenvalues --    0.18973   0.20478   0.20981   0.21637   0.22819

 Mulliken charges:
               1
     1  C    0.022019
     2  C   -0.216861
     3  C    0.256697
     4  C   -0.016200
     5  C    0.004700
     6  C    0.006423
     7  H    0.023297
     8  H    0.029367
     9  H    0.025582
    10  H    0.025213
    11  N   -0.250836
    12  S    0.181052
    13  C   -0.087615
    14  C   -0.027542
    15  C    0.121303
    16  C   -0.022542
    17  H    0.019783
    18  C   -0.020233
    19  C    0.024403
    20  H    0.003664
    21  H    0.006304
    22  H    0.015260
    23  C    0.074496
    24  O   -0.412802
    25  H    0.215067
 Sum of Mulliken charges =  -0.00000

 Dipole moment (field-independent basis, Debye):
    X=              1.0336    Y=             -4.9213    Z=             -0.0002  Tot=              5.0287
 Quadrupole moment (field-independent basis, Debye-Ang):
   XX=            -82.1411   YY=            -94.4542   ZZ=           -103.9702
   XY=             -7.0113   XZ=             -0.0001   YZ=             -0.0005

  Exact polarizability:     280.879     -79.812     272.959      -0.001       0.001      62.774
 Approx polarizability:     264.039     -28.305     252.543       0.000       0.001      82.019

 ******    1 imaginary frequencies (negative Signs) ******

                      1                      2                      3
                      A                      A                      A
 Frequencies --  -1000.4535                53.7769                60.5685
 Red. masses --      1.1951                 5.9206                 4.7989
 Frc consts  --      0.7047                 0.0101                 0.0104
 IR Inten    --    668.2776                 1.1064                 0.3140

                      4                      5                      6
                      A                      A                      A
 Frequencies --    149.9224               153.4432               201.8077
 Red. masses --      5.1001                 5.5162                 6.3386
 Frc consts  --      0.0675                 0.0765                 0.1521
 IR Inten    --      1.3521                 0.6142                 0.0705

                      7                      8                      9
                      A                      A                      A
 Frequencies --    243.5206               289.7850               318.2862
 Red. masses --      6.2211                 7.0576                 5.3243
 Frc consts  --      0.2174                 0.3492                 0.3178
 IR Inten    --      0.6549                 3.2476                 0.2189

                     10                     11                     12
                      A                      A                      A
 Frequencies --    381.9714               429.6147               431.5951
 Red. masses --      6.0832                11.0673                 3.1357
 Frc consts  --      0.5229                 1.2035                 0.3441
 IR Inten    --      0.0175                 1.1320                 0.2469

                     13                     14                     15
                      A                      A                      A
 Frequencies --    456.3602               517.0317               532.2119
 Red. masses --      3.5263                 8.7400                 2.9803
 Frc consts  --      0.4327                 1.3766                 0.4974
 IR Inten    --     10.6313                 8.2056                 4.1856

                     16                     17                     18
                      A                      A                      A
 Frequencies --    553.1140               566.7777               571.0128
 Red. masses --      8.8508                 3.7878                 6.8869
 Frc consts  --      1.5954                 0.7169                 1.3230
 IR Inten    --      9.7201                 0.1016                 8.7447

                     19                     20                     21
                      A                      A                      A
 Frequencies --    604.2964               646.2566               692.9915
 Red. masses --      7.2492                 6.3368                 6.0648
 Frc consts  --      1.5597                 1.5593                 1.7160
 IR Inten    --     16.0268                 0.0143                 2.2813

                     22                     23                     24
                      A                      A                      A
 Frequencies --    742.2644               752.0765               762.7867
 Red. masses --      6.5340                 2.5430                 7.3804
 Frc consts  --      2.1210                 0.8475                 2.5301
 IR Inten    --     21.0032                15.2380                61.1934

                     25                     26                     27
                      A                      A                      A
 Frequencies --    762.7942               776.0127               778.5711
 Red. masses --      1.4307                 2.2786                 1.8312
 Frc consts  --      0.4905                 0.8085                 0.6540
 IR Inten    --     52.5356                 0.5429                58.1865

                     28                     29                     30
                      A                      A                      A
 Frequencies --    855.9072               875.9181               884.9034
 Red. masses --      6.2716                 1.7925                 1.3761
 Frc consts  --      2.7070                 0.8103                 0.6349
 IR Inten    --     14.5719                10.1698                 0.5516

                     31                     32                     33
                      A                      A                      A
 Frequencies --    922.8437               961.9312               972.0553
 Red. masses --      6.5675                 1.3409                 1.3636
 Frc consts  --      3.2954                 0.7310                 0.7591
 IR Inten    --      3.0017                 0.3665                 1.9706

                     34                     35                     36
                      A                      A                      A
 Frequencies --   1014.6571              1015.2912              1018.8691
 Red. masses --      1.3062                 1.3089                 7.4308
 Frc consts  --      0.7923                 0.7950                 4.5449
 IR Inten    --      0.0041                 0.2884                 4.8590

                     37                     38                     39
                      A                      A                      A
 Frequencies --   1048.3500              1053.9741              1115.2288
 Red. masses --      1.9883                 2.0230                 2.9061
 Frc consts  --      1.2875                 1.3241                 2.1296
 IR Inten    --      8.4290                 9.6249                 0.5752

                     40                     41                     42
                      A                      A                      A
 Frequencies --   1124.7314              1164.9386              1168.2369
 Red. masses --      1.0623                 1.3039                 1.4183
 Frc consts  --      0.7918                 1.0425                 1.1404
 IR Inten    --     78.0147                22.4414                 4.2981

                     43                     44                     45
                      A                      A                      A
 Frequencies --   1178.5059              1187.5673              1249.1689
 Red. masses --      1.1635                 1.2836                 2.0612
 Frc consts  --      0.9521                 1.0666                 1.8950
 IR Inten    --     51.3584                 5.9080                29.6801

                     46                     47                     48
                      A                      A                      A
 Frequencies --   1287.5268              1316.6602              1325.6220
 Red. masses --      1.7252                 2.4478                 3.6577
 Frc consts  --      1.6850                 2.5002                 3.7870
 IR Inten    --     13.0247                40.0673               313.7835

                     49                     50                     51
                      A                      A                      A
 Frequencies --   1363.1809              1399.2707              1415.7594
 Red. masses --      6.2043                 2.4917                 6.7449
 Frc consts  --      6.7928                 2.8745                 7.9653
 IR Inten    --     33.7132                 1.2260               112.0548

                     52                     53                     54
                      A                      A                      A
 Frequencies --   1485.8230              1496.8810              1506.6293
 Red. masses --      2.6840                 2.7486                 2.9370
 Frc consts  --      3.4911                 3.6286                 3.9280
 IR Inten    --     14.2459                15.0978                23.7951

                     55                     56                     57
                      A                      A                      A
 Frequencies --   1569.8965              1585.9416              1618.3307
 Red. masses --      4.6624                 6.8826                 7.3304
 Frc consts  --      6.7702                10.1994                11.3113
 IR Inten    --    796.2779              1179.5782               121.4324

                     58                     59                     60
                      A                      A                      A
 Frequencies --   1649.9184              1678.1106              1705.2235
 Red. masses --      6.7965                 6.7530                 6.5778
 Frc consts  --     10.9009                11.2045                11.2693
 IR Inten    --      0.4789                 3.2023               277.1363

                     61                     62                     63
                      A                      A                      A
 Frequencies --   2100.9673              3194.4288              3199.2032
 Red. masses --      1.1033                 1.0878                 1.0892
 Frc consts  --      2.8694                 6.5400                 6.5681
 IR Inten    --    414.6309                 1.5252                13.9680

                     64                     65                     66
                      A                      A                      A
 Frequencies --   3212.2844              3221.5640              3222.5608
 Red. masses --      1.0863                 1.0907                 1.0946
 Frc consts  --      6.6044                 6.6696                 6.6977
 IR Inten    --      1.2850                 2.3697                24.2378

                     67                     68                     69
                      A                      A                      A
 Frequencies --   3231.0057              3237.3717              3238.2324
 Red. masses --      1.0959                 1.0979                 1.1000
 Frc consts  --      6.7403                 6.7794                 6.7963
 IR Inten    --      5.5414                16.8684                11.1802

 - Thermochemistry -
 -------------------
 Temperature   298.150 Kelvin.  Pressure   1.00000 Atm.
 Atom     1 has atomic number  6 and mass  12.00000

 Molecular mass:   227.04049 amu.
 Principal axes and moments of inertia in atomic units:
                           1         2         3
     Eigenvalues --  1274.392076239.386197513.77825
           X           -0.70508   0.70913  -0.00000
           Y            0.70913   0.70508  -0.00001
           Z            0.00001   0.00001   1.00000
 This molecule is an asymmetric top.
 Rotational symmetry number  1.
 Warning -- assumption of classical behavior for rotation
           may cause significant error
 Rotational temperatures (Kelvin)      0.06796     0.01388     0.01153
 Rotational constants (GHZ):           1.41616     0.28925     0.24019
    1 imaginary frequencies ignored.
 Zero-point vibrational energy     487504.1 (Joules/Mol)
                                  116.51628 (Kcal/Mol)
 Warning -- explicit consideration of  18 degrees of freedom as
           vibrations may cause significant error
 Vibrational temperatures:     77.37    87.14   215.70   220.77   290.36
          (Kelvin)            350.37   416.94   457.94   549.57   618.12
                              620.97   656.60   743.89   765.73   795.81
                              815.47   821.56   869.45   929.82   997.06
                             1067.95  1082.07  1097.48  1097.49  1116.51
                             1120.19  1231.46  1260.25  1273.18  1327.77
                             1384.00  1398.57  1459.87  1460.78  1465.93
                             1508.34  1516.43  1604.57  1618.24  1676.09
                             1680.83  1695.61  1708.64  1797.28  1852.46
                             1894.38  1907.27  1961.31  2013.24  2036.96
                             2137.77  2153.68  2167.70  2258.73  2281.82
                             2328.42  2373.86  2414.43  2453.44  3022.82
                             4596.07  4602.94  4621.76  4635.11  4636.55
                             4648.70  4657.86  4659.09

 Zero-point correction=                           0.185681 (Hartree/Particle)
 Thermal correction to Energy=                    0.197071
 Thermal correction to Enthalpy=                  0.198015
 Thermal correction to Gibbs Free Energy=         0.147491
 Sum of electronic and zero-point Energies=          -1028.618965
 Sum of electronic and thermal Energies=             -1028.607575
 Sum of electronic and thermal Enthalpies=           -1028.606630
 Sum of electronic and thermal Free Energies=        -1028.657155

                     E (Thermal)             CV                S
                      KCal/Mol        Cal/Mol-Kelvin    Cal/Mol-Kelvin
 Total                  123.664             46.638            106.337
 Electronic               0.000              0.000              0.000
 Translational            0.889              2.981             42.162
 Rotational               0.889              2.981             32.457
 Vibrational            121.887             40.677             31.718
 Vibration     1          0.596              1.976              4.673
 Vibration     2          0.597              1.973              4.439
 Vibration     3          0.618              1.903              2.673
 Vibration     4          0.619              1.899              2.629
 Vibration     5          0.639              1.837              2.117
 Vibration     6          0.659              1.773              1.777
 Vibration     7          0.686              1.693              1.475
 Vibration     8          0.705              1.639              1.319
 Vibration     9          0.751              1.509              1.031
 Vibration    10          0.791              1.406              0.860
 Vibration    11          0.793              1.401              0.853
 Vibration    12          0.815              1.347              0.777
 Vibration    13          0.872              1.212              0.617
 Vibration    14          0.887              1.179              0.582
 Vibration    15          0.908              1.133              0.538
 Vibration    16          0.923              1.103              0.510
 Vibration    17          0.927              1.094              0.502
 Vibration    18          0.963              1.023              0.442

                           ! Non-Optimized Parameters !
 Normal termination of Gaussian 16 at Wed Oct 28 02:09:38 2020.
