 Gaussian 16, Revision C.01,
 Gaussian 16:  ES64L-G16RevC.01  3-Jul-2019

 ----------------------------------------------------------------------
 #p opt=addgic freq wb97xd/cc-pvdz nosymm int=ultrafine scrf=(solvent=C
 arbonTetraChloride)
 ----------------------------------------------------------------------

 ------------------------------------------------
 NM 2D-scan of HBT TD-WB97XD pVDZ in CTC Relaxed.
 ------------------------------------------------
 Symbolic Z-matrix:
 Charge =  0 Multiplicity = 1

 SCF Done:  E(RwB97XD) =  -1028.79881641     A.U. after   16 cycles
 SCF Done:  E(RwB97XD) =  -1028.81164973     A.U. after   14 cycles
 SCF Done:  E(RwB97XD) =  -1028.81266277     A.U. after   13 cycles
 SCF Done:  E(RwB97XD) =  -1028.81333440     A.U. after   12 cycles
 SCF Done:  E(RwB97XD) =  -1028.81336292     A.U. after   10 cycles
 SCF Done:  E(RwB97XD) =  -1028.81336520     A.U. after    9 cycles
 Optimization completed.
    -- Stationary point found.
 Normal termination of Gaussian 16 at Tue Oct 27 22:55:14 2020.

 --------------------------------------------------------------------
 #P Geom=AllCheck Guess=TCheck SCRF=Check GenChk RwB97XD/CC-pVDZ Freq
 --------------------------------------------------------------------

 Structure from the checkpoint file:  "config_9_10.chk"
 ------------------------------------------------
 NM 2D-scan of HBT TD-WB97XD pVDZ in CTC Relaxed.
 ------------------------------------------------
 Charge =  0 Multiplicity = 1

                          Input orientation:
 ---------------------------------------------------------------------
 Center     Atomic      Atomic             Coordinates (Angstroms)
 Number     Number       Type             X           Y           Z
 ---------------------------------------------------------------------
      1          6           0        1.634922   -3.267445   -0.000044
      2          6           0        0.997738   -2.029295   -0.000025
      3          6           0        1.731665   -0.837742   -0.000004
      4          6           0        3.126737   -0.855798    0.000001
      5          6           0        3.761888   -2.093324   -0.000018
      6          6           0        3.026848   -3.286094   -0.000040
      7          1           0        1.060926   -4.194269   -0.000060
      8          1           0        3.692318    0.076141    0.000018
      9          1           0        4.851849   -2.133139   -0.000015
     10          1           0        3.549451   -4.243260   -0.000054
     11          7           0        0.904355    0.270185    0.000011
     12         16           0       -0.731920   -1.686586   -0.000020
     13          6           0       -1.359026    1.081286    0.000015
     14          6           0       -2.756154    0.823808    0.000023
     15          6           0       -0.844541    2.444849    0.000020
     16          6           0       -3.665286    1.849038    0.000039
     17          1           0       -3.107634   -0.212111    0.000018
     18          6           0       -1.851078    3.480738    0.000031
     19          6           0       -3.189988    3.189508    0.000043
     20          1           0       -4.735735    1.644047    0.000046
     21          1           0       -1.493330    4.511819    0.000027
     22          1           0       -3.914330    4.007966    0.000052
     23          6           0       -0.409348    0.031788    0.000002
     24          8           0        0.391554    2.712318   -0.000014
     25          1           0        1.131777    1.298561    0.000036
 ---------------------------------------------------------------------

 SCF Done:  E(RwB97XD) =  -1028.81336520     A.U. after    1 cycles

 Alpha  occ. eigenvalues --  -89.09971 -19.21880 -14.51339 -10.41164 -10.37095
 Alpha  occ. eigenvalues --  -10.36216 -10.35943 -10.33230 -10.32812 -10.32443
 Alpha  occ. eigenvalues --  -10.32249 -10.31266 -10.30770 -10.30653 -10.29211
 Alpha  occ. eigenvalues --  -10.28683  -8.11998  -6.06876  -6.06499  -6.06010
 Alpha  occ. eigenvalues --   -1.13037  -1.09857  -0.98461  -0.95295  -0.93148
 Alpha  occ. eigenvalues --   -0.89237  -0.86507  -0.83879  -0.82014  -0.75707
 Alpha  occ. eigenvalues --   -0.72645  -0.71915  -0.68952  -0.68019  -0.64647
 Alpha  occ. eigenvalues --   -0.60887  -0.59707  -0.56808  -0.55800  -0.55715
 Alpha  occ. eigenvalues --   -0.54971  -0.53697  -0.52967  -0.50432  -0.49792
 Alpha  occ. eigenvalues --   -0.49094  -0.48187  -0.46706  -0.45537  -0.44814
 Alpha  occ. eigenvalues --   -0.44479  -0.43071  -0.41835  -0.40510  -0.36748
 Alpha  occ. eigenvalues --   -0.33457  -0.32318  -0.31613  -0.26612
 Alpha virt. eigenvalues --   -0.01198   0.03867   0.06020   0.06785   0.09053
 Alpha virt. eigenvalues --    0.11101   0.13723   0.14737   0.16152   0.17442
 Alpha virt. eigenvalues --    0.18935   0.20205   0.21164   0.21624   0.23109

 Mulliken charges:
               1
     1  C    0.014915
     2  C   -0.238423
     3  C    0.263063
     4  C   -0.009820
     5  C    0.010417
     6  C    0.002752
     7  H    0.024688
     8  H    0.030670
     9  H    0.026539
    10  H    0.025729
    11  N   -0.149815
    12  S    0.183660
    13  C   -0.116619
    14  C   -0.011076
    15  C    0.113111
    16  C   -0.029739
    17  H    0.006907
    18  C   -0.018081
    19  C    0.026089
    20  H    0.002887
    21  H    0.002997
    22  H    0.013865
    23  C    0.072397
    24  O   -0.400616
    25  H    0.153504
 Sum of Mulliken charges =  -0.00000

 Dipole moment (field-independent basis, Debye):
    X=              1.5352    Y=             -5.0587    Z=              0.0001  Tot=              5.2865
 Quadrupole moment (field-independent basis, Debye-Ang):
   XX=            -82.2044   YY=            -94.6407   ZZ=           -104.0196
   XY=             -6.9714   XZ=              0.0000   YZ=              0.0004

  Exact polarizability:     285.631     -84.633     282.339      -0.001       0.002      62.907
 Approx polarizability:     265.866     -31.589     255.340      -0.001       0.002      81.992

                      1                      2                      3
                      A                      A                      A
 Frequencies --     56.0321                75.2427               112.8246
 Red. masses --      5.5861                 5.0146                 5.6597
 Frc consts  --      0.0103                 0.0167                 0.0424
 IR Inten    --      0.8568                 1.3331                 2.7944

                      4                      5                      6
                      A                      A                      A
 Frequencies --    140.3462               199.4539               234.5298
 Red. masses --      5.3421                 6.1885                 6.1624
 Frc consts  --      0.0620                 0.1451                 0.1997
 IR Inten    --      1.3731                 0.0084                 0.7725

                      7                      8                      9
                      A                      A                      A
 Frequencies --    268.2017               310.0058               311.1661
 Red. masses --      7.5780                 5.3719                 6.2224
 Frc consts  --      0.3212                 0.3042                 0.3550
 IR Inten    --     10.0191                 0.8411                 5.9867

                     10                     11                     12
                      A                      A                      A
 Frequencies --    408.6978               429.9150               450.3234
 Red. masses --     10.3887                 3.2246                 3.5870
 Frc consts  --      1.0224                 0.3511                 0.4286
 IR Inten    --      3.0641                 0.3328                10.2652

                     13                     14                     15
                      A                      A                      A
 Frequencies --    511.6362               530.5829               539.5134
 Red. masses --      8.7064                 2.8386                 7.5181
 Frc consts  --      1.3428                 0.4708                 1.2893
 IR Inten    --      9.8113                 5.2792                 6.4788

                     16                     17                     18
                      A                      A                      A
 Frequencies --    556.1332               562.6403               583.9779
 Red. masses --      6.6108                 3.7784                 6.7717
 Frc consts  --      1.2047                 0.7047                 1.3606
 IR Inten    --      4.7870                 0.0195                37.3046

                     19                     20                     21
                      A                      A                      A
 Frequencies --    639.2579               646.8487               718.4275
 Red. masses --      5.9701                 5.5085                 6.2572
 Frc consts  --      1.4374                 1.3580                 1.9028
 IR Inten    --      0.1457                 3.6288                28.2133

                     22                     23                     24
                      A                      A                      A
 Frequencies --    735.0790               751.5757               762.0611
 Red. masses --      8.1064                 2.6534                 1.4718
 Frc consts  --      2.5808                 0.8831                 0.5036
 IR Inten    --     67.4144                 8.7999                53.8203

                     25                     26                     27
                      A                      A                      A
 Frequencies --    777.0376               778.0897               831.6620
 Red. masses --      1.6656                 2.1744                 4.6092
 Frc consts  --      0.5925                 0.7756                 1.8783
 IR Inten    --     17.2923                42.6081                18.7655

                     28                     29                     30
                      A                      A                      A
 Frequencies --    860.1683               877.3001               883.5694
 Red. masses --      4.1174                 1.8147                 1.3818
 Frc consts  --      1.7949                 0.8229                 0.6356
 IR Inten    --     10.8767                 5.5166                 0.2434

                     31                     32                     33
                      A                      A                      A
 Frequencies --    933.8945               958.4548               968.4972
 Red. masses --      1.1175                 4.8097                 1.3232
 Frc consts  --      0.5742                 2.6032                 0.7313
 IR Inten    --     84.2462                35.8715                 0.1573

                     34                     35                     36
                      A                      A                      A
 Frequencies --    971.5832              1015.0711              1016.8333
 Red. masses --      1.3600                 1.3041                 1.3065
 Frc consts  --      0.7564                 0.7917                 0.7959
 IR Inten    --      1.2983                 0.0610                 0.4943

                     37                     38                     39
                      A                      A                      A
 Frequencies --   1042.5133              1056.3917              1078.3615
 Red. masses --      2.2244                 2.0641                 3.4623
 Frc consts  --      1.4244                 1.3571                 2.3722
 IR Inten    --     15.3314                10.9455                30.2702

                     40                     41                     42
                      A                      A                      A
 Frequencies --   1124.9279              1159.9041              1160.8896
 Red. masses --      2.3195                 1.3885                 1.2166
 Frc consts  --      1.7294                 1.1007                 0.9660
 IR Inten    --     72.2927                 4.7407                46.9496

                     43                     44                     45
                      A                      A                      A
 Frequencies --   1182.9356              1197.6476              1258.5995
 Red. masses --      1.1497                 1.2643                 1.9141
 Frc consts  --      0.9479                 1.0685                 1.7864
 IR Inten    --     17.1743                 9.8360                12.6590

                     46                     47                     48
                      A                      A                      A
 Frequencies --   1289.7943              1320.6923              1365.0932
 Red. masses --      1.5382                 2.7550                 3.5440
 Frc consts  --      1.5077                 2.8313                 3.8911
 IR Inten    --     12.4617               146.3867                13.0065

                     49                     50                     51
                      A                      A                      A
 Frequencies --   1383.4698              1396.4541              1419.5748
 Red. masses --      4.0090                 6.5099                 2.6692
 Frc consts  --      4.5209                 7.4796                 3.1691
 IR Inten    --     85.8507                20.1910                15.1772

                     52                     53                     54
                      A                      A                      A
 Frequencies --   1494.8092              1506.5501              1521.1661
 Red. masses --      2.6575                 2.6945                 3.3338
 Frc consts  --      3.4985                 3.6032                 4.5451
 IR Inten    --     15.7826               132.7132                90.1337

                     55                     56                     57
                      A                      A                      A
 Frequencies --   1572.5466              1603.1386              1621.2968
 Red. masses --      4.1998                 4.8694                 8.3091
 Frc consts  --      6.1190                 7.3734                12.8685
 IR Inten    --   1538.6363               192.0059               449.9779

                     58                     59                     60
                      A                      A                      A
 Frequencies --   1668.5190              1682.4565              1712.3481
 Red. masses --      7.0627                 7.0253                 6.5120
 Frc consts  --     11.5846                11.7167                11.2499
 IR Inten    --     41.3694                93.3731               245.3901

                     61                     62                     63
                      A                      A                      A
 Frequencies --   2955.2911              3184.5057              3195.4304
 Red. masses --      1.0961                 1.0891                 1.0881
 Frc consts  --      5.6403                 6.5075                 6.5461
 IR Inten    --    433.3674                 4.0300                14.5139

                     64                     65                     66
                      A                      A                      A
 Frequencies --   3217.2935              3222.3905              3227.6473
 Red. masses --      1.0864                 1.0947                 1.0910
 Frc consts  --      6.6257                 6.6973                 6.6962
 IR Inten    --      1.4936                24.4380                 3.1796

                     67                     68                     69
                      A                      A                      A
 Frequencies --   3235.0095              3237.5734              3243.5208
 Red. masses --      1.0972                 1.0961                 1.0998
 Frc consts  --      6.7650                 6.7691                 6.8168
 IR Inten    --     18.5939                 6.5983                 9.2265

 - Thermochemistry -
 -------------------
 Temperature   298.150 Kelvin.  Pressure   1.00000 Atm.
 Atom     1 has atomic number  6 and mass  12.00000

 Molecular mass:   227.04049 amu.
 Principal axes and moments of inertia in atomic units:
                           1         2         3
     Eigenvalues --  1300.710966304.397187605.10814
           X           -0.70419   0.71001   0.00000
           Y            0.71001   0.70419  -0.00001
           Z            0.00001   0.00000   1.00000
 This molecule is an asymmetric top.
 Rotational symmetry number  1.
 Warning -- assumption of classical behavior for rotation
           may cause significant error
 Rotational temperatures (Kelvin)      0.06659     0.01374     0.01139
 Rotational constants (GHZ):           1.38750     0.28627     0.23731
 Zero-point vibrational energy     496123.5 (Joules/Mol)
                                  118.57637 (Kcal/Mol)
 Warning -- explicit consideration of  18 degrees of freedom as
           vibrations may cause significant error
 Vibrational temperatures:     80.62   108.26   162.33   201.93   286.97
          (Kelvin)            337.44   385.88   446.03   447.70   588.02
                              618.55   647.91   736.13   763.39   776.24
                              800.15   809.51   840.21   919.75   930.67
                             1033.66  1057.61  1081.35  1096.44  1117.98
                             1119.50  1196.58  1237.59  1262.24  1271.26
                             1343.67  1379.00  1393.45  1397.89  1460.46
                             1463.00  1499.94  1519.91  1551.52  1618.52
                             1668.84  1670.26  1701.98  1723.15  1810.84
                             1855.73  1900.18  1964.06  1990.50  2009.19
                             2042.45  2150.70  2167.59  2188.62  2262.54
                             2306.56  2332.68  2400.63  2420.68  2463.69
                             4252.00  4581.79  4597.51  4628.97  4636.30
                             4643.86  4654.46  4658.15  4666.70

 Zero-point correction=                           0.188963 (Hartree/Particle)
 Thermal correction to Energy=                    0.200722
 Thermal correction to Enthalpy=                  0.201666
 Thermal correction to Gibbs Free Energy=         0.150490
 Sum of electronic and zero-point Energies=          -1028.624402
 Sum of electronic and thermal Energies=             -1028.612643
 Sum of electronic and thermal Enthalpies=           -1028.611699
 Sum of electronic and thermal Free Energies=        -1028.662875

                     E (Thermal)             CV                S
                      KCal/Mol        Cal/Mol-Kelvin    Cal/Mol-Kelvin
 Total                  125.955             47.903            107.709
 Electronic               0.000              0.000              0.000
 Translational            0.889              2.981             42.162
 Rotational               0.889              2.981             32.500
 Vibrational            124.178             41.942             33.047
 Vibration     1          0.596              1.975              4.592
 Vibration     2          0.599              1.966              4.011
 Vibration     3          0.607              1.939              3.220
 Vibration     4          0.615              1.913              2.799
 Vibration     5          0.638              1.841              2.138
 Vibration     6          0.654              1.788              1.844
 Vibration     7          0.673              1.732              1.608
 Vibration     8          0.699              1.655              1.362
 Vibration     9          0.700              1.652              1.356
 Vibration    10          0.773              1.451              0.931
 Vibration    11          0.791              1.405              0.859
 Vibration    12          0.809              1.360              0.795
 Vibration    13          0.867              1.224              0.630
 Vibration    14          0.886              1.182              0.586
 Vibration    15          0.895              1.163              0.566
 Vibration    16          0.912              1.126              0.532
 Vibration    17          0.918              1.112              0.519
 Vibration    18          0.941              1.066              0.478

 Optimization completed.
    -- Stationary point found.
 Normal termination of Gaussian 16 at Tue Oct 27 23:01:23 2020.
