 Gaussian 16, Revision C.01,
 Gaussian 16:  ES64L-G16RevC.01  3-Jul-2019

 ----------------------------------------------------------------------
 #p opt=addgic freq wb97xd/cc-pvdz nosymm int=ultrafine scrf=(solvent=C
 arbonTetraChloride)
 ----------------------------------------------------------------------

 ------------------------------------------------
 NM 2D-scan of HBT TD-WB97XD pVDZ in CTC Relaxed.
 ------------------------------------------------
 Symbolic Z-matrix:
 Charge =  0 Multiplicity = 1

 SCF Done:  E(RwB97XD) =  -1028.65824204     A.U. after   15 cycles
 SCF Done:  E(RwB97XD) =  -1028.79761121     A.U. after   13 cycles
 SCF Done:  E(RwB97XD) =  -1028.81313191     A.U. after   15 cycles
 SCF Done:  E(RwB97XD) =  -1028.82899207     A.U. after   13 cycles
 SCF Done:  E(RwB97XD) =  -1028.83008921     A.U. after   12 cycles
 SCF Done:  E(RwB97XD) =  -1028.83020605     A.U. after   11 cycles
 SCF Done:  E(RwB97XD) =  -1028.83021809     A.U. after    9 cycles
 SCF Done:  E(RwB97XD) =  -1028.83021915     A.U. after    8 cycles
 Optimization completed.
    -- Stationary point found.
 Normal termination of Gaussian 16 at Wed Oct 28 00:26:06 2020.

 --------------------------------------------------------------------
 #P Geom=AllCheck Guess=TCheck SCRF=Check GenChk RwB97XD/CC-pVDZ Freq
 --------------------------------------------------------------------

 Structure from the checkpoint file:  "config_1_15.chk"
 ------------------------------------------------
 NM 2D-scan of HBT TD-WB97XD pVDZ in CTC Relaxed.
 ------------------------------------------------
 Charge =  0 Multiplicity = 1

                          Input orientation:
 ---------------------------------------------------------------------
 Center     Atomic      Atomic             Coordinates (Angstroms)
 Number     Number       Type             X           Y           Z
 ---------------------------------------------------------------------
      1          6           0        1.577125   -3.311964   -0.000022
      2          6           0        0.973294   -2.051871   -0.000012
      3          6           0        1.737452   -0.868197   -0.000010
      4          6           0        3.136082   -0.943824   -0.000017
      5          6           0        3.738151   -2.193294   -0.000027
      6          6           0        2.965833   -3.367294   -0.000029
      7          1           0        0.979404   -4.223934   -0.000023
      8          1           0        3.723681   -0.025145   -0.000015
      9          1           0        4.826626   -2.267182   -0.000033
     10          1           0        3.462394   -4.338829   -0.000037
     11          7           0        1.004015    0.306624    0.000000
     12         16           0       -0.723924   -1.642932   -0.000001
     13          6           0       -1.298486    1.123769    0.000015
     14          6           0       -2.668332    0.795157    0.000013
     15          6           0       -0.932265    2.493243    0.000030
     16          6           0       -3.650206    1.768863    0.000026
     17          1           0       -2.964444   -0.256324    0.000000
     18          6           0       -1.934921    3.473884    0.000044
     19          6           0       -3.272418    3.118203    0.000043
     20          1           0       -4.702990    1.486734    0.000024
     21          1           0       -1.621933    4.518516    0.000055
     22          1           0       -4.034991    3.899147    0.000053
     23          6           0       -0.277664    0.074430    0.000004
     24          8           0        0.335351    2.932064    0.000028
     25          1           0        0.929776    2.154634    0.000012
 ---------------------------------------------------------------------

 SCF Done:  E(RwB97XD) =  -1028.83021915     A.U. after    1 cycles

 Alpha  occ. eigenvalues --  -89.08404 -19.28837 -14.46898 -10.39303 -10.37612
 Alpha  occ. eigenvalues --  -10.34760 -10.34656 -10.32532 -10.32212 -10.31926
 Alpha  occ. eigenvalues --  -10.31500 -10.31489 -10.31488 -10.31332 -10.30373
 Alpha  occ. eigenvalues --  -10.30267  -8.10441  -6.05293  -6.04939  -6.04490
 Alpha  occ. eigenvalues --   -1.16839  -1.08669  -0.97261  -0.96220  -0.91463
 Alpha  occ. eigenvalues --   -0.88529  -0.85403  -0.84690  -0.82789  -0.75440
 Alpha  occ. eigenvalues --   -0.71520  -0.70670  -0.69403  -0.68144  -0.63190
 Alpha  occ. eigenvalues --   -0.60283  -0.58705  -0.58482  -0.56572  -0.54542
 Alpha  occ. eigenvalues --   -0.53811  -0.53101  -0.52873  -0.50717  -0.50507
 Alpha  occ. eigenvalues --   -0.49106  -0.47828  -0.45831  -0.45395  -0.45000
 Alpha  occ. eigenvalues --   -0.43977  -0.43085  -0.42359  -0.39630  -0.37513
 Alpha  occ. eigenvalues --   -0.36177  -0.31970  -0.31766  -0.29250
 Alpha virt. eigenvalues --   -0.00411   0.04946   0.06730   0.07086   0.07917
 Alpha virt. eigenvalues --    0.11574   0.14175   0.15227   0.16645   0.18009
 Alpha virt. eigenvalues --    0.18816   0.20467   0.21571   0.22499   0.22671

 Mulliken charges:
               1
     1  C    0.008977
     2  C   -0.204472
     3  C    0.205402
     4  C   -0.016043
     5  C    0.004923
     6  C   -0.000044
     7  H    0.018185
     8  H    0.016116
     9  H    0.018818
    10  H    0.020827
    11  N   -0.335638
    12  S    0.136261
    13  C   -0.039319
    14  C   -0.028995
    15  C    0.054074
    16  C   -0.003070
    17  H    0.019553
    18  C    0.014429
    19  C    0.020518
    20  H    0.010423
    21  H    0.018077
    22  H    0.019153
    23  C    0.077016
    24  O   -0.191629
    25  H    0.156459
 Sum of Mulliken charges =  -0.00000

 Dipole moment (field-independent basis, Debye):
    X=             -0.1954    Y=             -2.1670    Z=             -0.0000  Tot=              2.1758
 Quadrupole moment (field-independent basis, Debye-Ang):
   XX=            -82.6983   YY=            -89.8603   ZZ=           -104.1477
   XY=             -6.9593   XZ=             -0.0001   YZ=              0.0001

  Exact polarizability:     273.443     -66.352     254.752      -0.001       0.002      62.964
 Approx polarizability:     261.820     -22.554     242.403      -0.001       0.001      82.161

                      1                      2                      3
                      A                      A                      A
 Frequencies --     47.8635                61.2220               118.5953
 Red. masses --      6.1684                 5.0933                 5.7005
 Frc consts  --      0.0083                 0.0112                 0.0472
 IR Inten    --      0.4410                 0.6422                 1.2658

                      4                      5                      6
                      A                      A                      A
 Frequencies --    150.9333               198.3908               246.5615
 Red. masses --      4.9895                 5.9691                 5.6612
 Frc consts  --      0.0670                 0.1384                 0.2028
 IR Inten    --      0.0000                 0.6891                 0.0143

                      7                      8                      9
                      A                      A                      A
 Frequencies --    262.4924               295.4435               328.7081
 Red. masses --      8.0212                 6.3157                 5.0621
 Frc consts  --      0.3256                 0.3248                 0.3223
 IR Inten    --      4.1539                 5.0721                 0.1495

                     10                     11                     12
                      A                      A                      A
 Frequencies --    409.3374               439.1542               470.2470
 Red. masses --      8.8000                 3.1351                 3.7247
 Frc consts  --      0.8688                 0.3562                 0.4853
 IR Inten    --      0.3119                 1.9396                 8.0999

                     13                     14                     15
                      A                      A                      A
 Frequencies --    504.7656               516.2865               537.5642
 Red. masses --      4.8701                 8.6946                 3.4334
 Frc consts  --      0.7311                 1.3655                 0.5846
 IR Inten    --      5.7931                 0.1469                 3.9071

                     16                     17                     18
                      A                      A                      A
 Frequencies --    547.9198               575.5518               592.5505
 Red. masses --      8.4441                 3.7510                 7.7279
 Frc consts  --      1.4936                 0.7321                 1.5987
 IR Inten    --      2.1830                 0.0129                 6.6345

                     19                     20                     21
                      A                      A                      A
 Frequencies --    641.8411               675.8557               704.2136
 Red. masses --      4.1279                 6.6923                 1.2059
 Frc consts  --      1.0019                 1.8011                 0.3523
 IR Inten    --      5.2265                 2.9187                85.5543

                     22                     23                     24
                      A                      A                      A
 Frequencies --    715.8303               730.2482               756.3621
 Red. masses --      8.4673                 7.6187                 1.8917
 Frc consts  --      2.5563                 2.3937                 0.6376
 IR Inten    --     39.8887                 1.2864                25.5890

                     25                     26                     27
                      A                      A                      A
 Frequencies --    769.3419               778.5606               788.5683
 Red. masses --      3.0804                 1.3649                 1.9919
 Frc consts  --      1.0742                 0.4875                 0.7298
 IR Inten    --     24.3846                35.1559                42.1843

                     28                     29                     30
                      A                      A                      A
 Frequencies --    845.2997               884.5124               887.8941
 Red. masses --      6.1075                 1.5407                 6.4702
 Frc consts  --      2.5712                 0.7102                 3.0053
 IR Inten    --     21.3988                 4.0045                 4.5205

                     31                     32                     33
                      A                      A                      A
 Frequencies --    888.1582               971.1088               976.2593
 Red. masses --      1.4269                 1.3600                 1.3667
 Frc consts  --      0.6631                 0.7557                 0.7674
 IR Inten    --      0.7462                 1.1084                 1.5571

                     34                     35                     36
                      A                      A                      A
 Frequencies --    986.8595              1011.9634              1015.2703
 Red. masses --      7.7527                 1.3036                 1.3051
 Frc consts  --      4.4485                 0.7865                 0.7926
 IR Inten    --     60.6265                 0.3652                 0.0187

                     37                     38                     39
                      A                      A                      A
 Frequencies --   1051.6531              1076.4522              1102.2481
 Red. masses --      1.9979                 1.9958                 4.0140
 Frc consts  --      1.3019                 1.3626                 2.8733
 IR Inten    --      8.5045                11.2455                 6.7674

                     40                     41                     42
                      A                      A                      A
 Frequencies --   1153.3829              1154.0414              1181.7425
 Red. masses --      1.4759                 1.3322                 1.1794
 Frc consts  --      1.1568                 1.0453                 0.9704
 IR Inten    --      2.2898                 3.8839                35.2676

                     43                     44                     45
                      A                      A                      A
 Frequencies --   1185.3832              1243.0638              1280.9882
 Red. masses --      1.2431                 1.9758                 1.8250
 Frc consts  --      1.0291                 1.7988                 1.7644
 IR Inten    --      7.2982               179.2368                19.1036

                     46                     47                     48
                      A                      A                      A
 Frequencies --   1294.7880              1324.7674              1337.2478
 Red. masses --      1.7390                 4.7459                 2.8746
 Frc consts  --      1.7177                 4.9074                 3.0286
 IR Inten    --     55.2101                40.7468                 1.0371

                     49                     50                     51
                      A                      A                      A
 Frequencies --   1368.2273              1377.9530              1436.1479
 Red. masses --      7.6564                 3.4951                 1.6326
 Frc consts  --      8.4448                 3.9100                 1.9839
 IR Inten    --     15.9073                10.0321                77.2820

                     52                     53                     54
                      A                      A                      A
 Frequencies --   1486.7693              1503.4345              1522.0677
 Red. masses --      2.6312                 2.8715                 3.0735
 Frc consts  --      3.4269                 3.8240                 4.1952
 IR Inten    --     40.1903                 6.0007                45.6341

                     55                     56                     57
                      A                      A                      A
 Frequencies --   1541.6420              1599.0316              1643.5117
 Red. masses --      2.6949                 8.4928                 6.7187
 Frc consts  --      3.7737                12.7943                10.6926
 IR Inten    --    144.7344               192.5560                 6.5717

                     58                     59                     60
                      A                      A                      A
 Frequencies --   1659.3358              1681.5016              1710.0444
 Red. masses --      5.3828                 6.9127                 6.0709
 Frc consts  --      8.7323                11.5158                10.4597
 IR Inten    --    112.4840                 3.6860               102.6517

                     61                     62                     63
                      A                      A                      A
 Frequencies --   3204.1611              3210.7960              3214.1827
 Red. masses --      1.0878                 1.0861                 1.0889
 Frc consts  --      6.5801                 6.5967                 6.6278
 IR Inten    --      3.8147                 1.2705                 7.3479

                     64                     65                     66
                      A                      A                      A
 Frequencies --   3222.1880              3231.6088              3232.8514
 Red. masses --      1.0905                 1.0942                 1.0959
 Frc consts  --      6.6709                 6.7328                 6.7484
 IR Inten    --      5.3722                10.3972                11.4276

                     67                     68                     69
                      A                      A                      A
 Frequencies --   3238.6541              3239.4803              3546.1211
 Red. masses --      1.0994                 1.0997                 1.0669
 Frc consts  --      6.7943                 6.7993                 7.9046
 IR Inten    --     17.8620                12.0854               541.7669

 - Thermochemistry -
 -------------------
 Temperature   298.150 Kelvin.  Pressure   1.00000 Atm.
 Atom     1 has atomic number  6 and mass  12.00000

 Molecular mass:   227.04049 amu.
 Principal axes and moments of inertia in atomic units:
                           1         2         3
     Eigenvalues --  1311.587826385.936327697.52414
           X           -0.69482   0.71919   0.00000
           Y            0.71919   0.69482  -0.00001
           Z            0.00001   0.00000   1.00000
 This molecule is an asymmetric top.
 Rotational symmetry number  1.
 Warning -- assumption of classical behavior for rotation
           may cause significant error
 Rotational temperatures (Kelvin)      0.06604     0.01356     0.01125
 Rotational constants (GHZ):           1.37600     0.28261     0.23446
 Zero-point vibrational energy     499962.5 (Joules/Mol)
                                  119.49391 (Kcal/Mol)
 Warning -- explicit consideration of  18 degrees of freedom as
           vibrations may cause significant error
 Vibrational temperatures:     68.86    88.08   170.63   217.16   285.44
          (Kelvin)            354.75   377.67   425.08   472.94   588.95
                              631.84   676.58   726.25   742.82   773.43
                              788.33   828.09   852.55   923.47   972.41
                             1013.21  1029.92  1050.66  1088.24  1106.91
                             1120.18  1134.57  1216.20  1272.62  1277.48
                             1277.86  1397.21  1404.62  1419.87  1455.99
                             1460.75  1513.09  1548.77  1585.89  1659.46
                             1660.41  1700.26  1705.50  1788.49  1843.06
                             1862.91  1906.04  1924.00  1968.57  1982.57
                             2066.30  2139.13  2163.11  2189.92  2218.08
                             2300.65  2364.65  2387.41  2419.31  2460.37
                             4610.07  4619.62  4624.49  4636.01  4649.56
                             4651.35  4659.70  4660.89  5102.08

 Zero-point correction=                           0.190426 (Hartree/Particle)
 Thermal correction to Energy=                    0.202189
 Thermal correction to Enthalpy=                  0.203133
 Thermal correction to Gibbs Free Energy=         0.151743
 Sum of electronic and zero-point Energies=          -1028.639793
 Sum of electronic and thermal Energies=             -1028.628030
 Sum of electronic and thermal Enthalpies=           -1028.627086
 Sum of electronic and thermal Free Energies=        -1028.678476

                     E (Thermal)             CV                S
                      KCal/Mol        Cal/Mol-Kelvin    Cal/Mol-Kelvin
 Total                  126.875             47.900            108.159
 Electronic               0.000              0.000              0.000
 Translational            0.889              2.981             42.162
 Rotational               0.889              2.981             32.533
 Vibrational            125.098             41.938             33.464
 Vibration     1          0.595              1.978              4.904
 Vibration     2          0.597              1.973              4.417
 Vibration     3          0.609              1.934              3.123
 Vibration     4          0.618              1.902              2.660
 Vibration     5          0.637              1.842              2.148
 Vibration     6          0.661              1.768              1.755
 Vibration     7          0.670              1.742              1.645
 Vibration     8          0.690              1.682              1.443
 Vibration     9          0.712              1.618              1.266
 Vibration    10          0.774              1.450              0.929
 Vibration    11          0.799              1.385              0.829
 Vibration    12          0.827              1.316              0.737
 Vibration    13          0.860              1.239              0.646
 Vibration    14          0.871              1.214              0.619
 Vibration    15          0.893              1.167              0.571
 Vibration    16          0.903              1.144              0.548
 Vibration    17          0.932              1.084              0.494
 Vibration    18          0.950              1.048              0.463

 Optimization completed.
    -- Stationary point found.
 Normal termination of Gaussian 16 at Wed Oct 28 00:32:03 2020.
