 Gaussian 16, Revision C.01,
 Gaussian 16:  ES64L-G16RevC.01  3-Jul-2019

 ----------------------------------------------------------------------
 #p opt=addgic freq wb97xd/cc-pvdz nosymm int=ultrafine scrf=(solvent=C
 arbonTetraChloride)
 ----------------------------------------------------------------------

 ------------------------------------------------
 NM 2D-scan of HBT TD-WB97XD pVDZ in CTC Relaxed.
 ------------------------------------------------
 Symbolic Z-matrix:
 Charge =  0 Multiplicity = 1

 SCF Done:  E(RwB97XD) =  -1028.44697528     A.U. after   16 cycles
 SCF Done:  E(RwB97XD) =  -1028.68862431     A.U. after   14 cycles
 SCF Done:  E(RwB97XD) =  -1028.77559620     A.U. after   15 cycles
 SCF Done:  E(RwB97XD) =  -1028.78977287     A.U. after   13 cycles
 SCF Done:  E(RwB97XD) =  -1028.79184318     A.U. after   13 cycles
 SCF Done:  E(RwB97XD) =  -1028.79216857     A.U. after   12 cycles
 SCF Done:  E(RwB97XD) =  -1028.79220854     A.U. after   11 cycles
 SCF Done:  E(RwB97XD) =  -1028.79221071     A.U. after    9 cycles
 Optimization completed.
    -- Stationary point found.
 Normal termination of Gaussian 16 at Wed Oct 28 00:41:05 2020.

 --------------------------------------------------------------------
 #P Geom=AllCheck Guess=TCheck SCRF=Check GenChk RwB97XD/CC-pVDZ Freq
 --------------------------------------------------------------------

 Structure from the checkpoint file:  "config_12_14.chk"
 ------------------------------------------------
 NM 2D-scan of HBT TD-WB97XD pVDZ in CTC Relaxed.
 ------------------------------------------------
 Charge =  0 Multiplicity = 1

                          Input orientation:
 ---------------------------------------------------------------------
 Center     Atomic      Atomic             Coordinates (Angstroms)
 Number     Number       Type             X           Y           Z
 ---------------------------------------------------------------------
      1          6           0        1.596450   -3.283739    0.000012
      2          6           0        1.006406   -2.027290    0.000008
      3          6           0        1.777236   -0.884095   -0.000020
      4          6           0        3.170715   -0.933264   -0.000036
      5          6           0        3.763701   -2.195520   -0.000029
      6          6           0        2.986834   -3.357240   -0.000007
      7          1           0        0.987399   -4.187236    0.000026
      8          1           0        3.772096   -0.022760   -0.000056
      9          1           0        4.851759   -2.270874   -0.000041
     10          1           0        3.473127   -4.332982   -0.000006
     11          7           0        0.961306    0.238798   -0.000040
     12         16           0       -0.710657   -1.603167    0.000028
     13          6           0       -1.358144    1.123519   -0.000006
     14          6           0       -2.739799    0.809286   -0.000025
     15          6           0       -0.877713    2.503109    0.000044
     16          6           0       -3.700475    1.793390    0.000007
     17          1           0       -3.050656   -0.239823   -0.000068
     18          6           0       -1.961696    3.501009    0.000082
     19          6           0       -3.289394    3.154017    0.000064
     20          1           0       -4.759102    1.532233   -0.000011
     21          1           0       -1.662869    4.551380    0.000127
     22          1           0       -4.053452    3.936137    0.000092
     23          6           0       -0.383080    0.099392   -0.000015
     24          8           0        0.332814    2.745565    0.000053
     25          1           0        1.543506    1.033743   -0.000097
 ---------------------------------------------------------------------

 SCF Done:  E(RwB97XD) =  -1028.79221071     A.U. after    1 cycles

 Alpha  occ. eigenvalues --  -89.09797 -19.20974 -14.52283 -10.41805 -10.36923
 Alpha  occ. eigenvalues --  -10.35889 -10.35698 -10.33283 -10.33215 -10.32708
 Alpha  occ. eigenvalues --  -10.32320 -10.31051 -10.30642 -10.30263 -10.29050
 Alpha  occ. eigenvalues --  -10.28585  -8.11873  -6.06762  -6.06361  -6.05875
 Alpha  occ. eigenvalues --   -1.13112  -1.10210  -0.98667  -0.95582  -0.93313
 Alpha  occ. eigenvalues --   -0.89162  -0.86661  -0.83950  -0.81535  -0.75579
 Alpha  occ. eigenvalues --   -0.74439  -0.71794  -0.69532  -0.67775  -0.64280
 Alpha  occ. eigenvalues --   -0.60903  -0.59776  -0.56625  -0.56009  -0.56004
 Alpha  occ. eigenvalues --   -0.55016  -0.53645  -0.52934  -0.50123  -0.49298
 Alpha  occ. eigenvalues --   -0.49003  -0.48249  -0.46712  -0.45667  -0.44712
 Alpha  occ. eigenvalues --   -0.44506  -0.42847  -0.41809  -0.40354  -0.36948
 Alpha  occ. eigenvalues --   -0.33622  -0.31689  -0.31048  -0.25996
 Alpha virt. eigenvalues --   -0.01342   0.03722   0.05903   0.07028   0.09689
 Alpha virt. eigenvalues --    0.11341   0.13659   0.14574   0.15879   0.16593
 Alpha virt. eigenvalues --    0.17985   0.19729   0.21017   0.21616   0.22872

 Mulliken charges:
               1
     1  C    0.013424
     2  C   -0.236895
     3  C    0.200788
     4  C   -0.014728
     5  C    0.010492
     6  C    0.004682
     7  H    0.023673
     8  H    0.031235
     9  H    0.027873
    10  H    0.026090
    11  N   -0.094880
    12  S    0.177214
    13  C   -0.094058
    14  C   -0.016103
    15  C    0.098314
    16  C   -0.035319
    17  H    0.008535
    18  C   -0.049227
    19  C    0.029221
    20  H    0.001878
    21  H    0.001054
    22  H    0.013851
    23  C    0.108347
    24  O   -0.352295
    25  H    0.116833
 Sum of Mulliken charges =  -0.00000

 Dipole moment (field-independent basis, Debye):
    X=              2.3368    Y=             -5.3901    Z=             -0.0002  Tot=              5.8749
 Quadrupole moment (field-independent basis, Debye-Ang):
   XX=            -80.9077   YY=            -95.9487   ZZ=           -103.9798
   XY=             -6.4205   XZ=             -0.0004   YZ=             -0.0003

  Exact polarizability:     291.939     -92.880     289.713      -0.002       0.002      62.905
 Approx polarizability:     268.484     -36.163     254.705      -0.001       0.001      81.898

 ******    1 imaginary frequencies (negative Signs) ******

                      1                      2                      3
                      A                      A                      A
 Frequencies --    -97.5230                52.8850                68.9284
 Red. masses --      2.4503                 5.5731                 6.1660
 Frc consts  --      0.0137                 0.0092                 0.0173
 IR Inten    --     19.0000                 0.0005                 1.9010

                      4                      5                      6
                      A                      A                      A
 Frequencies --    113.9776               185.1328               203.7089
 Red. masses --      5.7221                 4.3626                 4.1995
 Frc consts  --      0.0438                 0.0881                 0.1027
 IR Inten    --      0.8770                 5.2810                18.5755

                      7                      8                      9
                      A                      A                      A
 Frequencies --    264.7208               268.1712               297.5053
 Red. masses --      2.2302                 7.9083                 7.5878
 Frc consts  --      0.0921                 0.3351                 0.3957
 IR Inten    --     27.6069                 3.9492                 3.5860

                     10                     11                     12
                      A                      A                      A
 Frequencies --    332.2024               389.8240               431.1302
 Red. masses --      3.2038                 7.7340                 2.9407
 Frc consts  --      0.2083                 0.6925                 0.3220
 IR Inten    --     15.7837                 3.4940                 3.8908

                     13                     14                     15
                      A                      A                      A
 Frequencies --    441.1523               504.1949               519.6530
 Red. masses --      3.4703                 8.0878                 2.6468
 Frc consts  --      0.3979                 1.2114                 0.4211
 IR Inten    --      7.4474                 9.9610                 3.2530

                     16                     17                     18
                      A                      A                      A
 Frequencies --    533.1292               545.4025               563.3340
 Red. masses --      7.1352                 7.4468                 3.8009
 Frc consts  --      1.1949                 1.3051                 0.7107
 IR Inten    --      4.5442                12.3068                 0.0027

                     19                     20                     21
                      A                      A                      A
 Frequencies --    579.7105               627.9061               659.0137
 Red. masses --      7.4783                 6.8719                 6.5023
 Frc consts  --      1.4807                 1.5963                 1.6638
 IR Inten    --     41.1106                 0.7714                 0.1004

                     22                     23                     24
                      A                      A                      A
 Frequencies --    706.6934               741.2207               749.9083
 Red. masses --      5.5997                 7.2081                 2.5547
 Frc consts  --      1.6477                 2.3333                 0.8465
 IR Inten    --     52.7638                40.6861                13.0457

                     25                     26                     27
                      A                      A                      A
 Frequencies --    757.7656               774.1898               778.8896
 Red. masses --      1.4236                 1.5926                 2.4103
 Frc consts  --      0.4816                 0.5624                 0.8615
 IR Inten    --     47.9063                52.5461                17.3667

                     28                     29                     30
                      A                      A                      A
 Frequencies --    827.9769               874.6839               878.9188
 Red. masses --      6.2712                 2.0909                 1.3790
 Frc consts  --      2.5330                 0.9425                 0.6277
 IR Inten    --     25.7442                15.2735                 0.9318

                     31                     32                     33
                      A                      A                      A
 Frequencies --    897.5586               965.0096               968.9091
 Red. masses --      6.0661                 1.3243                 1.3603
 Frc consts  --      2.8793                 0.7266                 0.7524
 IR Inten    --      2.2359                 0.0952                 1.5339

                     34                     35                     36
                      A                      A                      A
 Frequencies --    981.2895              1012.9278              1016.9789
 Red. masses --      4.9889                 1.3028                 1.3069
 Frc consts  --      2.8304                 0.7876                 0.7964
 IR Inten    --     20.6342                 0.0023                 0.3191

                     37                     38                     39
                      A                      A                      A
 Frequencies --   1045.7039              1059.5411              1098.3634
 Red. masses --      2.0933                 2.1029                 3.8093
 Frc consts  --      1.3486                 1.3909                 2.7076
 IR Inten    --      8.8428                12.6637                 0.9383

                     40                     41                     42
                      A                      A                      A
 Frequencies --   1127.7325              1157.3400              1161.8352
 Red. masses --      1.8379                 1.3644                 1.1645
 Frc consts  --      1.3772                 1.0768                 0.9262
 IR Inten    --     51.5455                 2.5800                85.6176

                     43                     44                     45
                      A                      A                      A
 Frequencies --   1181.6400              1196.8035              1225.7062
 Red. masses --      1.1515                 1.1970                 2.4392
 Frc consts  --      0.9473                 1.0102                 2.1591
 IR Inten    --     22.7295                13.1720                52.3221

                     46                     47                     48
                      A                      A                      A
 Frequencies --   1276.0567              1308.0040              1353.1837
 Red. masses --      2.1272                 1.7332                 2.5970
 Frc consts  --      2.0408                 1.7471                 2.8018
 IR Inten    --     81.2695               144.6235                34.7247

                     49                     50                     51
                      A                      A                      A
 Frequencies --   1385.2362              1397.6358              1411.1520
 Red. masses --      4.5802                 6.1620                 2.2035
 Frc consts  --      5.1782                 7.0919                 2.5853
 IR Inten    --    152.8121                60.3352                15.6108

                     52                     53                     54
                      A                      A                      A
 Frequencies --   1489.6890              1504.8386              1530.8382
 Red. masses --      3.1744                 3.0399                 4.1692
 Frc consts  --      4.1505                 4.0559                 5.7566
 IR Inten    --    355.3695               859.8324              1405.5340

                     55                     56                     57
                      A                      A                      A
 Frequencies --   1538.3035              1590.3229              1654.7592
 Red. masses --      2.9864                 6.7489                 5.8103
 Frc consts  --      4.1638                10.0566                 9.3739
 IR Inten    --     13.3302                35.5728                71.4432

                     58                     59                     60
                      A                      A                      A
 Frequencies --   1678.9176              1710.7474              1750.1365
 Red. masses --      7.0844                 7.8242                10.0676
 Frc consts  --     11.7655                13.4916                18.1686
 IR Inten    --     27.0620                16.9185               465.3782

                     61                     62                     63
                      A                      A                      A
 Frequencies --   3181.6607              3192.5544              3215.3190
 Red. masses --      1.0887                 1.0877                 1.0875
 Frc consts  --      6.4936                 6.5320                 6.6240
 IR Inten    --      3.5106                14.1780                 1.4489

                     64                     65                     66
                      A                      A                      A
 Frequencies --   3216.8625              3224.5120              3229.4371
 Red. masses --      1.0940                 1.0912                 1.0973
 Frc consts  --      6.6704                 6.6846                 6.7428
 IR Inten    --     33.1141                 1.2600                20.5840

                     67                     68                     69
                      A                      A                      A
 Frequencies --   3234.2118              3244.0016              3980.7584
 Red. masses --      1.0954                 1.0992                 1.0779
 Frc consts  --      6.7509                 6.8153                10.0641
 IR Inten    --      4.9662                12.3593               130.0606

 - Thermochemistry -
 -------------------
 Temperature   298.150 Kelvin.  Pressure   1.00000 Atm.
 Atom     1 has atomic number  6 and mass  12.00000

 Molecular mass:   227.04049 amu.
 Principal axes and moments of inertia in atomic units:
                           1         2         3
     Eigenvalues --  1266.217346440.824207707.04153
           X           -0.70650   0.70771   0.00000
           Y            0.70771   0.70650  -0.00001
           Z            0.00001   0.00000   1.00000
 This molecule is an asymmetric top.
 Rotational symmetry number  1.
 Warning -- assumption of classical behavior for rotation
           may cause significant error
 Rotational temperatures (Kelvin)      0.06840     0.01345     0.01124
 Rotational constants (GHZ):           1.42530     0.28020     0.23417
    1 imaginary frequencies ignored.
 Zero-point vibrational energy     496859.4 (Joules/Mol)
                                  118.75225 (Kcal/Mol)
 Warning -- explicit consideration of  18 degrees of freedom as
           vibrations may cause significant error
 Vibrational temperatures:     76.09    99.17   163.99   266.36   293.09
          (Kelvin)            380.87   385.84   428.04   477.97   560.87
                              620.30   634.72   725.42   747.66   767.05
                              784.71   810.51   834.07   903.42   948.17
                             1016.77  1066.45  1078.95  1090.26  1113.89
                             1120.65  1191.27  1258.48  1264.57  1291.39
                             1388.43  1394.04  1411.86  1457.38  1463.21
                             1504.53  1524.44  1580.30  1622.56  1665.15
                             1671.62  1700.12  1721.93  1763.52  1835.96
                             1881.93  1946.93  1993.05  2010.89  2030.33
                             2143.33  2165.13  2202.53  2213.28  2288.12
                             2380.83  2415.59  2461.38  2518.06  4577.70
                             4593.37  4626.13  4628.35  4639.35  4646.44
                             4653.31  4667.39  5727.42

 Zero-point correction=                           0.189244 (Hartree/Particle)
 Thermal correction to Energy=                    0.200886
 Thermal correction to Enthalpy=                  0.201831
 Thermal correction to Gibbs Free Energy=         0.150886
 Sum of electronic and zero-point Energies=          -1028.602967
 Sum of electronic and thermal Energies=             -1028.591324
 Sum of electronic and thermal Enthalpies=           -1028.590380
 Sum of electronic and thermal Free Energies=        -1028.641325

                     E (Thermal)             CV                S
                      KCal/Mol        Cal/Mol-Kelvin    Cal/Mol-Kelvin
 Total                  126.058             47.447            107.222
 Electronic               0.000              0.000              0.000
 Translational            0.889              2.981             42.162
 Rotational               0.889              2.981             32.508
 Vibrational            124.281             41.486             32.552
 Vibration     1          0.596              1.976              4.706
 Vibration     2          0.598              1.969              4.184
 Vibration     3          0.607              1.938              3.200
 Vibration     4          0.631              1.860              2.276
 Vibration     5          0.639              1.835              2.099
 Vibration     6          0.671              1.738              1.630
 Vibration     7          0.673              1.732              1.608
 Vibration     8          0.691              1.678              1.431
 Vibration     9          0.714              1.611              1.249
 Vibration    10          0.758              1.492              1.001
 Vibration    11          0.792              1.402              0.855
 Vibration    12          0.801              1.380              0.823
 Vibration    13          0.859              1.241              0.648
 Vibration    14          0.875              1.206              0.611
 Vibration    15          0.888              1.177              0.580
 Vibration    16          0.901              1.150              0.554
 Vibration    17          0.919              1.111              0.517
 Vibration    18          0.936              1.075              0.486

 Optimization completed.
    -- Stationary point found.
 Normal termination of Gaussian 16 at Wed Oct 28 00:47:07 2020.
