 Gaussian 16, Revision C.01,
 Gaussian 16:  ES64L-G16RevC.01  3-Jul-2019

 ----------------------------------------------------------------------
 #p opt=addgic freq wb97xd/cc-pvdz nosymm int=ultrafine scrf=(solvent=C
 arbonTetraChloride)
 ----------------------------------------------------------------------

 ------------------------------------------------
 NM 2D-scan of HBT TD-WB97XD pVDZ in CTC Relaxed.
 ------------------------------------------------
 Symbolic Z-matrix:
 Charge =  0 Multiplicity = 1

 SCF Done:  E(RwB97XD) =  -1028.78794850     A.U. after   15 cycles
 SCF Done:  E(RwB97XD) =  -1028.82455631     A.U. after   13 cycles
 SCF Done:  E(RwB97XD) =  -1028.82744751     A.U. after   13 cycles
 SCF Done:  E(RwB97XD) =  -1028.82778897     A.U. after   11 cycles
 SCF Done:  E(RwB97XD) =  -1028.82783124     A.U. after   10 cycles
 SCF Done:  E(RwB97XD) =  -1028.82784026     A.U. after    9 cycles
 Optimization completed.
    -- Stationary point found.
 Normal termination of Gaussian 16 at Wed Oct 28 01:25:12 2020.

 --------------------------------------------------------------------
 #P Geom=AllCheck Guess=TCheck SCRF=Check GenChk RwB97XD/CC-pVDZ Freq
 --------------------------------------------------------------------

 Structure from the checkpoint file:  "config_2_19.chk"
 ------------------------------------------------
 NM 2D-scan of HBT TD-WB97XD pVDZ in CTC Relaxed.
 ------------------------------------------------
 Charge =  0 Multiplicity = 1

                          Input orientation:
 ---------------------------------------------------------------------
 Center     Atomic      Atomic             Coordinates (Angstroms)
 Number     Number       Type             X           Y           Z
 ---------------------------------------------------------------------
      1          6           0        1.516062   -3.281749   -0.000041
      2          6           0        0.989815   -1.991685   -0.000019
      3          6           0        1.788457   -0.832682   -0.000013
      4          6           0        3.183506   -0.989327   -0.000035
      5          6           0        3.716656   -2.275662   -0.000055
      6          6           0        2.895785   -3.415243   -0.000058
      7          1           0        0.859727   -4.152452   -0.000045
      8          1           0        3.832305   -0.112588   -0.000031
      9          1           0        4.800618   -2.400687   -0.000069
     10          1           0        3.344880   -4.409411   -0.000074
     11          7           0        1.056220    0.357343    0.000023
     12         16           0       -0.690234   -1.559268    0.000004
     13          6           0       -1.282259    1.134638    0.000075
     14          6           0       -2.631446    0.747981    0.000085
     15          6           0       -0.939577    2.502664    0.000044
     16          6           0       -3.647631    1.686190    0.000033
     17          1           0       -2.890744   -0.312444    0.000120
     18          6           0       -1.979184    3.451740   -0.000026
     19          6           0       -3.308114    3.044264   -0.000033
     20          1           0       -4.690554    1.369562    0.000033
     21          1           0       -1.715907    4.510236   -0.000058
     22          1           0       -4.095963    3.800066   -0.000081
     23          6           0       -0.230914    0.123997    0.000055
     24          8           0        0.336363    2.891992    0.000099
     25          1           0        0.903885    2.071129    0.000190
 ---------------------------------------------------------------------

 SCF Done:  E(RwB97XD) =  -1028.82784026     A.U. after    1 cycles

 Alpha  occ. eigenvalues --  -89.08284 -19.28430 -14.47218 -10.39255 -10.37489
 Alpha  occ. eigenvalues --  -10.35118 -10.34511 -10.32142 -10.32137 -10.31877
 Alpha  occ. eigenvalues --  -10.31762 -10.31566 -10.31534 -10.31450 -10.30413
 Alpha  occ. eigenvalues --  -10.30356  -8.10435  -6.05274  -6.04916  -6.04488
 Alpha  occ. eigenvalues --   -1.16638  -1.08727  -0.97342  -0.96351  -0.91857
 Alpha  occ. eigenvalues --   -0.88582  -0.85524  -0.84727  -0.82820  -0.75464
 Alpha  occ. eigenvalues --   -0.71650  -0.70698  -0.69388  -0.68070  -0.63329
 Alpha  occ. eigenvalues --   -0.60533  -0.58849  -0.58551  -0.56590  -0.54581
 Alpha  occ. eigenvalues --   -0.54045  -0.53281  -0.53006  -0.50739  -0.50485
 Alpha  occ. eigenvalues --   -0.49128  -0.47539  -0.45939  -0.45520  -0.45061
 Alpha  occ. eigenvalues --   -0.44087  -0.43090  -0.42385  -0.39729  -0.37429
 Alpha  occ. eigenvalues --   -0.36222  -0.32037  -0.31743  -0.29277
 Alpha virt. eigenvalues --   -0.00461   0.04895   0.06731   0.07057   0.08219
 Alpha virt. eigenvalues --    0.11422   0.14538   0.15282   0.17260   0.18116
 Alpha virt. eigenvalues --    0.18917   0.20957   0.21495   0.22548   0.22768

 Mulliken charges:
               1
     1  C    0.016391
     2  C   -0.205769
     3  C    0.205745
     4  C   -0.019914
     5  C    0.002523
     6  C    0.002475
     7  H    0.017615
     8  H    0.018812
     9  H    0.019731
    10  H    0.021083
    11  N   -0.356516
    12  S    0.144582
    13  C   -0.037122
    14  C   -0.034936
    15  C    0.063153
    16  C   -0.003652
    17  H    0.024354
    18  C    0.004566
    19  C    0.021449
    20  H    0.010098
    21  H    0.017975
    22  H    0.019490
    23  C    0.086857
    24  O   -0.204653
    25  H    0.165663
 Sum of Mulliken charges =  -0.00000

 Dipole moment (field-independent basis, Debye):
    X=             -0.3271    Y=             -2.5304    Z=              0.0000  Tot=              2.5515
 Quadrupole moment (field-independent basis, Debye-Ang):
   XX=            -82.7039   YY=            -90.1710   ZZ=           -104.0447
   XY=             -7.2317   XZ=              0.0001   YZ=             -0.0000

  Exact polarizability:     272.658     -67.257     253.529      -0.001       0.000      62.858
 Approx polarizability:     261.006     -22.804     241.621      -0.000      -0.000      82.131

                      1                      2                      3
                      A                      A                      A
 Frequencies --     15.5510                63.6911               125.1258
 Red. masses --      5.5670                 5.6805                 5.6586
 Frc consts  --      0.0008                 0.0136                 0.0522
 IR Inten    --      0.0695                 1.0959                 1.5535

                      4                      5                      6
                      A                      A                      A
 Frequencies --    150.9984               197.4185               246.3515
 Red. masses --      5.0146                 6.0844                 5.5335
 Frc consts  --      0.0674                 0.1397                 0.1979
 IR Inten    --      0.0395                 0.8552                 0.0087

                      7                      8                      9
                      A                      A                      A
 Frequencies --    274.9702               308.1732               330.6523
 Red. masses --      7.7536                 6.3327                 5.0611
 Frc consts  --      0.3454                 0.3543                 0.3260
 IR Inten    --      1.3962                 7.4060                 0.0306

                     10                     11                     12
                      A                      A                      A
 Frequencies --    418.6310               437.9973               467.3685
 Red. masses --      9.5635                 3.1015                 3.6282
 Frc consts  --      0.9875                 0.3506                 0.4669
 IR Inten    --      0.2123                 1.6863                 8.1094

                     13                     14                     15
                      A                      A                      A
 Frequencies --    517.5022               520.0894               536.3177
 Red. masses --      6.9817                 6.2299                 3.4446
 Frc consts  --      1.1016                 0.9929                 0.5838
 IR Inten    --      2.3298                 6.8411                 3.6916

                     16                     17                     18
                      A                      A                      A
 Frequencies --    553.6510               577.0699               590.3563
 Red. masses --      7.6997                 3.7607                 7.6993
 Frc consts  --      1.3906                 0.7379                 1.5810
 IR Inten    --      1.7858                 0.0213                 5.2495

                     19                     20                     21
                      A                      A                      A
 Frequencies --    646.8859               677.9184               734.3249
 Red. masses --      6.0430                 6.7164                 6.5429
 Frc consts  --      1.4899                 1.8186                 2.0787
 IR Inten    --      0.0304                 2.9490                19.6792

                     22                     23                     24
                      A                      A                      A
 Frequencies --    747.4866               756.8444               763.4725
 Red. masses --     10.0870                 1.9136                 3.1914
 Frc consts  --      3.3206                 0.6458                 1.0960
 IR Inten    --     16.2378                33.2972                 0.4345

                     25                     26                     27
                      A                      A                      A
 Frequencies --    773.9810               787.1479               849.9665
 Red. masses --      1.3126                 1.9969                 5.9461
 Frc consts  --      0.4633                 0.7290                 2.5310
 IR Inten    --     63.6595                37.0084                17.2910

                     28                     29                     30
                      A                      A                      A
 Frequencies --    850.5775               881.8871               886.4955
 Red. masses --      1.1239                 1.5457                 6.5674
 Frc consts  --      0.4791                 0.7083                 3.0409
 IR Inten    --     78.5752                 3.4530                 4.7209

                     31                     32                     33
                      A                      A                      A
 Frequencies --    887.8135               967.2307               975.8896
 Red. masses --      1.4174                 1.3666                 1.3676
 Frc consts  --      0.6582                 0.7533                 0.7674
 IR Inten    --      1.2738                 0.9700                 1.6538

                     34                     35                     36
                      A                      A                      A
 Frequencies --   1002.2977              1011.4193              1015.3430
 Red. masses --      7.7208                 1.3049                 1.3056
 Frc consts  --      4.5699                 0.7865                 0.7930
 IR Inten    --     47.9495                 0.4644                 0.0232

                     37                     38                     39
                      A                      A                      A
 Frequencies --   1051.5027              1070.1726              1108.1877
 Red. masses --      1.9904                 1.9043                 3.3218
 Frc consts  --      1.2966                 1.2850                 2.4035
 IR Inten    --      8.5765                 9.9628                 5.5558

                     40                     41                     42
                      A                      A                      A
 Frequencies --   1154.9503              1159.2677              1176.9074
 Red. masses --      1.4306                 1.3812                 1.1459
 Frc consts  --      1.1244                 1.0936                 0.9351
 IR Inten    --      5.3083                 3.1651                38.7889

                     43                     44                     45
                      A                      A                      A
 Frequencies --   1184.2679              1253.6343              1276.5032
 Red. masses --      1.2862                 2.0123                 2.8791
 Frc consts  --      1.0628                 1.8633                 2.7641
 IR Inten    --      0.6224               102.2871                93.1629

                     46                     47                     48
                      A                      A                      A
 Frequencies --   1286.4047              1314.6778              1348.0215
 Red. masses --      1.7199                 2.3370                 3.8698
 Frc consts  --      1.6769                 2.3798                 4.1431
 IR Inten    --     49.2928                22.3184                30.5150

                     49                     50                     51
                      A                      A                      A
 Frequencies --   1370.8680              1379.1456              1470.4382
 Red. masses --      7.3788                 5.0114                 2.1399
 Frc consts  --      8.1701                 5.6160                 2.7260
 IR Inten    --     13.5442                13.1599                16.1837

                     52                     53                     54
                      A                      A                      A
 Frequencies --   1486.4971              1503.8137              1539.1179
 Red. masses --      2.5518                 2.8744                 3.5399
 Frc consts  --      3.3222                 3.8299                 4.9406
 IR Inten    --     50.5541                18.4450               100.6100

                     55                     56                     57
                      A                      A                      A
 Frequencies --   1559.6597              1590.2754              1646.0827
 Red. masses --      2.0841                 5.3347                 6.8172
 Frc consts  --      2.9869                 7.9489                10.8832
 IR Inten    --    180.1092               133.6693                 4.5267

                     58                     59                     60
                      A                      A                      A
 Frequencies --   1675.1449              1679.9709              1707.5547
 Red. masses --      4.8933                 5.7512                 4.7725
 Frc consts  --      8.0901                 9.5635                 8.1988
 IR Inten    --    100.0713                55.0645               123.9202

                     61                     62                     63
                      A                      A                      A
 Frequencies --   3205.5181              3208.4212              3211.9815
 Red. masses --      1.0859                 1.0860                 1.0878
 Frc consts  --      6.5741                 6.5867                 6.6122
 IR Inten    --     44.2250                 2.6324               145.2873

                     64                     65                     66
                      A                      A                      A
 Frequencies --   3214.9011              3218.8478              3228.3971
 Red. masses --      1.0727                 1.0902                 1.0959
 Frc consts  --      6.5321                 6.6549                 6.7297
 IR Inten    --    685.9261                 1.0975                 9.4519

                     67                     68                     69
                      A                      A                      A
 Frequencies --   3229.0824              3235.3644              3239.1884
 Red. masses --      1.0943                 1.0999                 1.0992
 Frc consts  --      6.7229                 6.7832                 6.7952
 IR Inten    --     12.1414                11.7585                11.4311

 - Thermochemistry -
 -------------------
 Temperature   298.150 Kelvin.  Pressure   1.00000 Atm.
 Atom     1 has atomic number  6 and mass  12.00000

 Molecular mass:   227.04049 amu.
 Principal axes and moments of inertia in atomic units:
                           1         2         3
     Eigenvalues --  1281.926406338.955357620.88175
           X           -0.69945   0.71468   0.00000
           Y            0.71468   0.69945  -0.00001
           Z            0.00001   0.00000   1.00000
 This molecule is an asymmetric top.
 Rotational symmetry number  1.
 Warning -- assumption of classical behavior for rotation
           may cause significant error
 Rotational temperatures (Kelvin)      0.06757     0.01366     0.01137
 Rotational constants (GHZ):           1.40784     0.28471     0.23682
 Zero-point vibrational energy     499642.3 (Joules/Mol)
                                  119.41737 (Kcal/Mol)
 Warning -- explicit consideration of  18 degrees of freedom as
           vibrations may cause significant error
 Vibrational temperatures:     22.37    91.64   180.03   217.25   284.04
          (Kelvin)            354.44   395.62   443.39   475.73   602.32
                              630.18   672.44   744.57   748.29   771.64
                              796.58   830.27   849.39   930.72   975.37
                             1056.53  1075.47  1088.93  1098.47  1113.59
                             1132.53  1222.91  1223.79  1268.84  1275.47
                             1277.37  1391.63  1404.09  1442.08  1455.21
                             1460.85  1512.88  1539.74  1594.43  1661.72
                             1667.93  1693.31  1703.90  1803.70  1836.60
                             1850.85  1891.53  1939.50  1972.37  1984.28
                             2115.63  2138.74  2163.65  2214.45  2244.00
                             2288.05  2368.35  2410.16  2417.10  2456.79
                             4612.03  4616.20  4621.33  4625.53  4631.20
                             4644.94  4645.93  4654.97  4660.47

 Zero-point correction=                           0.190304 (Hartree/Particle)
 Thermal correction to Energy=                    0.202005
 Thermal correction to Enthalpy=                  0.202949
 Thermal correction to Gibbs Free Energy=         0.150793
 Sum of electronic and zero-point Energies=          -1028.637537
 Sum of electronic and thermal Energies=             -1028.625835
 Sum of electronic and thermal Enthalpies=           -1028.624891
 Sum of electronic and thermal Free Energies=        -1028.677047

                     E (Thermal)             CV                S
                      KCal/Mol        Cal/Mol-Kelvin    Cal/Mol-Kelvin
 Total                  126.760             47.453            109.772
 Electronic               0.000              0.000              0.000
 Translational            0.889              2.981             42.162
 Rotational               0.889              2.981             32.493
 Vibrational            124.982             41.492             35.116
 Vibration     1          0.593              1.986              7.134
 Vibration     2          0.597              1.972              4.339
 Vibration     3          0.610              1.928              3.020
 Vibration     4          0.618              1.902              2.660
 Vibration     5          0.637              1.843              2.157
 Vibration     6          0.661              1.769              1.757
 Vibration     7          0.677              1.720              1.565
 Vibration     8          0.698              1.658              1.372
 Vibration     9          0.713              1.614              1.257
 Vibration    10          0.781              1.430              0.897
 Vibration    11          0.798              1.387              0.833
 Vibration    12          0.825              1.322              0.745
 Vibration    13          0.873              1.211              0.616
 Vibration    14          0.875              1.206              0.610
 Vibration    15          0.891              1.170              0.573
 Vibration    16          0.909              1.132              0.537
 Vibration    17          0.934              1.081              0.491
 Vibration    18          0.948              1.052              0.467

 Optimization completed.
    -- Stationary point found.
 Normal termination of Gaussian 16 at Wed Oct 28 01:31:11 2020.
