 Gaussian 16, Revision C.01,
 Gaussian 16:  ES64L-G16RevC.01  3-Jul-2019

 ----------------------------------------------------------------------
 #p opt=addgic freq wb97xd/cc-pvdz nosymm int=ultrafine scrf=(solvent=C
 arbonTetraChloride)
 ----------------------------------------------------------------------

 ------------------------------------------------
 NM 2D-scan of HBT TD-WB97XD pVDZ in CTC Relaxed.
 ------------------------------------------------
 Symbolic Z-matrix:
 Charge =  0 Multiplicity = 1

 SCF Done:  E(RwB97XD) =  -1028.61877780     A.U. after   15 cycles
 SCF Done:  E(RwB97XD) =  -1028.78707095     A.U. after   13 cycles
 SCF Done:  E(RwB97XD) =  -1028.81480321     A.U. after   15 cycles
 SCF Done:  E(RwB97XD) =  -1028.82843856     A.U. after   13 cycles
 SCF Done:  E(RwB97XD) =  -1028.82958190     A.U. after   12 cycles
 SCF Done:  E(RwB97XD) =  -1028.82969808     A.U. after   11 cycles
 SCF Done:  E(RwB97XD) =  -1028.82970604     A.U. after    9 cycles
 SCF Done:  E(RwB97XD) =  -1028.82970687     A.U. after    8 cycles
 Optimization completed.
    -- Stationary point found.
 Normal termination of Gaussian 16 at Tue Oct 27 23:51:47 2020.

 --------------------------------------------------------------------
 #P Geom=AllCheck Guess=TCheck SCRF=Check GenChk RwB97XD/CC-pVDZ Freq
 --------------------------------------------------------------------

 Structure from the checkpoint file:  "config_1_13.chk"
 ------------------------------------------------
 NM 2D-scan of HBT TD-WB97XD pVDZ in CTC Relaxed.
 ------------------------------------------------
 Charge =  0 Multiplicity = 1

                          Input orientation:
 ---------------------------------------------------------------------
 Center     Atomic      Atomic             Coordinates (Angstroms)
 Number     Number       Type             X           Y           Z
 ---------------------------------------------------------------------
      1          6           0        1.606141   -3.318041   -0.000021
      2          6           0        0.970758   -2.071976   -0.000011
      3          6           0        1.717412   -0.877261   -0.000009
      4          6           0        3.116596   -0.918797   -0.000017
      5          6           0        3.747192   -2.152250   -0.000027
      6          6           0        2.997049   -3.340837   -0.000029
      7          1           0        1.032730   -4.245519   -0.000022
      8          1           0        3.678942    0.015495   -0.000016
      9          1           0        4.836906   -2.203752   -0.000034
     10          1           0        3.513549   -4.301989   -0.000037
     11          7           0        0.975757    0.287374   -0.000001
     12         16           0       -0.735050   -1.679945    0.000003
     13          6           0       -1.311596    1.114961    0.000011
     14          6           0       -2.689502    0.815736    0.000006
     15          6           0       -0.925079    2.481900    0.000030
     16          6           0       -3.651937    1.809210    0.000023
     17          1           0       -3.006101   -0.230000   -0.000011
     18          6           0       -1.908271    3.480567    0.000050
     19          6           0       -3.250953    3.152219    0.000047
     20          1           0       -4.709889    1.547024    0.000018
     21          1           0       -1.571745    4.517797    0.000065
     22          1           0       -3.998804    3.947220    0.000062
     23          6           0       -0.303537    0.050340    0.000002
     24          8           0        0.343614    2.922138    0.000027
     25          1           0        0.939237    2.149914    0.000008
 ---------------------------------------------------------------------

 SCF Done:  E(RwB97XD) =  -1028.82970687     A.U. after    1 cycles

 Alpha  occ. eigenvalues --  -89.08488 -19.28826 -14.46806 -10.39344 -10.37618
 Alpha  occ. eigenvalues --  -10.34744 -10.34662 -10.32640 -10.32262 -10.31931
 Alpha  occ. eigenvalues --  -10.31510 -10.31444 -10.31436 -10.31319 -10.30356
 Alpha  occ. eigenvalues --  -10.30194  -8.10488  -6.05344  -6.04991  -6.04534
 Alpha  occ. eigenvalues --   -1.16817  -1.08695  -0.97230  -0.96176  -0.91350
 Alpha  occ. eigenvalues --   -0.88513  -0.85365  -0.84646  -0.82803  -0.75438
 Alpha  occ. eigenvalues --   -0.71458  -0.70664  -0.69426  -0.68133  -0.63141
 Alpha  occ. eigenvalues --   -0.60229  -0.58667  -0.58447  -0.56532  -0.54524
 Alpha  occ. eigenvalues --   -0.53768  -0.53090  -0.52772  -0.50740  -0.50480
 Alpha  occ. eigenvalues --   -0.49115  -0.47855  -0.45804  -0.45353  -0.44975
 Alpha  occ. eigenvalues --   -0.43923  -0.43057  -0.42391  -0.39619  -0.37488
 Alpha  occ. eigenvalues --   -0.36160  -0.31964  -0.31767  -0.29216
 Alpha virt. eigenvalues --   -0.00401   0.04941   0.06734   0.07113   0.07788
 Alpha virt. eigenvalues --    0.11599   0.13972   0.15201   0.16420   0.17912
 Alpha virt. eigenvalues --    0.18842   0.20395   0.21609   0.22490   0.22733

 Mulliken charges:
               1
     1  C    0.006374
     2  C   -0.205331
     3  C    0.208852
     4  C   -0.014837
     5  C    0.005718
     6  C   -0.000756
     7  H    0.018688
     8  H    0.015638
     9  H    0.018699
    10  H    0.020866
    11  N   -0.330272
    12  S    0.135106
    13  C   -0.043561
    14  C   -0.026162
    15  C    0.054648
    16  C   -0.003696
    17  H    0.017328
    18  C    0.016409
    19  C    0.020061
    20  H    0.010437
    21  H    0.017886
    22  H    0.018942
    23  C    0.074355
    24  O   -0.190082
    25  H    0.154690
 Sum of Mulliken charges =  -0.00000

 Dipole moment (field-independent basis, Debye):
    X=             -0.1182    Y=             -2.1013    Z=             -0.0000  Tot=              2.1046
 Quadrupole moment (field-independent basis, Debye-Ang):
   XX=            -82.6880   YY=            -89.8022   ZZ=           -104.1800
   XY=             -6.8944   XZ=             -0.0001   YZ=              0.0001

  Exact polarizability:     273.863     -66.069     255.202      -0.001       0.002      63.010
 Approx polarizability:     262.201     -22.468     242.690      -0.001       0.001      82.186

                      1                      2                      3
                      A                      A                      A
 Frequencies --     49.7785                60.3381               111.2883
 Red. masses --      6.3595                 4.9755                 5.6385
 Frc consts  --      0.0093                 0.0107                 0.0411
 IR Inten    --      0.6658                 0.4077                 1.1450

                      4                      5                      6
                      A                      A                      A
 Frequencies --    150.4763               199.0041               246.1508
 Red. masses --      4.9681                 5.9186                 5.7096
 Frc consts  --      0.0663                 0.1381                 0.2038
 IR Inten    --      0.0011                 0.5973                 0.0271

                      7                      8                      9
                      A                      A                      A
 Frequencies --    256.8617               288.5207               327.8675
 Red. masses --      8.0274                 6.2298                 5.0536
 Frc consts  --      0.3120                 0.3055                 0.3201
 IR Inten    --      4.2387                 4.8643                 0.2223

                     10                     11                     12
                      A                      A                      A
 Frequencies --    405.7468               439.4597               470.4503
 Red. masses --      8.5995                 3.1494                 3.7381
 Frc consts  --      0.8341                 0.3584                 0.4875
 IR Inten    --      0.2360                 1.9225                 8.3566

                     13                     14                     15
                      A                      A                      A
 Frequencies --    499.0153               515.6423               537.8750
 Red. masses --      4.7762                 8.6991                 3.4337
 Frc consts  --      0.7007                 1.3628                 0.5853
 IR Inten    --      5.4287                 0.1324                 3.9326

                     16                     17                     18
                      A                      A                      A
 Frequencies --    546.4000               574.9425               592.8839
 Red. masses --      8.5410                 3.7449                 7.7214
 Frc consts  --      1.5024                 0.7294                 1.5991
 IR Inten    --      2.3222                 0.0059                 6.5220

                     19                     20                     21
                      A                      A                      A
 Frequencies --    636.9139               675.6073               681.6084
 Red. masses --      2.7791                 6.6689                 1.3731
 Frc consts  --      0.6642                 1.7935                 0.3759
 IR Inten    --     16.8428                 3.0415                76.5345

                     22                     23                     24
                      A                      A                      A
 Frequencies --    707.5570               726.8014               756.3016
 Red. masses --      8.7714                 7.3912                 1.9204
 Frc consts  --      2.5873                 2.3004                 0.6472
 IR Inten    --     43.3248                 1.1135                24.4419

                     25                     26                     27
                      A                      A                      A
 Frequencies --    768.1138               778.3742               788.8642
 Red. masses --      3.4138                 1.3374                 1.9602
 Frc consts  --      1.1867                 0.4774                 0.7187
 IR Inten    --     16.4135                43.5282                40.7872

                     28                     29                     30
                      A                      A                      A
 Frequencies --    842.4242               884.8837               888.5273
 Red. masses --      5.9987                 1.5404                 1.4268
 Frc consts  --      2.5082                 0.7106                 0.6637
 IR Inten    --     23.7604                 3.9085                 0.7726

                     31                     32                     33
                      A                      A                      A
 Frequencies --    889.0714               971.5508               976.6819
 Red. masses --      6.4428                 1.3591                 1.3656
 Frc consts  --      3.0005                 0.7558                 0.7675
 IR Inten    --      3.9132                 1.1129                 1.5569

                     34                     35                     36
                      A                      A                      A
 Frequencies --    982.4042              1011.9431              1015.4747
 Red. masses --      7.6776                 1.3031                 1.3046
 Frc consts  --      4.3657                 0.7862                 0.7926
 IR Inten    --     64.1141                 0.3514                 0.0165

                     37                     38                     39
                      A                      A                      A
 Frequencies --   1051.5033              1070.8352              1099.4163
 Red. masses --      2.0007                 1.9928                 4.2472
 Frc consts  --      1.3033                 1.3463                 3.0247
 IR Inten    --      8.3225                14.2407                 6.0430

                     40                     41                     42
                      A                      A                      A
 Frequencies --   1148.5755              1152.5992              1176.5552
 Red. masses --      1.5242                 1.3132                 1.1202
 Frc consts  --      1.1847                 1.0279                 0.9137
 IR Inten    --      4.4041                 4.5758                43.8889

                     43                     44                     45
                      A                      A                      A
 Frequencies --   1184.8321              1233.9151              1275.2286
 Red. masses --      1.2107                 1.6834                 2.2122
 Frc consts  --      1.0014                 1.5101                 2.1195
 IR Inten    --      0.3070               166.9025                87.1535

                     46                     47                     48
                      A                      A                      A
 Frequencies --   1282.6011              1318.7075              1340.7113
 Red. masses --      1.6003                 5.2288                 2.9627
 Frc consts  --      1.5511                 5.3573                 3.1377
 IR Inten    --      1.6052                35.5417                 5.2746

                     49                     50                     51
                      A                      A                      A
 Frequencies --   1368.0269              1375.7014              1418.7943
 Red. masses --      7.7120                 2.9234                 1.7996
 Frc consts  --      8.5037                 3.2598                 2.1343
 IR Inten    --     16.4432                 7.0592                78.2446

                     52                     53                     54
                      A                      A                      A
 Frequencies --   1487.9192              1502.1774              1519.3282
 Red. masses --      2.6447                 2.8768                 3.4020
 Frc consts  --      3.4497                 3.8247                 4.6268
 IR Inten    --     37.0033                 3.2132                60.8915

                     55                     56                     57
                      A                      A                      A
 Frequencies --   1532.9564              1600.4866              1643.4609
 Red. masses --      2.7912                 8.7393                 6.6869
 Frc consts  --      3.8646                13.1896                10.6412
 IR Inten    --    127.3626               196.0199                 7.6964

                     58                     59                     60
                      A                      A                      A
 Frequencies --   1654.9993              1682.3701              1708.9933
 Red. masses --      5.6286                 6.9294                 6.4208
 Frc consts  --      9.0833                11.5555                11.0489
 IR Inten    --    106.9565                 3.0844                97.6684

                     61                     62                     63
                      A                      A                      A
 Frequencies --   3201.9073              3211.5402              3214.0340
 Red. masses --      1.0884                 1.0861                 1.0886
 Frc consts  --      6.5744                 6.5999                 6.6255
 IR Inten    --      3.6017                 1.3114                 6.2495

                     64                     65                     66
                      A                      A                      A
 Frequencies --   3223.0655              3231.5861              3233.9187
 Red. masses --      1.0906                 1.0942                 1.0959
 Frc consts  --      6.6748                 6.7323                 6.7526
 IR Inten    --      5.6116                10.5495                11.9044

                     67                     68                     69
                      A                      A                      A
 Frequencies --   3239.2333              3239.6987              3599.5025
 Red. masses --      1.0996                 1.0994                 1.0667
 Frc consts  --      6.7981                 6.7987                 8.1427
 IR Inten    --     20.8038                 9.0637               509.6837

 - Thermochemistry -
 -------------------
 Temperature   298.150 Kelvin.  Pressure   1.00000 Atm.
 Atom     1 has atomic number  6 and mass  12.00000

 Molecular mass:   227.04049 amu.
 Principal axes and moments of inertia in atomic units:
                           1         2         3
     Eigenvalues --  1321.796696393.051527714.84821
           X           -0.69397   0.72000   0.00000
           Y            0.72000   0.69397  -0.00001
           Z            0.00001   0.00000   1.00000
 This molecule is an asymmetric top.
 Rotational symmetry number  1.
 Warning -- assumption of classical behavior for rotation
           may cause significant error
 Rotational temperatures (Kelvin)      0.06553     0.01355     0.01123
 Rotational constants (GHZ):           1.36537     0.28230     0.23393
 Zero-point vibrational energy     499327.2 (Joules/Mol)
                                  119.34206 (Kcal/Mol)
 Warning -- explicit consideration of  18 degrees of freedom as
           vibrations may cause significant error
 Vibrational temperatures:     71.62    86.81   160.12   216.50   286.32
          (Kelvin)            354.16   369.57   415.12   471.73   583.78
                              632.28   676.87   717.97   741.89   773.88
                              786.15   827.21   853.03   916.38   972.05
                              980.68  1018.02  1045.71  1088.15  1105.14
                             1119.91  1135.00  1212.06  1273.15  1278.39
                             1279.18  1397.84  1405.23  1413.46  1455.96
                             1461.04  1512.88  1540.69  1581.81  1652.54
                             1658.33  1692.80  1704.71  1775.33  1834.77
                             1845.38  1897.33  1928.98  1968.29  1979.33
                             2041.33  2140.78  2161.30  2185.97  2205.58
                             2302.74  2364.57  2381.17  2420.56  2458.86
                             4606.83  4620.69  4624.28  4637.27  4649.53
                             4652.89  4660.53  4661.20  5178.88

 Zero-point correction=                           0.190184 (Hartree/Particle)
 Thermal correction to Energy=                    0.202006
 Thermal correction to Enthalpy=                  0.202950
 Thermal correction to Gibbs Free Energy=         0.151436
 Sum of electronic and zero-point Energies=          -1028.639523
 Sum of electronic and thermal Energies=             -1028.627701
 Sum of electronic and thermal Enthalpies=           -1028.626756
 Sum of electronic and thermal Free Energies=        -1028.678271

                     E (Thermal)             CV                S
                      KCal/Mol        Cal/Mol-Kelvin    Cal/Mol-Kelvin
 Total                  126.761             48.080            108.421
 Electronic               0.000              0.000              0.000
 Translational            0.889              2.981             42.162
 Rotational               0.889              2.981             32.544
 Vibrational            124.983             42.119             33.715
 Vibration     1          0.595              1.978              4.826
 Vibration     2          0.597              1.973              4.446
 Vibration     3          0.607              1.940              3.246
 Vibration     4          0.618              1.902              2.666
 Vibration     5          0.637              1.841              2.142
 Vibration     6          0.661              1.769              1.758
 Vibration     7          0.666              1.751              1.683
 Vibration     8          0.685              1.695              1.483
 Vibration     9          0.711              1.620              1.271
 Vibration    10          0.771              1.458              0.942
 Vibration    11          0.799              1.384              0.828
 Vibration    12          0.827              1.316              0.736
 Vibration    13          0.854              1.252              0.661
 Vibration    14          0.871              1.215              0.620
 Vibration    15          0.893              1.166              0.570
 Vibration    16          0.902              1.148              0.552
 Vibration    17          0.931              1.085              0.495
 Vibration    18          0.950              1.047              0.462

 Optimization completed.
    -- Stationary point found.
 Normal termination of Gaussian 16 at Tue Oct 27 23:57:44 2020.
