 Gaussian 16, Revision C.01,
 Gaussian 16:  ES64L-G16RevC.01  3-Jul-2019

 ----------------------------------------------------------------------
 #p opt=addgic freq wb97xd/cc-pvdz nosymm int=ultrafine scrf=(solvent=C
 arbonTetraChloride)
 ----------------------------------------------------------------------

 ------------------------------------------------
 NM 2D-scan of HBT TD-WB97XD pVDZ in CTC Relaxed.
 ------------------------------------------------
 Symbolic Z-matrix:
 Charge =  0 Multiplicity = 1

 SCF Done:  E(RwB97XD) =  -1028.81333159     A.U. after   15 cycles
 SCF Done:  E(RwB97XD) =  -1028.82099839     A.U. after   13 cycles
 SCF Done:  E(RwB97XD) =  -1028.82156438     A.U. after   12 cycles
 SCF Done:  E(RwB97XD) =  -1028.82193636     A.U. after   12 cycles
 SCF Done:  E(RwB97XD) =  -1028.82228982     A.U. after   11 cycles
 SCF Done:  E(RwB97XD) =  -1028.82229609     A.U. after   10 cycles
 SCF Done:  E(RwB97XD) =  -1028.82227820     A.U. after   11 cycles
 SCF Done:  E(RwB97XD) =  -1028.82229717     A.U. after   10 cycles
 SCF Done:  E(RwB97XD) =  -1028.82229778     A.U. after    9 cycles
 Optimization completed.
    -- Stationary point found.
 Normal termination of Gaussian 16 at Wed Oct 28 01:08:32 2020.

 --------------------------------------------------------------------
 #P Geom=AllCheck Guess=TCheck SCRF=Check GenChk RwB97XD/CC-pVDZ Freq
 --------------------------------------------------------------------

 Structure from the checkpoint file:  "config_5_15.chk"
 ------------------------------------------------
 NM 2D-scan of HBT TD-WB97XD pVDZ in CTC Relaxed.
 ------------------------------------------------
 Charge =  0 Multiplicity = 1

                          Input orientation:
 ---------------------------------------------------------------------
 Center     Atomic      Atomic             Coordinates (Angstroms)
 Number     Number       Type             X           Y           Z
 ---------------------------------------------------------------------
      1          6           0        1.561708   -3.251349   -0.000093
      2          6           0        1.005714   -1.976507   -0.000061
      3          6           0        1.773839   -0.802845    0.000010
      4          6           0        3.171904   -0.919467    0.000045
      5          6           0        3.735109   -2.194983    0.000014
      6          6           0        2.943906   -3.353344   -0.000053
      7          1           0        0.925061   -4.136419   -0.000142
      8          1           0        3.801278   -0.028910    0.000100
      9          1           0        4.821781   -2.292685    0.000045
     10          1           0        3.416044   -4.336526   -0.000073
     11          7           0        0.980890    0.345349    0.000046
     12         16           0       -0.695126   -1.600007   -0.000079
     13          6           0       -1.330788    1.103087    0.000035
     14          6           0       -2.688729    0.769987    0.000083
     15          6           0       -0.893654    2.449274   -0.000003
     16          6           0       -3.659394    1.758418    0.000085
     17          1           0       -2.987154   -0.281084    0.000126
     18          6           0       -1.900104    3.446238   -0.000010
     19          6           0       -3.247980    3.097187    0.000030
     20          1           0       -4.717564    1.497175    0.000126
     21          1           0       -1.597112    4.494271   -0.000053
     22          1           0       -3.999539    3.889611    0.000022
     23          6           0       -0.305292    0.079926    0.000011
     24          8           0        0.396530    2.710682   -0.000048
     25          1           0        0.910297    1.780340   -0.000052
 ---------------------------------------------------------------------

 SCF Done:  E(RwB97XD) =  -1028.82229778     A.U. after    1 cycles

 Alpha  occ. eigenvalues --  -89.08756 -19.26489 -14.47622 -10.39517 -10.37063
 Alpha  occ. eigenvalues --  -10.35595 -10.34802 -10.32376 -10.32129 -10.31772
 Alpha  occ. eigenvalues --  -10.31724 -10.31715 -10.31543 -10.31367 -10.30055
 Alpha  occ. eigenvalues --  -10.30045  -8.10917  -6.05758  -6.05395  -6.04968
 Alpha  occ. eigenvalues --   -1.15440  -1.09266  -0.97497  -0.96200  -0.92237
 Alpha  occ. eigenvalues --   -0.88703  -0.85735  -0.84289  -0.83034  -0.75584
 Alpha  occ. eigenvalues --   -0.71568  -0.70759  -0.69350  -0.68049  -0.63425
 Alpha  occ. eigenvalues --   -0.60823  -0.59140  -0.58222  -0.56292  -0.54561
 Alpha  occ. eigenvalues --   -0.54550  -0.53472  -0.52821  -0.50942  -0.50111
 Alpha  occ. eigenvalues --   -0.49433  -0.47045  -0.46195  -0.45402  -0.45129
 Alpha  occ. eigenvalues --   -0.44144  -0.42837  -0.42692  -0.40052  -0.36329
 Alpha  occ. eigenvalues --   -0.36287  -0.32352  -0.31633  -0.28809
 Alpha virt. eigenvalues --   -0.00569   0.04656   0.06692   0.07452   0.07880
 Alpha virt. eigenvalues --    0.11236   0.14705   0.15151   0.17119   0.17981
 Alpha virt. eigenvalues --    0.19025   0.21015   0.21720   0.22493   0.22665

 Mulliken charges:
               1
     1  C    0.018469
     2  C   -0.219667
     3  C    0.240239
     4  C   -0.017587
     5  C    0.003754
     6  C    0.004127
     7  H    0.019168
     8  H    0.022889
     9  H    0.021931
    10  H    0.022391
    11  N   -0.346804
    12  S    0.159803
    13  C   -0.059336
    14  C   -0.029738
    15  C    0.089947
    16  C   -0.010624
    17  H    0.017476
    18  C   -0.009141
    19  C    0.021618
    20  H    0.008167
    21  H    0.013921
    22  H    0.018137
    23  C    0.084055
    24  O   -0.257952
    25  H    0.184759
 Sum of Mulliken charges =  -0.00000

 Dipole moment (field-independent basis, Debye):
    X=              0.1228    Y=             -3.2666    Z=             -0.0000  Tot=              3.2689
 Quadrupole moment (field-independent basis, Debye-Ang):
   XX=            -82.6552   YY=            -90.9463   ZZ=           -103.9545
   XY=             -7.2964   XZ=             -0.0001   YZ=              0.0002

  Exact polarizability:     274.724     -69.323     255.819      -0.000       0.002      62.824
 Approx polarizability:     262.154     -24.076     242.525       0.000       0.002      82.135

 ******    1 imaginary frequencies (negative Signs) ******

                      1                      2                      3
                      A                      A                      A
 Frequencies --    -23.3523                65.8668               130.0578
 Red. masses --      5.3642                 6.0834                 5.5835
 Frc consts  --      0.0017                 0.0156                 0.0556
 IR Inten    --      0.0313                 1.2613                 4.3427

                      4                      5                      6
                      A                      A                      A
 Frequencies --    151.9358               197.2792               243.4087
 Red. masses --      5.0674                 6.1265                 5.5908
 Frc consts  --      0.0689                 0.1405                 0.1952
 IR Inten    --      0.3009                 0.5623                 0.0855

                      7                      8                      9
                      A                      A                      A
 Frequencies --    280.0544               329.2730               334.1227
 Red. masses --      7.3517                 5.1423                 5.8945
 Frc consts  --      0.3397                 0.3285                 0.3877
 IR Inten    --      0.7599                 0.1099                22.5992

                     10                     11                     12
                      A                      A                      A
 Frequencies --    424.9584               435.6023               461.9843
 Red. masses --     10.7148                 3.0979                 3.5725
 Frc consts  --      1.1401                 0.3463                 0.4492
 IR Inten    --      0.0669                 1.6185                 8.3346

                     13                     14                     15
                      A                      A                      A
 Frequencies --    513.4214               523.8293               537.5439
 Red. masses --      6.6893                 6.7238                 3.4438
 Frc consts  --      1.0389                 1.0870                 0.5863
 IR Inten    --     13.9395                22.7095                 3.4156

                     16                     17                     18
                      A                      A                      A
 Frequencies --    564.2194               576.0815               590.6425
 Red. masses --      7.0202                 3.7183                 7.6021
 Frc consts  --      1.3167                 0.7270                 1.5626
 IR Inten    --      8.4225                 0.0620                 1.7669

                     19                     20                     21
                      A                      A                      A
 Frequencies --    648.2306               687.0292               733.1602
 Red. masses --      6.3737                 6.4549                 6.4934
 Frc consts  --      1.5780                 1.7951                 2.0565
 IR Inten    --      0.0090                 6.6762                19.8363

                     22                     23                     24
                      A                      A                      A
 Frequencies --    755.8959               768.7805               772.0931
 Red. masses --      2.0209                 2.7248                 9.6669
 Frc consts  --      0.6803                 0.9488                 3.3953
 IR Inten    --     27.1248                 5.8929                22.2138

                     25                     26                     27
                      A                      A                      A
 Frequencies --    774.2421               784.2857               856.9980
 Red. masses --      1.4792                 1.9142                 6.0781
 Frc consts  --      0.5224                 0.6937                 2.6301
 IR Inten    --     53.0468                43.1812                13.4568

                     28                     29                     30
                      A                      A                      A
 Frequencies --    880.9551               886.4623               905.1711
 Red. masses --      1.5752                 1.4030                 6.7898
 Frc consts  --      0.7203                 0.6496                 3.2777
 IR Inten    --      5.5483                 0.4012                 8.7337

                     31                     32                     33
                      A                      A                      A
 Frequencies --    965.6933               974.9958              1010.6009
 Red. masses --      1.3629                 1.3649                 1.3034
 Frc consts  --      0.7488                 0.7645                 0.7843
 IR Inten    --      1.2042                 1.3692                 0.1718

                     34                     35                     36
                      A                      A                      A
 Frequencies --   1014.9446              1015.4606              1052.3435
 Red. masses --      7.6527                 1.3056                 2.0058
 Frc consts  --      4.6446                 0.7932                 1.3088
 IR Inten    --     46.8927                 0.0004                 9.9963

                     37                     38                     39
                      A                      A                      A
 Frequencies --   1069.4184              1075.3891              1108.0192
 Red. masses --      1.8793                 1.0602                 3.3052
 Frc consts  --      1.2663                 0.7224                 2.3908
 IR Inten    --      6.6053                72.6613                 5.0590

                     40                     41                     42
                      A                      A                      A
 Frequencies --   1156.2832              1159.9295              1175.2597
 Red. masses --      1.4337                 1.3983                 1.1720
 Frc consts  --      1.1294                 1.1084                 0.9538
 IR Inten    --     13.0333                 2.9535                33.5122

                     43                     44                     45
                      A                      A                      A
 Frequencies --   1183.9127              1265.8540              1287.0732
 Red. masses --      1.2514                 2.0157                 2.0777
 Frc consts  --      1.0334                 1.9030                 2.0279
 IR Inten    --      2.6349                65.4779                66.7746

                     46                     47                     48
                      A                      A                      A
 Frequencies --   1298.0156              1315.3464              1363.4121
 Red. masses --      2.2434                 2.7060                 3.8036
 Frc consts  --      2.2270                 2.7584                 4.1658
 IR Inten    --    135.1032               126.9993                12.3023

                     49                     50                     51
                      A                      A                      A
 Frequencies --   1377.9666              1382.5165              1484.4818
 Red. masses --      3.7859                 7.6928                 3.0687
 Frc consts  --      4.2354                 8.6631                 3.9843
 IR Inten    --     14.8474                 5.4541                12.0374

                     52                     53                     54
                      A                      A                      A
 Frequencies --   1491.9828              1495.4760              1517.1547
 Red. masses --      2.5661                 2.6437                 3.6929
 Frc consts  --      3.3655                 3.4835                 5.0082
 IR Inten    --     53.1574                 8.4499                62.1562

                     55                     56                     57
                      A                      A                      A
 Frequencies --   1576.4609              1619.5838              1654.7760
 Red. masses --      6.1883                 3.8285                 6.9480
 Frc consts  --      9.0613                 5.9167                11.2095
 IR Inten    --    275.1744                 3.6274                26.0474

                     58                     59                     60
                      A                      A                      A
 Frequencies --   1674.2855              1699.2980              1758.0989
 Red. masses --      6.5147                 6.9612                 1.4308
 Frc consts  --     10.7597                11.8433                 2.6056
 IR Inten    --    116.6414               232.2053               456.2411

                     61                     62                     63
                      A                      A                      A
 Frequencies --   2088.5073              3200.6360              3207.9011
 Red. masses --      1.1407                 1.0880                 1.0892
 Frc consts  --      2.9314                 6.5670                 6.6037
 IR Inten    --   1624.9197                 3.4178                 8.0337

                     64                     65                     66
                      A                      A                      A
 Frequencies --   3211.0046              3221.0991              3227.4331
 Red. masses --      1.0861                 1.0905                 1.0937
 Frc consts  --      6.5981                 6.6664                 6.7124
 IR Inten    --      1.6309                 2.6645                14.9373

                     67                     68                     69
                      A                      A                      A
 Frequencies --   3230.7429              3236.8280              3237.5505
 Red. masses --      1.0959                 1.0989                 1.0999
 Frc consts  --      6.7394                 6.7833                 6.7927
 IR Inten    --      8.1227                19.4924                11.7514

 - Thermochemistry -
 -------------------
 Temperature   298.150 Kelvin.  Pressure   1.00000 Atm.
 Atom     1 has atomic number  6 and mass  12.00000

 Molecular mass:   227.04049 amu.
 Principal axes and moments of inertia in atomic units:
                           1         2         3
     Eigenvalues --  1270.412616265.199407535.61200
           X           -0.70636   0.70785  -0.00000
           Y            0.70785   0.70636  -0.00001
           Z            0.00001   0.00001   1.00000
 This molecule is an asymmetric top.
 Rotational symmetry number  1.
 Warning -- assumption of classical behavior for rotation
           may cause significant error
 Rotational temperatures (Kelvin)      0.06818     0.01382     0.01149
 Rotational constants (GHZ):           1.42059     0.28806     0.23949
    1 imaginary frequencies ignored.
 Zero-point vibrational energy     495848.1 (Joules/Mol)
                                  118.51053 (Kcal/Mol)
 Warning -- explicit consideration of  17 degrees of freedom as
           vibrations may cause significant error
 Vibrational temperatures:     94.77   187.12   218.60   283.84   350.21
          (Kelvin)            402.94   473.75   480.73   611.42   626.73
                              664.69   738.70   753.67   773.41   811.79
                              828.85   849.80   932.66   988.48  1054.85
                             1087.57  1106.10  1110.87  1113.96  1128.41
                             1233.03  1267.50  1275.42  1302.34  1389.42
                             1402.80  1454.03  1460.28  1461.02  1514.09
                             1538.65  1547.24  1594.19  1663.63  1668.88
                             1690.94  1703.39  1821.28  1851.81  1867.56
                             1892.49  1961.65  1982.59  1989.13  2135.84
                             2146.63  2151.66  2182.85  2268.18  2330.22
                             2380.85  2408.92  2444.91  2529.51  3004.90
                             4605.00  4615.45  4619.92  4634.44  4643.56
                             4648.32  4657.07  4658.11

 Zero-point correction=                           0.188859 (Hartree/Particle)
 Thermal correction to Energy=                    0.199538
 Thermal correction to Enthalpy=                  0.200482
 Thermal correction to Gibbs Free Energy=         0.151954
 Sum of electronic and zero-point Energies=          -1028.633439
 Sum of electronic and thermal Energies=             -1028.622760
 Sum of electronic and thermal Enthalpies=           -1028.621816
 Sum of electronic and thermal Free Energies=        -1028.670344

                     E (Thermal)             CV                S
                      KCal/Mol        Cal/Mol-Kelvin    Cal/Mol-Kelvin
 Total                  125.212             44.974            102.136
 Electronic               0.000              0.000              0.000
 Translational            0.889              2.981             42.162
 Rotational               0.889              2.981             32.461
 Vibrational            123.434             39.012             27.512
 Vibration     1          0.597              1.971              4.273
 Vibration     2          0.612              1.923              2.945
 Vibration     3          0.619              1.901              2.648
 Vibration     4          0.637              1.844              2.158
 Vibration     5          0.659              1.774              1.778
 Vibration     6          0.680              1.710              1.533
 Vibration     7          0.712              1.617              1.264
 Vibration     8          0.716              1.607              1.240
 Vibration     9          0.787              1.416              0.875
 Vibration    10          0.796              1.393              0.841
 Vibration    11          0.820              1.334              0.760
 Vibration    12          0.868              1.220              0.625
 Vibration    13          0.879              1.197              0.601
 Vibration    14          0.893              1.167              0.571
 Vibration    15          0.920              1.109              0.515
 Vibration    16          0.932              1.083              0.493
 Vibration    17          0.948              1.052              0.466

 Optimization completed.
    -- Stationary point found.
 Normal termination of Gaussian 16 at Wed Oct 28 01:15:43 2020.
