 Gaussian 16, Revision C.01,
 Gaussian 16:  ES64L-G16RevC.01  3-Jul-2019

 ----------------------------------------------------------------------
 #p opt=addgic freq wb97xd/cc-pvdz nosymm int=ultrafine scrf=(solvent=C
 arbonTetraChloride)
 ----------------------------------------------------------------------

 ------------------------------------------------
 NM 2D-scan of HBT TD-WB97XD pVDZ in CTC Relaxed.
 ------------------------------------------------
 Symbolic Z-matrix:
 Charge =  0 Multiplicity = 1

 SCF Done:  E(RwB97XD) =  -1028.63916063     A.U. after   16 cycles
 SCF Done:  E(RwB97XD) =  -1028.75970980     A.U. after   13 cycles
 SCF Done:  E(RwB97XD) =  -1028.75606869     A.U. after   14 cycles
 SCF Done:  E(RwB97XD) =  -1028.78947106     A.U. after   13 cycles
 SCF Done:  E(RwB97XD) =  -1028.79003066     A.U. after   12 cycles
 SCF Done:  E(RwB97XD) =  -1028.79051800     A.U. after   11 cycles
 SCF Done:  E(RwB97XD) =  -1028.79052445     A.U. after    9 cycles
 SCF Done:  E(RwB97XD) =  -1028.79052521     A.U. after    9 cycles
 Optimization completed.
    -- Stationary point found.
 Normal termination of Gaussian 16 at Tue Oct 27 21:12:40 2020.

 --------------------------------------------------------------------
 #P Geom=AllCheck Guess=TCheck SCRF=Check GenChk RwB97XD/CC-pVDZ Freq
 --------------------------------------------------------------------

 Structure from the checkpoint file:  "config_12_3.chk"
 ------------------------------------------------
 NM 2D-scan of HBT TD-WB97XD pVDZ in CTC Relaxed.
 ------------------------------------------------
 Charge =  0 Multiplicity = 1

                          Input orientation:
 ---------------------------------------------------------------------
 Center     Atomic      Atomic             Coordinates (Angstroms)
 Number     Number       Type             X           Y           Z
 ---------------------------------------------------------------------
      1          6           0        1.749296   -3.277137    0.000043
      2          6           0        1.021507   -2.090098   -0.000040
      3          6           0        1.693199   -0.888201   -0.000082
      4          6           0        3.081788   -0.779016   -0.000038
      5          6           0        3.803438   -1.966662    0.000043
      6          6           0        3.142356   -3.199089    0.000082
      7          1           0        1.249491   -4.245285    0.000069
      8          1           0        3.571764    0.195330   -0.000067
      9          1           0        4.893486   -1.933809    0.000078
     10          1           0        3.724263   -4.121158    0.000141
     11          7           0        0.799750    0.153730   -0.000167
     12         16           0       -0.742681   -1.778518   -0.000126
     13          6           0       -1.435333    1.064646   -0.000120
     14          6           0       -2.843368    0.923182   -0.000091
     15          6           0       -0.815577    2.402952   -0.000017
     16          6           0       -3.690767    2.013421    0.000064
     17          1           0       -3.270779   -0.084170   -0.000175
     18          6           0       -1.777550    3.506697    0.000150
     19          6           0       -3.135635    3.317988    0.000197
     20          1           0       -4.771552    1.869763    0.000090
     21          1           0       -1.350377    4.511496    0.000234
     22          1           0       -3.804200    4.182927    0.000328
     23          6           0       -0.526851   -0.039668   -0.000182
     24          8           0        0.412920    2.567574   -0.000131
     25          1           0        1.285155    1.010486   -0.000214
 ---------------------------------------------------------------------

 SCF Done:  E(RwB97XD) =  -1028.79052521     A.U. after    1 cycles

 Alpha  occ. eigenvalues --  -89.10250 -19.21223 -14.51351 -10.41955 -10.36674
 Alpha  occ. eigenvalues --  -10.36132 -10.35970 -10.33486 -10.33059 -10.32707
 Alpha  occ. eigenvalues --  -10.32380 -10.31114 -10.30847 -10.30539 -10.29012
 Alpha  occ. eigenvalues --  -10.28456  -8.12207  -6.07108  -6.06705  -6.06206
 Alpha  occ. eigenvalues --   -1.13594  -1.10340  -0.98702  -0.95023  -0.93206
 Alpha  occ. eigenvalues --   -0.89331  -0.86458  -0.84144  -0.81511  -0.75749
 Alpha  occ. eigenvalues --   -0.74188  -0.71455  -0.69588  -0.67724  -0.64370
 Alpha  occ. eigenvalues --   -0.60880  -0.59842  -0.56644  -0.56089  -0.55985
 Alpha  occ. eigenvalues --   -0.55028  -0.53532  -0.52809  -0.50545  -0.49422
 Alpha  occ. eigenvalues --   -0.49032  -0.48134  -0.46658  -0.45660  -0.44758
 Alpha  occ. eigenvalues --   -0.44505  -0.42859  -0.41678  -0.40419  -0.36928
 Alpha  occ. eigenvalues --   -0.33659  -0.31708  -0.31285  -0.26117
 Alpha virt. eigenvalues --   -0.01369   0.03669   0.06158   0.06711   0.09568
 Alpha virt. eigenvalues --    0.11125   0.11931   0.14571   0.15894   0.17015
 Alpha virt. eigenvalues --    0.18670   0.19827   0.21140   0.21643   0.22924

 Mulliken charges:
               1
     1  C    0.007264
     2  C   -0.253919
     3  C    0.231921
     4  C   -0.013505
     5  C    0.013747
     6  C    0.002160
     7  H    0.025964
     8  H    0.034780
     9  H    0.028193
    10  H    0.026433
    11  N   -0.070523
    12  S    0.176034
    13  C   -0.138359
    14  C   -0.001753
    15  C    0.116303
    16  C   -0.036807
    17  H    0.000051
    18  C   -0.037294
    19  C    0.029195
    20  H    0.002751
    21  H    0.000328
    22  H    0.013040
    23  C    0.101827
    24  O   -0.371123
    25  H    0.113293
 Sum of Mulliken charges =  -0.00000

 Dipole moment (field-independent basis, Debye):
    X=              2.1635    Y=             -5.1165    Z=              0.0001  Tot=              5.5551
 Quadrupole moment (field-independent basis, Debye-Ang):
   XX=            -81.7958   YY=            -94.4985   ZZ=           -104.0689
   XY=             -6.7980   XZ=             -0.0001   YZ=              0.0007

  Exact polarizability:     291.621     -90.686     289.848      -0.002       0.005      63.041
 Approx polarizability:     269.600     -36.503     256.503      -0.002       0.003      82.051

 ******    1 imaginary frequencies (negative Signs) ******

                      1                      2                      3
                      A                      A                      A
 Frequencies --    -62.3244                53.3866                83.6085
 Red. masses --      4.4523                 5.6841                 4.9630
 Frc consts  --      0.0102                 0.0095                 0.0204
 IR Inten    --      3.0713                 0.4207                 1.6580

                      4                      5                      6
                      A                      A                      A
 Frequencies --    106.8081               185.0723               226.0765
 Red. masses --      5.6587                 5.0616                 5.5237
 Frc consts  --      0.0380                 0.1021                 0.1663
 IR Inten    --      0.5427                 0.9961                 5.0276

                      7                      8                      9
                      A                      A                      A
 Frequencies --    264.5688               291.4021               325.7527
 Red. masses --      7.3806                 3.5228                 6.7205
 Frc consts  --      0.3044                 0.1762                 0.4202
 IR Inten    --      3.3757                12.3232                 5.2671

                     10                     11                     12
                      A                      A                      A
 Frequencies --    378.8586               394.2828               438.7483
 Red. masses --      8.7045                 1.7234                 2.8084
 Frc consts  --      0.7361                 0.1579                 0.3185
 IR Inten    --      6.8554                41.1092                20.1567

                     13                     14                     15
                      A                      A                      A
 Frequencies --    443.4957               497.4816               526.5825
 Red. masses --      2.5475                 7.6758                 2.7154
 Frc consts  --      0.2952                 1.1192                 0.4436
 IR Inten    --      0.9262                 7.9149                 1.9144

                     16                     17                     18
                      A                      A                      A
 Frequencies --    536.6036               550.1418               561.6905
 Red. masses --      8.9061                 6.6061                 3.7246
 Frc consts  --      1.5109                 1.1780                 0.6923
 IR Inten    --      9.6119                 1.5719                 0.1296

                     19                     20                     21
                      A                      A                      A
 Frequencies --    583.4186               634.5569               661.5844
 Red. masses --      7.3517                 6.8307                 5.8709
 Frc consts  --      1.4743                 1.6205                 1.5140
 IR Inten    --     40.2649                 1.8995                 7.5079

                     22                     23                     24
                      A                      A                      A
 Frequencies --    689.8723               738.1612               748.9616
 Red. masses --      6.0751                 7.6275                 2.5945
 Frc consts  --      1.7035                 2.4487                 0.8575
 IR Inten    --     37.4559                38.7954                 9.5278

                     25                     26                     27
                      A                      A                      A
 Frequencies --    759.5727               774.9946               777.7013
 Red. masses --      1.4238                 1.5847                 2.4226
 Frc consts  --      0.4840                 0.5608                 0.8633
 IR Inten    --     48.6758                41.6934                32.8316

                     28                     29                     30
                      A                      A                      A
 Frequencies --    824.5155               875.3369               877.3188
 Red. masses --      6.2426                 1.9886                 1.3836
 Frc consts  --      2.5004                 0.8977                 0.6274
 IR Inten    --     27.3220                14.9606                 1.0201

                     31                     32                     33
                      A                      A                      A
 Frequencies --    908.2763               963.2015               967.8786
 Red. masses --      5.8910                 3.8056                 1.3257
 Frc consts  --      2.8633                 2.0802                 0.7317
 IR Inten    --      5.9455                35.6909                 0.2105

                     34                     35                     36
                      A                      A                      A
 Frequencies --    970.3284              1014.2274              1015.6684
 Red. masses --      1.3575                 1.3030                 1.3028
 Frc consts  --      0.7531                 0.7897                 0.7918
 IR Inten    --      1.2836                 0.0011                 0.3195

                     37                     38                     39
                      A                      A                      A
 Frequencies --   1047.6245              1057.6910              1078.2509
 Red. masses --      2.1119                 2.2009                 2.3321
 Frc consts  --      1.3657                 1.4507                 1.5975
 IR Inten    --      6.8090                11.9303                68.6478

                     40                     41                     42
                      A                      A                      A
 Frequencies --   1091.0353              1153.7440              1154.4055
 Red. masses --      2.9431                 1.2897                 1.3032
 Frc consts  --      2.0641                 1.0114                 1.0233
 IR Inten    --     34.0511                44.1772                 1.3339

                     43                     44                     45
                      A                      A                      A
 Frequencies --   1180.3928              1187.5599              1227.2900
 Red. masses --      1.1565                 1.1574                 2.2549
 Frc consts  --      0.9494                 0.9617                 2.0011
 IR Inten    --     46.5162                 4.3352                64.7558

                     46                     47                     48
                      A                      A                      A
 Frequencies --   1286.6628              1301.0982              1363.2413
 Red. masses --      1.9864                 1.7125                 5.2657
 Frc consts  --      1.9375                 1.7081                 5.7657
 IR Inten    --    117.9324               140.7485               103.6568

                     49                     50                     51
                      A                      A                      A
 Frequencies --   1370.8607              1397.2888              1415.1254
 Red. masses --      2.6865                 6.3652                 2.2608
 Frc consts  --      2.9746                 7.3221                 2.6675
 IR Inten    --     41.9060                91.0487                14.2814

                     52                     53                     54
                      A                      A                      A
 Frequencies --   1482.4286              1503.6551              1533.3140
 Red. masses --      3.0279                 3.0562                 2.9954
 Frc consts  --      3.9204                 4.0712                 4.1492
 IR Inten    --    645.9549               715.5734               493.0345

                     55                     56                     57
                      A                      A                      A
 Frequencies --   1548.8546              1588.0136              1651.0749
 Red. masses --      4.4073                 6.7210                 6.1837
 Frc consts  --      6.2293                 9.9861                 9.9319
 IR Inten    --    393.4525                98.0557                47.4114

                     58                     59                     60
                      A                      A                      A
 Frequencies --   1679.1802              1711.8983              1735.2042
 Red. masses --      7.1532                 8.1989                 8.6682
 Frc consts  --     11.8836                14.1567                15.3773
 IR Inten    --     58.7736                74.5425               376.1808

                     61                     62                     63
                      A                      A                      A
 Frequencies --   3174.6701              3188.5074              3213.8298
 Red. masses --      1.0895                 1.0877                 1.0945
 Frc consts  --      6.4696                 6.5152                 6.6606
 IR Inten    --      7.2085                14.2183                27.4821

                     64                     65                     66
                      A                      A                      A
 Frequencies --   3218.4283              3228.2954              3228.7197
 Red. masses --      1.0867                 1.0910                 1.0967
 Frc consts  --      6.6319                 6.6994                 6.7357
 IR Inten    --      2.1279                 0.5974                20.9701

                     67                     68                     69
                      A                      A                      A
 Frequencies --   3236.3005              3245.1240              3921.1806
 Red. masses --      1.0964                 1.0993                 1.0785
 Frc consts  --      6.7658                 6.8206                 9.7702
 IR Inten    --      3.9329                13.2326               128.5654

 - Thermochemistry -
 -------------------
 Temperature   298.150 Kelvin.  Pressure   1.00000 Atm.
 Atom     1 has atomic number  6 and mass  12.00000

 Molecular mass:   227.04049 amu.
 Principal axes and moments of inertia in atomic units:
                           1         2         3
     Eigenvalues --  1302.360866386.905527689.26636
           X           -0.70670   0.70751  -0.00000
           Y            0.70751   0.70670  -0.00001
           Z            0.00001   0.00001   1.00000
 This molecule is an asymmetric top.
 Rotational symmetry number  1.
 Warning -- assumption of classical behavior for rotation
           may cause significant error
 Rotational temperatures (Kelvin)      0.06651     0.01356     0.01126
 Rotational constants (GHZ):           1.38575     0.28257     0.23471
    1 imaginary frequencies ignored.
 Zero-point vibrational energy     496755.8 (Joules/Mol)
                                  118.72749 (Kcal/Mol)
 Warning -- explicit consideration of  18 degrees of freedom as
           vibrations may cause significant error
 Vibrational temperatures:     76.81   120.29   153.67   266.28   325.27
          (Kelvin)            380.66   419.26   468.69   545.09   567.29
                              631.26   638.09   715.77   757.63   772.05
                              791.53   808.15   839.41   912.99   951.87
                              992.57  1062.05  1077.59  1092.86  1115.04
                             1118.94  1186.29  1259.41  1262.27  1306.81
                             1385.83  1392.56  1396.09  1459.25  1461.32
                             1507.30  1521.78  1551.36  1569.76  1659.98
                             1660.93  1698.32  1708.63  1765.80  1851.22
                             1871.99  1961.40  1972.36  2010.39  2036.05
                             2132.88  2163.42  2206.10  2228.46  2284.80
                             2375.53  2415.97  2463.04  2496.57  4567.64
                             4587.55  4623.98  4630.60  4644.80  4645.41
                             4656.31  4669.01  5641.70

 Zero-point correction=                           0.189204 (Hartree/Particle)
 Thermal correction to Energy=                    0.200672
 Thermal correction to Enthalpy=                  0.201616
 Thermal correction to Gibbs Free Energy=         0.151137
 Sum of electronic and zero-point Energies=          -1028.601321
 Sum of electronic and thermal Energies=             -1028.589853
 Sum of electronic and thermal Enthalpies=           -1028.588909
 Sum of electronic and thermal Free Energies=        -1028.639388

                     E (Thermal)             CV                S
                      KCal/Mol        Cal/Mol-Kelvin    Cal/Mol-Kelvin
 Total                  125.924             47.254            106.243
 Electronic               0.000              0.000              0.000
 Translational            0.889              2.981             42.162
 Rotational               0.889              2.981             32.525
 Vibrational            124.146             41.292             31.555
 Vibration     1          0.596              1.976              4.688
 Vibration     2          0.601              1.960              3.804
 Vibration     3          0.606              1.944              3.326
 Vibration     4          0.631              1.860              2.277
 Vibration     5          0.650              1.801              1.910
 Vibration     6          0.671              1.738              1.631
 Vibration     7          0.687              1.690              1.466
 Vibration     8          0.710              1.624              1.281
 Vibration     9          0.749              1.515              1.044
 Vibration    10          0.761              1.482              0.984
 Vibration    11          0.799              1.386              0.831
 Vibration    12          0.803              1.375              0.816
 Vibration    13          0.853              1.256              0.664
 Vibration    14          0.882              1.191              0.595
 Vibration    15          0.892              1.169              0.573
 Vibration    16          0.905              1.139              0.544
 Vibration    17          0.917              1.114              0.520
 Vibration    18          0.940              1.067              0.479

 Optimization completed.
    -- Stationary point found.
 Normal termination of Gaussian 16 at Tue Oct 27 21:19:26 2020.
