 Gaussian 16, Revision C.01,
 Gaussian 16:  ES64L-G16RevC.01  3-Jul-2019

 ----------------------------------------------------------------------
 #p opt=addgic freq wb97xd/cc-pvdz nosymm int=ultrafine scrf=(solvent=C
 arbonTetraChloride)
 ----------------------------------------------------------------------

 ------------------------------------------------
 NM 2D-scan of HBT TD-WB97XD pVDZ in CTC Relaxed.
 ------------------------------------------------
 Symbolic Z-matrix:
 Charge =  0 Multiplicity = 1

 SCF Done:  E(RwB97XD) =  -1028.56962078     A.U. after   16 cycles
 SCF Done:  E(RwB97XD) =  -1028.73698955     A.U. after   14 cycles
 SCF Done:  E(RwB97XD) =  -1028.77623795     A.U. after   14 cycles
 SCF Done:  E(RwB97XD) =  -1028.79146095     A.U. after   14 cycles
 SCF Done:  E(RwB97XD) =  -1028.79249153     A.U. after   12 cycles
 SCF Done:  E(RwB97XD) =  -1028.79280827     A.U. after   12 cycles
 SCF Done:  E(RwB97XD) =  -1028.79283837     A.U. after   10 cycles
 SCF Done:  E(RwB97XD) =  -1028.79284098     A.U. after    9 cycles
 Optimization completed.
    -- Stationary point found.
 Normal termination of Gaussian 16 at Tue Oct 27 22:47:01 2020.

 --------------------------------------------------------------------
 #P Geom=AllCheck Guess=TCheck SCRF=Check GenChk RwB97XD/CC-pVDZ Freq
 --------------------------------------------------------------------

 Structure from the checkpoint file:  "config_12_8.chk"
 ------------------------------------------------
 NM 2D-scan of HBT TD-WB97XD pVDZ in CTC Relaxed.
 ------------------------------------------------
 Charge =  0 Multiplicity = 1

                          Input orientation:
 ---------------------------------------------------------------------
 Center     Atomic      Atomic             Coordinates (Angstroms)
 Number     Number       Type             X           Y           Z
 ---------------------------------------------------------------------
      1          6           0        1.679590   -3.281750    0.000089
      2          6           0        1.013701   -2.061206    0.000043
      3          6           0        1.731615   -0.885113   -0.000055
      4          6           0        3.124413   -0.848269   -0.000089
      5          6           0        3.788308   -2.071564   -0.000034
      6          6           0        3.073456   -3.272963    0.000049
      7          1           0        1.129330   -4.222193    0.000148
      8          1           0        3.666245    0.098572   -0.000158
      9          1           0        4.878776   -2.088231   -0.000059
     10          1           0        3.612308   -4.220758    0.000081
     11          7           0        0.873419    0.194873   -0.000129
     12         16           0       -0.729990   -1.697438    0.000069
     13          6           0       -1.401212    1.090554   -0.000063
     14          6           0       -2.799468    0.869104   -0.000117
     15          6           0       -0.842666    2.448089    0.000060
     16          6           0       -3.698914    1.913381   -0.000039
     17          1           0       -3.172733   -0.159670   -0.000231
     18          6           0       -1.860455    3.506385    0.000186
     19          6           0       -3.207081    3.245169    0.000132
     20          1           0       -4.771455    1.717458   -0.000091
     21          1           0       -1.491310    4.534039    0.000319
     22          1           0       -3.919995    4.074074    0.000220
     23          6           0       -0.461768    0.024556   -0.000069
     24          8           0        0.378617    2.644024    0.000089
     25          1           0        1.403999    1.023623   -0.000273
 ---------------------------------------------------------------------

 SCF Done:  E(RwB97XD) =  -1028.79284098     A.U. after    1 cycles

 Alpha  occ. eigenvalues --  -89.10052 -19.21087 -14.51795 -10.41853 -10.36782
 Alpha  occ. eigenvalues --  -10.36002 -10.35852 -10.33393 -10.33121 -10.32704
 Alpha  occ. eigenvalues --  -10.32344 -10.31090 -10.30592 -10.30527 -10.29033
 Alpha  occ. eigenvalues --  -10.28513  -8.12063  -6.06958  -6.06557  -6.06064
 Alpha  occ. eigenvalues --   -1.13360  -1.10264  -0.98679  -0.95275  -0.93271
 Alpha  occ. eigenvalues --   -0.89247  -0.86554  -0.84064  -0.81524  -0.75652
 Alpha  occ. eigenvalues --   -0.74317  -0.71617  -0.69545  -0.67756  -0.64332
 Alpha  occ. eigenvalues --   -0.60902  -0.59817  -0.56615  -0.56051  -0.55988
 Alpha  occ. eigenvalues --   -0.55030  -0.53553  -0.52891  -0.50352  -0.49354
 Alpha  occ. eigenvalues --   -0.49019  -0.48206  -0.46687  -0.45653  -0.44700
 Alpha  occ. eigenvalues --   -0.44539  -0.42884  -0.41740  -0.40387  -0.36939
 Alpha  occ. eigenvalues --   -0.33635  -0.31707  -0.31159  -0.26059
 Alpha virt. eigenvalues --   -0.01345   0.03696   0.06044   0.06821   0.09638
 Alpha virt. eigenvalues --    0.11240   0.12821   0.14566   0.15907   0.16799
 Alpha virt. eigenvalues --    0.18322   0.19792   0.21089   0.21635   0.23046

 Mulliken charges:
               1
     1  C    0.010115
     2  C   -0.247106
     3  C    0.218073
     4  C   -0.013955
     5  C    0.012350
     6  C    0.003222
     7  H    0.024904
     8  H    0.032924
     9  H    0.027983
    10  H    0.026226
    11  N   -0.080430
    12  S    0.177458
    13  C   -0.117608
    14  C   -0.007648
    15  C    0.108856
    16  C   -0.036111
    17  H    0.003113
    18  C   -0.043266
    19  C    0.028874
    20  H    0.002350
    21  H    0.000580
    22  H    0.013473
    23  C    0.104653
    24  O   -0.363172
    25  H    0.114143
 Sum of Mulliken charges =  -0.00000

 Dipole moment (field-independent basis, Debye):
    X=              2.2356    Y=             -5.2324    Z=             -0.0004  Tot=              5.6900
 Quadrupole moment (field-independent basis, Debye-Ang):
   XX=            -81.4302   YY=            -95.0869   ZZ=           -104.0237
   XY=             -6.6420   XZ=             -0.0008   YZ=             -0.0007

  Exact polarizability:     291.844     -91.759     289.733      -0.002       0.003      62.967
 Approx polarizability:     269.050     -36.449     255.496      -0.002       0.001      81.970

 ******    1 imaginary frequencies (negative Signs) ******

                      1                      2                      3
                      A                      A                      A
 Frequencies --    -71.5026                51.5791                73.9247
 Red. masses --      3.1031                 5.6130                 5.7738
 Frc consts  --      0.0093                 0.0088                 0.0186
 IR Inten    --      8.7902                 0.0207                 2.8543

                      4                      5                      6
                      A                      A                      A
 Frequencies --    110.9565               185.8056               216.8099
 Red. masses --      5.6591                 4.7968                 4.7619
 Frc consts  --      0.0410                 0.0976                 0.1319
 IR Inten    --      0.6492                 2.5100                11.8789

                      7                      8                      9
                      A                      A                      A
 Frequencies --    266.6342               278.9274               314.2577
 Red. masses --      7.4556                 2.4886                 7.4590
 Frc consts  --      0.3123                 0.1141                 0.4340
 IR Inten    --      3.5092                24.8441                 5.0600

                     10                     11                     12
                      A                      A                      A
 Frequencies --    350.0488               382.8162               433.5839
 Red. masses --      2.1305                 7.9607                 2.8917
 Frc consts  --      0.1538                 0.6874                 0.3203
 IR Inten    --     31.7131                 5.1070                 5.4801

                     13                     14                     15
                      A                      A                      A
 Frequencies --    441.8667               500.5484               523.7554
 Red. masses --      3.4898                 7.8412                 2.6978
 Frc consts  --      0.4015                 1.1575                 0.4360
 IR Inten    --      5.6447                 8.8478                 2.8783

                     16                     17                     18
                      A                      A                      A
 Frequencies --    536.6323               546.3962               562.3555
 Red. masses --      8.2994                 6.7376                 3.7700
 Frc consts  --      1.4081                 1.1852                 0.7025
 IR Inten    --      9.1829                 4.4218                 0.0305

                     19                     20                     21
                      A                      A                      A
 Frequencies --    581.9914               630.9960               662.1208
 Red. masses --      7.4183                 6.9559                 6.2206
 Frc consts  --      1.4804                 1.6318                 1.6068
 IR Inten    --     40.6036                 1.1737                 2.0216

                     22                     23                     24
                      A                      A                      A
 Frequencies --    696.5666               738.4045               750.6633
 Red. masses --      5.7300                 7.3534                 2.7507
 Frc consts  --      1.6381                 2.3623                 0.9132
 IR Inten    --     48.5668                38.1461                 8.4713

                     25                     26                     27
                      A                      A                      A
 Frequencies --    759.4024               775.9177               779.3268
 Red. masses --      1.4281                 1.5301                 2.4205
 Frc consts  --      0.4852                 0.5427                 0.8662
 IR Inten    --     47.3957                52.0000                23.5064

                     28                     29                     30
                      A                      A                      A
 Frequencies --    826.5007               875.5388               880.4198
 Red. masses --      6.2136                 2.0212                 1.3724
 Frc consts  --      2.5008                 0.9129                 0.6268
 IR Inten    --     27.2902                14.6351                 0.9834

                     31                     32                     33
                      A                      A                      A
 Frequencies --    903.9026               968.2748               971.3072
 Red. masses --      6.0088                 1.3224                 1.3565
 Frc consts  --      2.8925                 0.7305                 0.7540
 IR Inten    --      3.6944                 0.1599                 1.4113

                     34                     35                     36
                      A                      A                      A
 Frequencies --    972.1486              1014.8503              1016.2022
 Red. masses --      4.2064                 1.3014                 1.3045
 Frc consts  --      2.3422                 0.7897                 0.7937
 IR Inten    --     26.3437                 0.0036                 0.3381

                     37                     38                     39
                      A                      A                      A
 Frequencies --   1045.8240              1060.7697              1092.3167
 Red. masses --      2.1006                 2.1822                 3.2414
 Frc consts  --      1.3537                 1.4467                 2.2786
 IR Inten    --      6.8560                12.0696                15.2848

                     40                     41                     42
                      A                      A                      A
 Frequencies --   1100.2386              1156.1065              1158.1582
 Red. masses --      1.9821                 1.2515                 1.3449
 Frc consts  --      1.4137                 0.9855                 1.0629
 IR Inten    --     63.8610                45.3004                 6.0796

                     43                     44                     45
                      A                      A                      A
 Frequencies --   1181.9247              1189.7000              1224.5990
 Red. masses --      1.1635                 1.1568                 2.2980
 Frc consts  --      0.9576                 0.9647                 2.0304
 IR Inten    --     51.2619                 4.9198                57.5574

                     46                     47                     48
                      A                      A                      A
 Frequencies --   1283.2150              1305.7145              1363.8195
 Red. masses --      2.1461                 1.6890                 2.5064
 Frc consts  --      2.0821                 1.6965                 2.7467
 IR Inten    --    108.1586               124.8564                64.6540

                     49                     50                     51
                      A                      A                      A
 Frequencies --   1379.1823              1397.3911              1412.7945
 Red. masses --      6.0174                 6.0885                 2.2215
 Frc consts  --      6.7437                 7.0048                 2.6125
 IR Inten    --     30.7186               108.0349                 6.4132

                     52                     53                     54
                      A                      A                      A
 Frequencies --   1484.9696              1504.2951              1532.6266
 Red. masses --      3.1567                 3.1031                 3.4209
 Frc consts  --      4.1012                 4.1372                 4.7343
 IR Inten    --    643.8746               843.4404               911.0382

                     55                     56                     57
                      A                      A                      A
 Frequencies --   1543.0522              1588.0878              1652.7050
 Red. masses --      3.5202                 6.6296                 6.0073
 Frc consts  --      4.9384                 9.8511                 9.6676
 IR Inten    --    122.9006                51.0529                56.9914

                     58                     59                     60
                      A                      A                      A
 Frequencies --   1679.5656              1711.5390              1742.9754
 Red. masses --      7.0843                 7.9924                 9.4580
 Frc consts  --     11.7745                13.7944                16.9291
 IR Inten    --     40.8285                34.3725               439.9303

                     61                     62                     63
                      A                      A                      A
 Frequencies --   3177.4886              3190.0657              3216.0166
 Red. masses --      1.0893                 1.0878                 1.0943
 Frc consts  --      6.4798                 6.5221                 6.6682
 IR Inten    --      5.6658                14.7533                30.4657

                     64                     65                     66
                      A                      A                      A
 Frequencies --   3217.6986              3228.4285              3231.1323
 Red. masses --      1.0868                 1.0911                 1.0966
 Frc consts  --      6.6295                 6.7002                 6.7456
 IR Inten    --      2.3399                 1.4089                19.5525

                     67                     68                     69
                      A                      A                      A
 Frequencies --   3236.1331              3245.4582              3971.0360
 Red. masses --      1.0964                 1.0992                 1.0779
 Frc consts  --      6.7651                 6.8213                10.0148
 IR Inten    --      3.7428                12.3064               123.3525

 - Thermochemistry -
 -------------------
 Temperature   298.150 Kelvin.  Pressure   1.00000 Atm.
 Atom     1 has atomic number  6 and mass  12.00000

 Molecular mass:   227.04049 amu.
 Principal axes and moments of inertia in atomic units:
                           1         2         3
     Eigenvalues --  1283.760236412.518867696.27907
           X           -0.70705   0.70716   0.00000
           Y            0.70716   0.70705  -0.00000
           Z            0.00001   0.00000   1.00000
 This molecule is an asymmetric top.
 Rotational symmetry number  1.
 Warning -- assumption of classical behavior for rotation
           may cause significant error
 Rotational temperatures (Kelvin)      0.06747     0.01351     0.01125
 Rotational constants (GHZ):           1.40582     0.28144     0.23450
    1 imaginary frequencies ignored.
 Zero-point vibrational energy     496967.4 (Joules/Mol)
                                  118.77806 (Kcal/Mol)
 Warning -- explicit consideration of  18 degrees of freedom as
           vibrations may cause significant error
 Vibrational temperatures:     74.21   106.36   159.64   267.33   311.94
          (Kelvin)            383.63   401.31   452.15   503.64   550.79
                              623.83   635.75   720.18   753.57   772.09
                              786.14   809.10   837.36   907.86   952.64
                             1002.20  1062.40  1080.04  1092.61  1116.37
                             1121.28  1189.15  1259.71  1266.73  1300.51
                             1393.13  1397.49  1398.71  1460.14  1462.09
                             1504.71  1526.21  1571.60  1583.00  1663.38
                             1666.33  1700.53  1711.71  1761.92  1846.26
                             1878.63  1962.23  1984.34  2010.53  2032.70
                             2136.54  2164.35  2205.11  2220.11  2284.90
                             2377.87  2416.52  2462.52  2507.75  4571.70
                             4589.79  4627.13  4629.55  4644.99  4648.88
                             4656.07  4669.49  5713.44

 Zero-point correction=                           0.189285 (Hartree/Particle)
 Thermal correction to Energy=                    0.200850
 Thermal correction to Enthalpy=                  0.201794
 Thermal correction to Gibbs Free Energy=         0.151036
 Sum of electronic and zero-point Energies=          -1028.603556
 Sum of electronic and thermal Energies=             -1028.591991
 Sum of electronic and thermal Enthalpies=           -1028.591047
 Sum of electronic and thermal Free Energies=        -1028.641805

                     E (Thermal)             CV                S
                      KCal/Mol        Cal/Mol-Kelvin    Cal/Mol-Kelvin
 Total                  126.035             47.360            106.831
 Electronic               0.000              0.000              0.000
 Translational            0.889              2.981             42.162
 Rotational               0.889              2.981             32.516
 Vibrational            124.258             41.398             32.153
 Vibration     1          0.596              1.977              4.756
 Vibration     2          0.599              1.966              4.046
 Vibration     3          0.607              1.940              3.252
 Vibration     4          0.632              1.859              2.269
 Vibration     5          0.646              1.815              1.986
 Vibration     6          0.672              1.734              1.618
 Vibration     7          0.679              1.713              1.540
 Vibration     8          0.702              1.646              1.340
 Vibration     9          0.727              1.575              1.166
 Vibration    10          0.752              1.507              1.028
 Vibration    11          0.794              1.397              0.847
 Vibration    12          0.802              1.379              0.821
 Vibration    13          0.856              1.249              0.657
 Vibration    14          0.879              1.197              0.601
 Vibration    15          0.892              1.169              0.573
 Vibration    16          0.902              1.148              0.552
 Vibration    17          0.918              1.113              0.519
 Vibration    18          0.939              1.070              0.482

                           ! Non-Optimized Parameters !
 Normal termination of Gaussian 16 at Tue Oct 27 22:52:57 2020.
