 Gaussian 16, Revision C.01,
 Gaussian 16:  ES64L-G16RevC.01  3-Jul-2019

 ----------------------------------------------------------------------
 #p opt=addgic freq wb97xd/cc-pvdz nosymm int=ultrafine scrf=(solvent=C
 arbonTetraChloride)
 ----------------------------------------------------------------------

 ------------------------------------------------
 NM 2D-scan of HBT TD-WB97XD pVDZ in CTC Relaxed.
 ------------------------------------------------
 Symbolic Z-matrix:
 Charge =  0 Multiplicity = 1

 SCF Done:  E(RwB97XD) =  -1028.81618458     A.U. after   15 cycles
 SCF Done:  E(RwB97XD) =  -1028.82338608     A.U. after   13 cycles
 SCF Done:  E(RwB97XD) =  -1028.82375952     A.U. after   12 cycles
 SCF Done:  E(RwB97XD) =  -1028.82430383     A.U. after   12 cycles
 SCF Done:  E(RwB97XD) =  -1028.82453597     A.U. after   11 cycles
 SCF Done:  E(RwB97XD) =  -1028.82453898     A.U. after    9 cycles
 SCF Done:  E(RwB97XD) =  -1028.82453110     A.U. after   10 cycles
 SCF Done:  E(RwB97XD) =  -1028.82453997     A.U. after   10 cycles
 Optimization completed.
    -- Stationary point found.
 Normal termination of Gaussian 16 at Wed Oct 28 00:24:53 2020.

 --------------------------------------------------------------------
 #P Geom=AllCheck Guess=TCheck SCRF=Check GenChk RwB97XD/CC-pVDZ Freq
 --------------------------------------------------------------------

 Structure from the checkpoint file:  "config_5_13.chk"
 ------------------------------------------------
 NM 2D-scan of HBT TD-WB97XD pVDZ in CTC Relaxed.
 ------------------------------------------------
 Charge =  0 Multiplicity = 1

                          Input orientation:
 ---------------------------------------------------------------------
 Center     Atomic      Atomic             Coordinates (Angstroms)
 Number     Number       Type             X           Y           Z
 ---------------------------------------------------------------------
      1          6           0        1.590555   -3.258358   -0.000067
      2          6           0        1.002504   -1.996638   -0.000052
      3          6           0        1.753510   -0.812113   -0.000005
      4          6           0        3.152852   -0.893562    0.000028
      5          6           0        3.745131   -2.153720    0.000015
      6          6           0        2.976013   -3.327131   -0.000032
      7          1           0        0.978178   -4.160368   -0.000103
      8          1           0        3.757217    0.014090    0.000066
      9          1           0        4.833524   -2.229165    0.000043
     10          1           0        3.468902   -4.300145   -0.000041
     11          7           0        0.954156    0.325268    0.000011
     12         16           0       -0.706025   -1.634583   -0.000080
     13          6           0       -1.343491    1.094551    0.000013
     14          6           0       -2.709557    0.791631    0.000050
     15          6           0       -0.887863    2.437480   -0.000001
     16          6           0       -3.660190    1.800092    0.000073
     17          1           0       -3.029281   -0.253367    0.000066
     18          6           0       -1.872620    3.452921    0.000019
     19          6           0       -3.225663    3.131738    0.000052
     20          1           0       -4.723171    1.559097    0.000105
     21          1           0       -1.544778    4.493384    0.000003
     22          1           0       -3.962285    3.937988    0.000065
     23          6           0       -0.329768    0.056246   -0.000016
     24          8           0        0.403556    2.697666   -0.000041
     25          1           0        0.907028    1.771464   -0.000064
 ---------------------------------------------------------------------

 SCF Done:  E(RwB97XD) =  -1028.82453997     A.U. after    1 cycles

 Alpha  occ. eigenvalues --  -89.08832 -19.26551 -14.47474 -10.39559 -10.37068
 Alpha  occ. eigenvalues --  -10.35467 -10.34857 -10.32411 -10.32046 -10.31751
 Alpha  occ. eigenvalues --  -10.31743 -10.31704 -10.31661 -10.31338 -10.30040
 Alpha  occ. eigenvalues --  -10.29994  -8.10953  -6.05799  -6.05436  -6.05004
 Alpha  occ. eigenvalues --   -1.15539  -1.09281  -0.97467  -0.96142  -0.92122
 Alpha  occ. eigenvalues --   -0.88692  -0.85659  -0.84295  -0.83047  -0.75584
 Alpha  occ. eigenvalues --   -0.71516  -0.70683  -0.69358  -0.68142  -0.63373
 Alpha  occ. eigenvalues --   -0.60793  -0.59097  -0.58215  -0.56276  -0.54546
 Alpha  occ. eigenvalues --   -0.54507  -0.53430  -0.52768  -0.50961  -0.50113
 Alpha  occ. eigenvalues --   -0.49492  -0.47154  -0.46161  -0.45386  -0.45109
 Alpha  occ. eigenvalues --   -0.44080  -0.42851  -0.42688  -0.40030  -0.36348
 Alpha  occ. eigenvalues --   -0.36276  -0.32354  -0.31626  -0.28800
 Alpha virt. eigenvalues --   -0.00559   0.04663   0.06751   0.07448   0.07792
 Alpha virt. eigenvalues --    0.11252   0.14584   0.15132   0.16887   0.17967
 Alpha virt. eigenvalues --    0.19016   0.20988   0.21741   0.22530   0.22660

 Mulliken charges:
               1
     1  C    0.016374
     2  C   -0.221831
     3  C    0.243100
     4  C   -0.015931
     5  C    0.004699
     6  C    0.003274
     7  H    0.019275
     8  H    0.022297
     9  H    0.021720
    10  H    0.022372
    11  N   -0.344942
    12  S    0.158906
    13  C   -0.063486
    14  C   -0.026919
    15  C    0.087336
    16  C   -0.010971
    17  H    0.015250
    18  C   -0.006094
    19  C    0.021544
    20  H    0.008281
    21  H    0.013834
    22  H    0.018000
    23  C    0.083526
    24  O   -0.251247
    25  H    0.181634
 Sum of Mulliken charges =  -0.00000

 Dipole moment (field-independent basis, Debye):
    X=              0.1573    Y=             -3.1746    Z=             -0.0000  Tot=              3.1785
 Quadrupole moment (field-independent basis, Debye-Ang):
   XX=            -82.6796   YY=            -90.8015   ZZ=           -103.9799
   XY=             -7.2732   XZ=             -0.0001   YZ=              0.0003

  Exact polarizability:     275.060     -69.065     256.141      -0.001       0.002      62.852
 Approx polarizability:     262.398     -24.057     242.646       0.000       0.002      82.142

 ******    1 imaginary frequencies (negative Signs) ******

                      1                      2                      3
                      A                      A                      A
 Frequencies --     -7.1136                65.2578               125.9644
 Red. masses --      5.3621                 6.0650                 5.5821
 Frc consts  --      0.0002                 0.0152                 0.0522
 IR Inten    --      0.0277                 1.3023                 3.1319

                      4                      5                      6
                      A                      A                      A
 Frequencies --    152.0691               197.1824               243.7184
 Red. masses --      5.0658                 6.0671                 5.6345
 Frc consts  --      0.0690                 0.1390                 0.1972
 IR Inten    --      0.2446                 0.5542                 0.0868

                      7                      8                      9
                      A                      A                      A
 Frequencies --    276.6184               328.8453               335.1351
 Red. masses --      7.3146                 5.1461                 6.0220
 Frc consts  --      0.3298                 0.3279                 0.3985
 IR Inten    --      0.6499                 0.1486                17.3933

                     10                     11                     12
                      A                      A                      A
 Frequencies --    421.2622               435.7075               462.3341
 Red. masses --     10.6333                 3.1029                 3.5955
 Frc consts  --      1.1118                 0.3471                 0.4528
 IR Inten    --      0.0513                 1.7983                 8.2575

                     13                     14                     15
                      A                      A                      A
 Frequencies --    515.0409               524.6900               537.9467
 Red. masses --      7.4487                 6.1857                 3.4480
 Frc consts  --      1.1642                 1.0033                 0.5879
 IR Inten    --      5.4237                24.5361                 3.4663

                     16                     17                     18
                      A                      A                      A
 Frequencies --    561.7312               575.6416               590.5791
 Red. masses --      7.0134                 3.7112                 7.6114
 Frc consts  --      1.3039                 0.7246                 1.5641
 IR Inten    --      8.0261                 0.0607                 2.3132

                     19                     20                     21
                      A                      A                      A
 Frequencies --    648.2896               686.6205               729.0831
 Red. masses --      6.3687                 6.4305                 6.5341
 Frc consts  --      1.5770                 1.7862                 2.0464
 IR Inten    --      0.0091                 7.2204                20.1066

                     22                     23                     24
                      A                      A                      A
 Frequencies --    755.8487               767.3596               768.6525
 Red. masses --      2.0265                 9.8877                 2.7753
 Frc consts  --      0.6821                 3.4304                 0.9661
 IR Inten    --     26.4109                20.0239                 5.1316

                     25                     26                     27
                      A                      A                      A
 Frequencies --    774.7977               784.5005               854.4450
 Red. masses --      1.4612                 1.9031                 5.9855
 Frc consts  --      0.5168                 0.6901                 2.5747
 IR Inten    --     55.5782                41.6515                14.6594

                     28                     29                     30
                      A                      A                      A
 Frequencies --    881.7107               886.2726               906.5469
 Red. masses --      1.5736                 1.4068                 6.7654
 Frc consts  --      0.7208                 0.6511                 3.2759
 IR Inten    --      5.4230                 0.3933                 5.6712

                     31                     32                     33
                      A                      A                      A
 Frequencies --    966.8614               975.0099              1010.4981
 Red. masses --      1.3611                 1.3646                 7.5119
 Frc consts  --      0.7496                 0.7643                 4.5193
 IR Inten    --      1.2552                 1.2181                48.8831

                     34                     35                     36
                      A                      A                      A
 Frequencies --   1010.5722              1015.6616              1052.7876
 Red. masses --      1.3025                 1.3054                 2.0024
 Frc consts  --      0.7837                 0.7934                 1.3076
 IR Inten    --      0.1354                 0.0045                 9.5967

                     37                     38                     39
                      A                      A                      A
 Frequencies --   1061.4623              1066.8113              1104.4551
 Red. masses --      1.0620                 1.8940                 3.5689
 Frc consts  --      0.7050                 1.2700                 2.5649
 IR Inten    --     72.8691                 8.1405                 4.9532

                     40                     41                     42
                      A                      A                      A
 Frequencies --   1152.4782              1157.8980              1173.1914
 Red. masses --      1.4548                 1.3703                 1.1321
 Frc consts  --      1.1385                 1.0825                 0.9180
 IR Inten    --     14.0348                 2.5338                37.4797

                     43                     44                     45
                      A                      A                      A
 Frequencies --   1184.0133              1261.3422              1287.6385
 Red. masses --      1.2217                 1.9011                 1.6340
 Frc consts  --      1.0090                 1.7820                 1.5962
 IR Inten    --      0.4703                69.9146                 4.5865

                     46                     47                     48
                      A                      A                      A
 Frequencies --   1304.9827              1314.5880              1363.3294
 Red. masses --      3.5701                 2.7003                 4.2019
 Frc consts  --      3.5821                 2.7494                 4.6015
 IR Inten    --    249.6087                44.1142                 8.4117

                     49                     50                     51
                      A                      A                      A
 Frequencies --   1378.9254              1381.1387              1486.1783
 Red. masses --      3.5969                 7.7377                 2.9556
 Frc consts  --      4.0296                 8.6963                 3.8462
 IR Inten    --     17.6194                 6.6522                15.8730

                     52                     53                     54
                      A                      A                      A
 Frequencies --   1491.8530              1495.3362              1518.0544
 Red. masses --      2.5921                 2.7555                 3.8768
 Frc consts  --      3.3991                 3.6302                 5.2638
 IR Inten    --     13.8385                28.2645                85.1916

                     55                     56                     57
                      A                      A                      A
 Frequencies --   1576.8791              1614.7739              1655.0127
 Red. masses --      6.3842                 3.5395                 6.9295
 Frc consts  --      9.3530                 5.4378                11.1830
 IR Inten    --    275.2323                 4.7875                18.1746

                     58                     59                     60
                      A                      A                      A
 Frequencies --   1674.7224              1699.1406              1744.6120
 Red. masses --      6.5800                 6.9540                 1.4824
 Frc consts  --     10.8733                11.8289                 2.6583
 IR Inten    --     95.2802               213.2573               391.1239

                     61                     62                     63
                      A                      A                      A
 Frequencies --   2206.6770              3199.4500              3207.6604
 Red. masses --      1.1175                 1.0885                 1.0890
 Frc consts  --      3.2061                 6.5647                 6.6017
 IR Inten    --   1664.7600                 3.5270                 7.5564

                     64                     65                     66
                      A                      A                      A
 Frequencies --   3212.4220              3222.7576              3228.3054
 Red. masses --      1.0861                 1.0906                 1.0937
 Frc consts  --      6.6038                 6.6739                 6.7156
 IR Inten    --      1.5982                 3.1588                14.1620

                     67                     68                     69
                      A                      A                      A
 Frequencies --   3232.7867              3236.8652              3239.0844
 Red. masses --      1.0959                 1.0988                 1.0998
 Frc consts  --      6.7483                 6.7828                 6.7982
 IR Inten    --      8.5396                17.7505                13.2775

 - Thermochemistry -
 -------------------
 Temperature   298.150 Kelvin.  Pressure   1.00000 Atm.
 Atom     1 has atomic number  6 and mass  12.00000

 Molecular mass:   227.04049 amu.
 Principal axes and moments of inertia in atomic units:
                           1         2         3
     Eigenvalues --  1278.623736272.506737551.13046
           X           -0.70564   0.70857  -0.00000
           Y            0.70857   0.70564  -0.00001
           Z            0.00001   0.00001   1.00000
 This molecule is an asymmetric top.
 Rotational symmetry number  1.
 Warning -- assumption of classical behavior for rotation
           may cause significant error
 Rotational temperatures (Kelvin)      0.06774     0.01381     0.01147
 Rotational constants (GHZ):           1.41147     0.28772     0.23900
    1 imaginary frequencies ignored.
 Zero-point vibrational energy     496211.4 (Joules/Mol)
                                  118.59737 (Kcal/Mol)
 Warning -- explicit consideration of  17 degrees of freedom as
           vibrations may cause significant error
 Vibrational temperatures:     93.89   181.23   218.79   283.70   350.66
          (Kelvin)            397.99   473.14   482.18   606.10   626.89
                              665.20   741.03   754.91   773.99   808.21
                              828.22   849.71   932.74   987.89  1048.99
                             1087.50  1104.06  1105.92  1114.76  1128.72
                             1229.36  1268.59  1275.15  1304.32  1391.10
                             1402.82  1453.88  1453.99  1461.31  1514.73
                             1527.21  1534.90  1589.06  1658.16  1665.96
                             1687.96  1703.53  1814.79  1852.62  1877.58
                             1891.40  1961.53  1983.97  1987.15  2138.28
                             2146.44  2151.46  2184.14  2268.78  2323.30
                             2381.19  2409.55  2444.68  2510.11  3174.92
                             4603.29  4615.11  4621.96  4636.83  4644.81
                             4651.26  4657.13  4660.32

 Zero-point correction=                           0.188997 (Hartree/Particle)
 Thermal correction to Energy=                    0.199697
 Thermal correction to Enthalpy=                  0.200641
 Thermal correction to Gibbs Free Energy=         0.152051
 Sum of electronic and zero-point Energies=          -1028.635543
 Sum of electronic and thermal Energies=             -1028.624843
 Sum of electronic and thermal Enthalpies=           -1028.623899
 Sum of electronic and thermal Free Energies=        -1028.672489

                     E (Thermal)             CV                S
                      KCal/Mol        Cal/Mol-Kelvin    Cal/Mol-Kelvin
 Total                  125.312             45.030            102.268
 Electronic               0.000              0.000              0.000
 Translational            0.889              2.981             42.162
 Rotational               0.889              2.981             32.471
 Vibrational            123.534             39.069             27.635
 Vibration     1          0.597              1.971              4.292
 Vibration     2          0.611              1.927              3.007
 Vibration     3          0.619              1.900              2.646
 Vibration     4          0.637              1.844              2.159
 Vibration     5          0.659              1.773              1.776
 Vibration     6          0.678              1.717              1.554
 Vibration     7          0.712              1.618              1.266
 Vibration     8          0.716              1.605              1.235
 Vibration     9          0.784              1.424              0.888
 Vibration    10          0.796              1.392              0.840
 Vibration    11          0.820              1.334              0.759
 Vibration    12          0.870              1.217              0.622
 Vibration    13          0.880              1.195              0.599
 Vibration    14          0.893              1.166              0.570
 Vibration    15          0.917              1.114              0.520
 Vibration    16          0.932              1.084              0.494
 Vibration    17          0.948              1.052              0.466

                           ! Non-Optimized Parameters !
 Normal termination of Gaussian 16 at Wed Oct 28 00:31:15 2020.
