 Gaussian 16, Revision C.01,
 Gaussian 16:  ES64L-G16RevC.01  3-Jul-2019

 ----------------------------------------------------------------------
 #p opt=addgic freq wb97xd/cc-pvdz nosymm int=ultrafine scrf=(solvent=C
 arbonTetraChloride)
 ----------------------------------------------------------------------

 ------------------------------------------------
 NM 2D-scan of HBT TD-WB97XD pVDZ in CTC Relaxed.
 ------------------------------------------------
 Symbolic Z-matrix:
 Charge =  0 Multiplicity = 1

 SCF Done:  E(RwB97XD) =  -1028.72401908     A.U. after   15 cycles
 SCF Done:  E(RwB97XD) =  -1028.81469983     A.U. after   13 cycles
 SCF Done:  E(RwB97XD) =  -1028.80948855     A.U. after   14 cycles
 SCF Done:  E(RwB97XD) =  -1028.82940205     A.U. after   12 cycles
 SCF Done:  E(RwB97XD) =  -1028.82957768     A.U. after   11 cycles
 SCF Done:  E(RwB97XD) =  -1028.82959701     A.U. after   10 cycles
 SCF Done:  E(RwB97XD) =  -1028.82959987     A.U. after    9 cycles
 SCF Done:  E(RwB97XD) =  -1028.82960008     A.U. after    8 cycles
 SCF Done:  E(RwB97XD) =  -1028.82960010     A.U. after    7 cycles
 Optimization completed.
    -- Stationary point found.
 Normal termination of Gaussian 16 at Tue Oct 27 23:02:26 2020.

 --------------------------------------------------------------------
 #P Geom=AllCheck Guess=TCheck SCRF=Check GenChk RwB97XD/CC-pVDZ Freq
 --------------------------------------------------------------------

 Structure from the checkpoint file:  "config_2_10.chk"
 ------------------------------------------------
 NM 2D-scan of HBT TD-WB97XD pVDZ in CTC Relaxed.
 ------------------------------------------------
 Charge =  0 Multiplicity = 1

                          Input orientation:
 ---------------------------------------------------------------------
 Center     Atomic      Atomic             Coordinates (Angstroms)
 Number     Number       Type             X           Y           Z
 ---------------------------------------------------------------------
      1          6           0        1.645689   -3.311319   -0.000102
      2          6           0        0.975254   -2.083028   -0.000047
      3          6           0        1.696239   -0.874147    0.000066
      4          6           0        3.095415   -0.875066    0.000137
      5          6           0        3.758824   -2.090210    0.000081
      6          6           0        3.037593   -3.296537   -0.000040
      7          1           0        1.099611   -4.255156   -0.000180
      8          1           0        3.629962    0.075369    0.000223
      9          1           0        4.849456   -2.114011    0.000131
     10          1           0        3.578028   -4.244435   -0.000077
     11          7           0        0.930335    0.269985    0.000080
     12         16           0       -0.742844   -1.722654   -0.000042
     13          6           0       -1.339747    1.095618   -0.000042
     14          6           0       -2.725861    0.841111   -0.000013
     15          6           0       -0.908130    2.451922   -0.000033
     16          6           0       -3.654218    1.868422    0.000094
     17          1           0       -3.075630   -0.194273   -0.000033
     18          6           0       -1.858020    3.482634    0.000087
     19          6           0       -3.210286    3.198119    0.000159
     20          1           0       -4.720467    1.642056    0.000138
     21          1           0       -1.486763    4.507954    0.000082
     22          1           0       -3.932539    4.016533    0.000237
     23          6           0       -0.346158    0.016655   -0.000042
     24          8           0        0.372302    2.846401   -0.000263
     25          1           0        0.934334    2.043404   -0.000490
 ---------------------------------------------------------------------

 SCF Done:  E(RwB97XD) =  -1028.82960010     A.U. after    1 cycles

 Alpha  occ. eigenvalues --  -89.08671 -19.28433 -14.46781 -10.39444 -10.37499
 Alpha  occ. eigenvalues --  -10.34856 -10.34688 -10.32603 -10.32354 -10.31910
 Alpha  occ. eigenvalues --  -10.31565 -10.31477 -10.31382 -10.31377 -10.30289
 Alpha  occ. eigenvalues --  -10.30082  -8.10644  -6.05504  -6.05149  -6.04689
 Alpha  occ. eigenvalues --   -1.16641  -1.08840  -0.97215  -0.96131  -0.91350
 Alpha  occ. eigenvalues --   -0.88528  -0.85318  -0.84569  -0.82884  -0.75458
 Alpha  occ. eigenvalues --   -0.71375  -0.70620  -0.69448  -0.68140  -0.63086
 Alpha  occ. eigenvalues --   -0.60319  -0.58668  -0.58418  -0.56435  -0.54497
 Alpha  occ. eigenvalues --   -0.53859  -0.53131  -0.52668  -0.50837  -0.50393
 Alpha  occ. eigenvalues --   -0.49230  -0.47801  -0.45825  -0.45339  -0.44956
 Alpha  occ. eigenvalues --   -0.43857  -0.42978  -0.42526  -0.39679  -0.37360
 Alpha  occ. eigenvalues --   -0.36161  -0.32043  -0.31733  -0.29126
 Alpha virt. eigenvalues --   -0.00423   0.04883   0.06800   0.07154   0.07651
 Alpha virt. eigenvalues --    0.11537   0.13776   0.15166   0.16237   0.17875
 Alpha virt. eigenvalues --    0.18916   0.20586   0.21671   0.22513   0.22835

 Mulliken charges:
               1
     1  C    0.004924
     2  C   -0.210995
     3  C    0.221159
     4  C   -0.013822
     5  C    0.006509
     6  C   -0.000934
     7  H    0.019440
     8  H    0.016544
     9  H    0.019113
    10  H    0.021201
    11  N   -0.335562
    12  S    0.139163
    13  C   -0.056072
    14  C   -0.022456
    15  C    0.061766
    16  C   -0.005849
    17  H    0.014043
    18  C    0.015085
    19  C    0.019920
    20  H    0.010210
    21  H    0.017071
    22  H    0.018578
    23  C    0.078464
    24  O   -0.194105
    25  H    0.156608
 Sum of Mulliken charges =  -0.00000

 Dipole moment (field-independent basis, Debye):
    X=             -0.0125    Y=             -2.2203    Z=             -0.0003  Tot=              2.2203
 Quadrupole moment (field-independent basis, Debye-Ang):
   XX=            -82.7050   YY=            -89.8519   ZZ=           -104.1822
   XY=             -6.9903   XZ=             -0.0007   YZ=              0.0005

  Exact polarizability:     274.539     -66.125     255.645      -0.001       0.005      63.033
 Approx polarizability:     262.627     -22.595     242.863      -0.000       0.006      82.214

                      1                      2                      3
                      A                      A                      A
 Frequencies --     52.6247                58.8291               114.7600
 Red. masses --      6.3250                 5.0658                 5.6544
 Frc consts  --      0.0103                 0.0103                 0.0439
 IR Inten    --      0.6703                 0.4832                 1.2338

                      4                      5                      6
                      A                      A                      A
 Frequencies --    152.0833               199.5174               245.9213
 Red. masses --      4.9519                 5.8901                 5.7568
 Frc consts  --      0.0675                 0.1381                 0.2051
 IR Inten    --      0.0007                 0.5710                 0.0325

                      7                      8                      9
                      A                      A                      A
 Frequencies --    263.8281               294.1691               327.4466
 Red. masses --      8.1077                 6.2420                 5.0805
 Frc consts  --      0.3325                 0.3183                 0.3209
 IR Inten    --      2.8411                 6.1427                 0.2833

                     10                     11                     12
                      A                      A                      A
 Frequencies --    404.5087               439.3778               469.5673
 Red. masses --      8.7706                 3.1568                 3.7431
 Frc consts  --      0.8455                 0.3591                 0.4863
 IR Inten    --      0.2083                 2.0568                 8.1300

                     13                     14                     15
                      A                      A                      A
 Frequencies --    501.2929               515.5266               538.7009
 Red. masses --      4.7756                 8.6550                 3.4535
 Frc consts  --      0.7071                 1.3552                 0.5905
 IR Inten    --      6.1670                 0.0573                 3.8831

                     16                     17                     18
                      A                      A                      A
 Frequencies --    546.5675               574.5778               593.1183
 Red. masses --      8.5497                 3.7300                 7.7126
 Frc consts  --      1.5048                 0.7255                 1.5986
 IR Inten    --      2.3857                 0.0146                 6.1987

                     19                     20                     21
                      A                      A                      A
 Frequencies --    643.5079               677.5713               706.1548
 Red. masses --      4.8935                 6.5556                 8.3939
 Frc consts  --      1.1939                 1.7733                 2.4661
 IR Inten    --      2.1321                 4.8641                42.2489

                     22                     23                     24
                      A                      A                      A
 Frequencies --    726.1493               726.6181               756.2275
 Red. masses --      1.2446                 7.8488                 1.9391
 Frc consts  --      0.3867                 2.4416                 0.6534
 IR Inten    --     76.2710                 1.8199                20.1455

                     25                     26                     27
                      A                      A                      A
 Frequencies --    773.1613               779.9365               789.7141
 Red. masses --      2.4093                 1.4318                 1.9115
 Frc consts  --      0.8486                 0.5132                 0.7024
 IR Inten    --     41.6052                26.6677                47.3534

                     28                     29                     30
                      A                      A                      A
 Frequencies --    842.7514               885.4054               888.5148
 Red. masses --      6.0381                 1.5354                 1.4262
 Frc consts  --      2.5267                 0.7092                 0.6634
 IR Inten    --     22.9438                 3.8305                 0.8799

                     31                     32                     33
                      A                      A                      A
 Frequencies --    892.8712               972.8429               976.8311
 Red. masses --      6.4682                 1.3559                 1.3642
 Frc consts  --      3.0382                 0.7561                 0.7670
 IR Inten    --      2.8457                 1.1952                 1.5355

                     34                     35                     36
                      A                      A                      A
 Frequencies --    983.0313              1011.5515              1015.7456
 Red. masses --      7.6418                 1.3015                 1.3044
 Frc consts  --      4.3509                 0.7846                 0.7929
 IR Inten    --     64.9563                 0.3314                 0.0131

                     37                     38                     39
                      A                      A                      A
 Frequencies --   1052.1251              1071.6338              1097.1124
 Red. masses --      2.0109                 2.0047                 4.4473
 Frc consts  --      1.3116                 1.3564                 3.1539
 IR Inten    --      8.2620                12.6917                 6.2585

                     40                     41                     42
                      A                      A                      A
 Frequencies --   1147.9917              1151.8896              1176.9492
 Red. masses --      1.5208                 1.2954                 1.1312
 Frc consts  --      1.1809                 1.0127                 0.9232
 IR Inten    --      4.7633                 4.5231                45.7319

                     43                     44                     45
                      A                      A                      A
 Frequencies --   1185.1203              1240.4515              1282.6899
 Red. masses --      1.1982                 1.7512                 2.0496
 Frc consts  --      0.9915                 1.5876                 1.9869
 IR Inten    --      0.2492               162.4260                63.5463

                     46                     47                     48
                      A                      A                      A
 Frequencies --   1285.0667              1321.6933              1346.4373
 Red. masses --      1.6696                 5.2716                 3.0171
 Frc consts  --      1.6245                 5.4257                 3.2227
 IR Inten    --     33.1419                26.6015                 8.6140

                     49                     50                     51
                      A                      A                      A
 Frequencies --   1369.7819              1376.4308              1432.3784
 Red. masses --      8.0135                 3.2002                 1.6827
 Frc consts  --      8.8589                 3.5722                 2.0341
 IR Inten    --     15.9955                11.1635                73.1680

                     52                     53                     54
                      A                      A                      A
 Frequencies --   1490.5696              1501.4681              1520.2505
 Red. masses --      2.6430                 2.9658                 3.6627
 Frc consts  --      3.4598                 3.9393                 4.9875
 IR Inten    --     33.9713                 4.5403                97.5195

                     55                     56                     57
                      A                      A                      A
 Frequencies --   1536.7165              1597.0540              1644.9647
 Red. masses --      2.5467                 8.2659                 6.6645
 Frc consts  --      3.5434                12.4217                10.6251
 IR Inten    --     98.7883               202.0124                 8.0804

                     58                     59                     60
                      A                      A                      A
 Frequencies --   1655.0078              1682.4925              1708.9927
 Red. masses --      5.2430                 6.8949                 6.3218
 Frc consts  --      8.4612                11.4996                10.8786
 IR Inten    --    111.5605                 5.6039               104.7157

                     61                     62                     63
                      A                      A                      A
 Frequencies --   3199.4683              3211.3996              3211.5629
 Red. masses --      1.0886                 1.0885                 1.0862
 Frc consts  --      6.5657                 6.6139                 6.6007
 IR Inten    --      3.3709                 6.5626                 1.7073

                     64                     65                     66
                      A                      A                      A
 Frequencies --   3222.9458              3230.3392              3233.7900
 Red. masses --      1.0906                 1.0941                 1.0959
 Frc consts  --      6.6745                 6.7266                 6.7523
 IR Inten    --      5.2697                10.4303                11.6348

                     67                     68                     69
                      A                      A                      A
 Frequencies --   3238.0329              3239.5970              3484.7281
 Red. masses --      1.0994                 1.0996                 1.0674
 Frc consts  --      6.7915                 6.7991                 7.6367
 IR Inten    --     17.8195                12.5975               661.4840

 - Thermochemistry -
 -------------------
 Temperature   298.150 Kelvin.  Pressure   1.00000 Atm.
 Atom     1 has atomic number  6 and mass  12.00000

 Molecular mass:   227.04049 amu.
 Principal axes and moments of inertia in atomic units:
                           1         2         3
     Eigenvalues --  1325.792816369.737537695.53033
           X           -0.69566   0.71837   0.00000
           Y            0.71837   0.69566  -0.00000
           Z            0.00000  -0.00000   1.00000
 This molecule is an asymmetric top.
 Rotational symmetry number  1.
 Warning -- assumption of classical behavior for rotation
           may cause significant error
 Rotational temperatures (Kelvin)      0.06533     0.01360     0.01126
 Rotational constants (GHZ):           1.36125     0.28333     0.23452
 Zero-point vibrational energy     499369.9 (Joules/Mol)
                                  119.35228 (Kcal/Mol)
 Warning -- explicit consideration of  18 degrees of freedom as
           vibrations may cause significant error
 Vibrational temperatures:     75.72    84.64   165.11   218.81   287.06
          (Kelvin)            353.83   379.59   423.24   471.12   582.00
                              632.17   675.60   721.25   741.73   775.07
                              786.39   826.69   853.36   925.86   974.87
                             1016.00  1044.77  1045.44  1088.04  1112.41
                             1122.15  1136.22  1212.53  1273.90  1278.37
                             1284.64  1399.70  1405.44  1414.36  1455.40
                             1461.43  1513.77  1541.84  1578.50  1651.70
                             1657.31  1693.37  1705.12  1784.73  1845.50
                             1848.92  1901.62  1937.22  1970.81  1980.38
                             2060.87  2144.60  2160.28  2187.30  2210.99
                             2297.80  2366.74  2381.19  2420.73  2458.86
                             4603.32  4620.49  4620.72  4637.10  4647.74
                             4652.70  4658.81  4661.06  5013.75

 Zero-point correction=                           0.190200 (Hartree/Particle)
 Thermal correction to Energy=                    0.201967
 Thermal correction to Enthalpy=                  0.202911
 Thermal correction to Gibbs Free Energy=         0.151539
 Sum of electronic and zero-point Energies=          -1028.639400
 Sum of electronic and thermal Energies=             -1028.627633
 Sum of electronic and thermal Enthalpies=           -1028.626689
 Sum of electronic and thermal Free Energies=        -1028.678061

                     E (Thermal)             CV                S
                      KCal/Mol        Cal/Mol-Kelvin    Cal/Mol-Kelvin
 Total                  126.736             47.912            108.121
 Electronic               0.000              0.000              0.000
 Translational            0.889              2.981             42.162
 Rotational               0.889              2.981             32.541
 Vibrational            124.959             41.951             33.418
 Vibration     1          0.596              1.977              4.716
 Vibration     2          0.596              1.974              4.496
 Vibration     3          0.608              1.937              3.187
 Vibration     4          0.619              1.900              2.646
 Vibration     5          0.638              1.841              2.138
 Vibration     6          0.660              1.770              1.760
 Vibration     7          0.670              1.739              1.636
 Vibration     8          0.689              1.685              1.450
 Vibration     9          0.711              1.621              1.273
 Vibration    10          0.770              1.460              0.946
 Vibration    11          0.799              1.384              0.829
 Vibration    12          0.827              1.318              0.739
 Vibration    13          0.857              1.247              0.655
 Vibration    14          0.871              1.216              0.620
 Vibration    15          0.894              1.164              0.568
 Vibration    16          0.902              1.147              0.551
 Vibration    17          0.931              1.086              0.496
 Vibration    18          0.951              1.046              0.462

 Optimization completed.
    -- Stationary point found.
 Normal termination of Gaussian 16 at Tue Oct 27 23:08:20 2020.
