 Gaussian 16, Revision C.01,
 Gaussian 16:  ES64L-G16RevC.01  3-Jul-2019

 ----------------------------------------------------------------------
 #p opt=addgic freq wb97xd/cc-pvdz nosymm int=ultrafine scrf=(solvent=C
 arbonTetraChloride)
 ----------------------------------------------------------------------

 ------------------------------------------------
 NM 2D-scan of HBT TD-WB97XD pVDZ in CTC Relaxed.
 ------------------------------------------------
 Symbolic Z-matrix:
 Charge =  0 Multiplicity = 1

 SCF Done:  E(RwB97XD) =  -1028.72495637     A.U. after   15 cycles
 SCF Done:  E(RwB97XD) =  -1028.81106152     A.U. after   13 cycles
 SCF Done:  E(RwB97XD) =  -1028.79369063     A.U. after   14 cycles
 SCF Done:  E(RwB97XD) =  -1028.82735871     A.U. after   12 cycles
 SCF Done:  E(RwB97XD) =  -1028.82779319     A.U. after   12 cycles
 SCF Done:  E(RwB97XD) =  -1028.82786631     A.U. after   10 cycles
 SCF Done:  E(RwB97XD) =  -1028.82787059     A.U. after    9 cycles
 Optimization completed.
    -- Stationary point found.
 Normal termination of Gaussian 16 at Wed Oct 28 01:46:25 2020.

 --------------------------------------------------------------------
 #P Geom=AllCheck Guess=TCheck SCRF=Check GenChk RwB97XD/CC-pVDZ Freq
 --------------------------------------------------------------------

 Structure from the checkpoint file:  "config_1_20.chk"
 ------------------------------------------------
 NM 2D-scan of HBT TD-WB97XD pVDZ in CTC Relaxed.
 ------------------------------------------------
 Charge =  0 Multiplicity = 1

                          Input orientation:
 ---------------------------------------------------------------------
 Center     Atomic      Atomic             Coordinates (Angstroms)
 Number     Number       Type             X           Y           Z
 ---------------------------------------------------------------------
      1          6           0        1.505843   -3.293454   -0.000038
      2          6           0        0.983488   -2.001045   -0.000026
      3          6           0        1.789861   -0.846200   -0.000013
      4          6           0        3.183992   -1.008717   -0.000014
      5          6           0        3.712513   -2.296019   -0.000025
      6          6           0        2.885561   -3.431594   -0.000037
      7          1           0        0.847545   -4.162599   -0.000048
      8          1           0        3.834416   -0.133250   -0.000003
      9          1           0        4.795860   -2.426134   -0.000024
     10          1           0        3.330259   -4.427720   -0.000045
     11          7           0        1.074900    0.354037    0.000006
     12         16           0       -0.691517   -1.552555   -0.000024
     13          6           0       -1.266911    1.145643    0.000038
     14          6           0       -2.614656    0.745922    0.000055
     15          6           0       -0.951828    2.520533    0.000027
     16          6           0       -3.643577    1.668528    0.000045
     17          1           0       -2.862633   -0.316908    0.000072
     18          6           0       -2.002487    3.454556    0.000010
     19          6           0       -3.325106    3.031624    0.000016
     20          1           0       -4.681542    1.336051    0.000055
     21          1           0       -1.749616    4.515455   -0.000005
     22          1           0       -4.123096    3.776507    0.000003
     23          6           0       -0.212630    0.134090    0.000014
     24          8           0        0.313444    2.956677    0.000037
     25          1           0        0.907513    2.168412    0.000054
 ---------------------------------------------------------------------

 SCF Done:  E(RwB97XD) =  -1028.82787059     A.U. after    1 cycles

 Alpha  occ. eigenvalues --  -89.08168 -19.28872 -14.47144 -10.39225 -10.37611
 Alpha  occ. eigenvalues --  -10.34993 -10.34456 -10.32320 -10.32095 -10.31901
 Alpha  occ. eigenvalues --  -10.31662 -10.31594 -10.31487 -10.31377 -10.30460
 Alpha  occ. eigenvalues --  -10.30410  -8.10307  -6.05148  -6.04791  -6.04360
 Alpha  occ. eigenvalues --   -1.16886  -1.08592  -0.97341  -0.96338  -0.91738
 Alpha  occ. eigenvalues --   -0.88556  -0.85504  -0.84791  -0.82749  -0.75443
 Alpha  occ. eigenvalues --   -0.71683  -0.70723  -0.69356  -0.68100  -0.63316
 Alpha  occ. eigenvalues --   -0.60417  -0.58806  -0.58564  -0.56668  -0.54594
 Alpha  occ. eigenvalues --   -0.53910  -0.53225  -0.53026  -0.50675  -0.50566
 Alpha  occ. eigenvalues --   -0.49050  -0.47693  -0.45899  -0.45504  -0.45063
 Alpha  occ. eigenvalues --   -0.44092  -0.43154  -0.42250  -0.39646  -0.37540
 Alpha  occ. eigenvalues --   -0.36209  -0.32024  -0.31716  -0.29347
 Alpha virt. eigenvalues --   -0.00438   0.04945   0.06710   0.07009   0.08277
 Alpha virt. eigenvalues --    0.11494   0.14477   0.15298   0.17247   0.18145
 Alpha virt. eigenvalues --    0.18836   0.20583   0.21483   0.22496   0.22545

 Mulliken charges:
               1
     1  C    0.015252
     2  C   -0.201393
     3  C    0.196856
     4  C   -0.019883
     5  C    0.002486
     6  C    0.001982
     7  H    0.017192
     8  H    0.017551
     9  H    0.019182
    10  H    0.020749
    11  N   -0.348401
    12  S    0.138981
    13  C   -0.030665
    14  C   -0.035661
    15  C    0.055249
    16  C   -0.002097
    17  H    0.025956
    18  C    0.008552
    19  C    0.021528
    20  H    0.010449
    21  H    0.018699
    22  H    0.019673
    23  C    0.082580
    24  O   -0.195916
    25  H    0.161101
 Sum of Mulliken charges =  -0.00000

 Dipole moment (field-independent basis, Debye):
    X=             -0.3885    Y=             -2.3328    Z=              0.0000  Tot=              2.3649
 Quadrupole moment (field-independent basis, Debye-Ang):
   XX=            -82.6971   YY=            -90.0401   ZZ=           -104.0756
   XY=             -7.1114   XZ=             -0.0000   YZ=              0.0000

  Exact polarizability:     272.329     -66.901     253.483      -0.001       0.001      62.874
 Approx polarizability:     260.880     -22.630     241.720      -0.000       0.001      82.124

                      1                      2                      3
                      A                      A                      A
 Frequencies --     23.2797                62.8704               122.8740
 Red. masses --      5.6698                 5.5216                 5.6909
 Frc consts  --      0.0018                 0.0129                 0.0506
 IR Inten    --      0.1060                 0.9866                 1.3444

                      4                      5                      6
                      A                      A                      A
 Frequencies --    150.2219               197.4702               247.0545
 Red. masses --      5.0027                 6.0600                 5.5261
 Frc consts  --      0.0665                 0.1392                 0.1987
 IR Inten    --      0.0084                 0.8648                 0.0028

                      7                      8                      9
                      A                      A                      A
 Frequencies --    269.7934               300.6831               330.7008
 Red. masses --      7.9298                 6.2950                 5.0451
 Frc consts  --      0.3401                 0.3353                 0.3251
 IR Inten    --      2.7505                 5.9640                 0.0322

                     10                     11                     12
                      A                      A                      A
 Frequencies --    417.0913               438.6231               469.1277
 Red. masses --      9.1754                 3.1041                 3.6576
 Frc consts  --      0.9405                 0.3519                 0.4743
 IR Inten    --      0.3303                 1.7194                 8.1138

                     13                     14                     15
                      A                      A                      A
 Frequencies --    513.4676               518.5138               535.9776
 Red. masses --      5.2050                 8.5128                 3.4243
 Frc consts  --      0.8085                 1.3485                 0.5796
 IR Inten    --      6.7777                 0.6379                 3.9221

                     16                     17                     18
                      A                      A                      A
 Frequencies --    550.8392               576.9927               590.5607
 Red. masses --      7.9432                 3.7698                 7.7269
 Frc consts  --      1.4200                 0.7394                 1.5878
 IR Inten    --      1.5226                 0.0208                 6.0031

                     19                     20                     21
                      A                      A                      A
 Frequencies --    645.2457               675.2159               732.2140
 Red. masses --      5.5357                 6.7734                 7.0647
 Frc consts  --      1.3579                 1.8195                 2.2316
 IR Inten    --      0.5678                 2.4386                28.9031

                     22                     23                     24
                      A                      A                      A
 Frequencies --    740.5775               748.7314               757.0364
 Red. masses --      9.0220                 1.5720                 1.8651
 Frc consts  --      2.9154                 0.5192                 0.6298
 IR Inten    --      7.5015                55.1931                24.7867

                     25                     26                     27
                      A                      A                      A
 Frequencies --    772.0169               784.3625               789.6530
 Red. masses --      1.5213                 1.6451                 1.8564
 Frc consts  --      0.5342                 0.5963                 0.6820
 IR Inten    --     74.5607                 2.4792                59.2436

                     28                     29                     30
                      A                      A                      A
 Frequencies --    847.2836               882.0045               882.9788
 Red. masses --      5.9599                 1.5524                 6.5010
 Frc consts  --      2.5208                 0.7115                 2.9863
 IR Inten    --     18.5324                 4.2310                 5.0714

                     31                     32                     33
                      A                      A                      A
 Frequencies --    887.9160               968.2416               975.9532
 Red. masses --      1.4220                 1.3658                 1.3685
 Frc consts  --      0.6605                 0.7544                 0.7680
 IR Inten    --      0.7528                 1.0210                 1.5826

                     34                     35                     36
                      A                      A                      A
 Frequencies --    996.7733              1011.4924              1015.2289
 Red. masses --      7.7848                 1.3053                 1.3059
 Frc consts  --      4.5571                 0.7868                 0.7930
 IR Inten    --     51.3481                 0.4343                 0.0209

                     37                     38                     39
                      A                      A                      A
 Frequencies --   1051.1913              1072.5855              1108.7011
 Red. masses --      1.9865                 1.9274                 3.3191
 Frc consts  --      1.2933                 1.3064                 2.4038
 IR Inten    --      8.5452                10.2312                 5.7529

                     40                     41                     42
                      A                      A                      A
 Frequencies --   1155.3280              1158.6784              1178.8093
 Red. masses --      1.4237                 1.3798                 1.1739
 Frc consts  --      1.1197                 1.0914                 0.9611
 IR Inten    --      3.5553                 3.6840                37.3383

                     43                     44                     45
                      A                      A                      A
 Frequencies --   1184.7542              1247.7528              1272.5731
 Red. masses --      1.2960                 2.0868                 2.6531
 Frc consts  --      1.0718                 1.9142                 2.5314
 IR Inten    --      1.3724               137.8973                75.1957

                     46                     47                     48
                      A                      A                      A
 Frequencies --   1285.2154              1314.2284              1339.6003
 Red. masses --      1.6372                 2.3421                 4.1267
 Frc consts  --      1.5934                 2.3834                 4.3632
 IR Inten    --     27.9518                19.8713                31.8931

                     49                     50                     51
                      A                      A                      A
 Frequencies --   1369.2170              1379.3187              1456.5817
 Red. masses --      7.5485                 4.5248                 1.7655
 Frc consts  --      8.3379                 5.0719                 2.2069
 IR Inten    --     14.0271                11.6559                44.3149

                     52                     53                     54
                      A                      A                      A
 Frequencies --   1485.0633              1503.3787              1533.7631
 Red. masses --      2.5914                 2.8580                 2.5441
 Frc consts  --      3.3672                 3.8058                 3.5261
 IR Inten    --     49.9600                14.8812                44.2426

                     55                     56                     57
                      A                      A                      A
 Frequencies --   1544.4111              1593.7062              1644.3092
 Red. masses --      2.6356                 7.6493                 6.7666
 Frc consts  --      3.7038                11.4469                10.7792
 IR Inten    --    175.2461               174.1622                 4.2145

                     58                     59                     60
                      A                      A                      A
 Frequencies --   1668.9996              1679.8410              1706.4225
 Red. masses --      5.1619                 6.7828                 5.6136
 Frc consts  --      8.4717                11.2771                 9.6308
 IR Inten    --    120.9421                12.2742               108.2192

                     61                     62                     63
                      A                      A                      A
 Frequencies --   3208.5190              3210.0638              3216.1491
 Red. masses --      1.0860                 1.0858                 1.0902
 Frc consts  --      6.5871                 6.5924                 6.6437
 IR Inten    --      1.3474                 0.1577                10.9692

                     64                     65                     66
                      A                      A                      A
 Frequencies --   3219.0373              3228.7488              3230.4446
 Red. masses --      1.0903                 1.0959                 1.0946
 Frc consts  --      6.6563                 6.7313                 6.7301
 IR Inten    --      3.7534                10.8407                11.8918

                     67                     68                     69
                      A                      A                      A
 Frequencies --   3235.5788              3240.1510              3418.3184
 Red. masses --      1.0999                 1.0995                 1.0677
 Frc consts  --      6.7841                 6.8010                 7.3505
 IR Inten    --     18.1064                12.8002               618.5765

 - Thermochemistry -
 -------------------
 Temperature   298.150 Kelvin.  Pressure   1.00000 Atm.
 Atom     1 has atomic number  6 and mass  12.00000

 Molecular mass:   227.04049 amu.
 Principal axes and moments of inertia in atomic units:
                           1         2         3
     Eigenvalues --  1288.007126368.767507656.77462
           X           -0.69675   0.71732   0.00000
           Y            0.71732   0.69675  -0.00001
           Z            0.00001   0.00000   1.00000
 This molecule is an asymmetric top.
 Rotational symmetry number  1.
 Warning -- assumption of classical behavior for rotation
           may cause significant error
 Rotational temperatures (Kelvin)      0.06725     0.01360     0.01131
 Rotational constants (GHZ):           1.40119     0.28337     0.23571
 Zero-point vibrational energy     499862.6 (Joules/Mol)
                                  119.47004 (Kcal/Mol)
 Warning -- explicit consideration of  18 degrees of freedom as
           vibrations may cause significant error
 Vibrational temperatures:     33.49    90.46   176.79   216.14   284.12
          (Kelvin)            355.46   388.17   432.62   475.80   600.10
                              631.08   674.97   738.77   746.03   771.15
                              792.53   830.16   849.69   928.36   971.49
                             1053.49  1065.53  1077.26  1089.21  1110.76
                             1128.52  1136.13  1219.05  1269.01  1270.41
                             1277.51  1393.08  1404.18  1434.13  1455.31
                             1460.69  1512.43  1543.21  1595.17  1662.26
                             1667.08  1696.04  1704.60  1795.24  1830.95
                             1849.14  1890.88  1927.39  1970.00  1984.53
                             2095.70  2136.67  2163.03  2206.74  2222.06
                             2292.99  2365.79  2401.32  2416.92  2455.16
                             4616.34  4618.57  4627.32  4631.48  4645.45
                             4647.89  4655.28  4661.85  4918.20

 Zero-point correction=                           0.190388 (Hartree/Particle)
 Thermal correction to Energy=                    0.202130
 Thermal correction to Enthalpy=                  0.203075
 Thermal correction to Gibbs Free Energy=         0.151177
 Sum of electronic and zero-point Energies=          -1028.637483
 Sum of electronic and thermal Energies=             -1028.625740
 Sum of electronic and thermal Enthalpies=           -1028.624796
 Sum of electronic and thermal Free Energies=        -1028.676694

                     E (Thermal)             CV                S
                      KCal/Mol        Cal/Mol-Kelvin    Cal/Mol-Kelvin
 Total                  126.839             47.680            109.229
 Electronic               0.000              0.000              0.000
 Translational            0.889              2.981             42.162
 Rotational               0.889              2.981             32.507
 Vibrational            125.061             41.719             34.559
 Vibration     1          0.593              1.985              6.333
 Vibration     2          0.597              1.972              4.365
 Vibration     3          0.610              1.930              3.055
 Vibration     4          0.618              1.902              2.669
 Vibration     5          0.637              1.843              2.157
 Vibration     6          0.661              1.768              1.752
 Vibration     7          0.674              1.729              1.598
 Vibration     8          0.693              1.672              1.413
 Vibration     9          0.713              1.614              1.257
 Vibration    10          0.780              1.433              0.902
 Vibration    11          0.799              1.386              0.831
 Vibration    12          0.826              1.319              0.740
 Vibration    13          0.869              1.220              0.625
 Vibration    14          0.874              1.209              0.613
 Vibration    15          0.891              1.170              0.574
 Vibration    16          0.906              1.138              0.542
 Vibration    17          0.933              1.081              0.491
 Vibration    18          0.948              1.052              0.466

 Optimization completed.
    -- Stationary point found.
 Normal termination of Gaussian 16 at Wed Oct 28 01:52:27 2020.
