 Gaussian 16, Revision C.01,
 Gaussian 16:  ES64L-G16RevC.01  3-Jul-2019

 ----------------------------------------------------------------------
 #p opt=addgic freq wb97xd/cc-pvdz nosymm int=ultrafine scrf=(solvent=C
 arbonTetraChloride)
 ----------------------------------------------------------------------

 ------------------------------------------------
 NM 2D-scan of HBT TD-WB97XD pVDZ in CTC Relaxed.
 ------------------------------------------------
 Symbolic Z-matrix:
 Charge =  0 Multiplicity = 1

 SCF Done:  E(RwB97XD) =  -1028.80588568     A.U. after   15 cycles
 SCF Done:  E(RwB97XD) =  -1028.80890318     A.U. after   14 cycles
 SCF Done:  E(RwB97XD) =  -1028.80677252     A.U. after   14 cycles
 SCF Done:  E(RwB97XD) =  -1028.81227557     A.U. after   13 cycles
 SCF Done:  E(RwB97XD) =  -1028.81288980     A.U. after   12 cycles
 SCF Done:  E(RwB97XD) =  -1028.81302088     A.U. after   12 cycles
 SCF Done:  E(RwB97XD) =  -1028.81302437     A.U. after   11 cycles
 SCF Done:  E(RwB97XD) =  -1028.81304274     A.U. after   11 cycles
 SCF Done:  E(RwB97XD) =  -1028.81304735     A.U. after   10 cycles
 Optimization completed.
    -- Stationary point found.
 Normal termination of Gaussian 16 at Tue Oct 27 20:57:22 2020.

 --------------------------------------------------------------------
 #P Geom=AllCheck Guess=TCheck SCRF=Check GenChk RwB97XD/CC-pVDZ Freq
 --------------------------------------------------------------------

 Structure from the checkpoint file:  "config_8_2.chk"
 ------------------------------------------------
 NM 2D-scan of HBT TD-WB97XD pVDZ in CTC Relaxed.
 ------------------------------------------------
 Charge =  0 Multiplicity = 1

                          Input orientation:
 ---------------------------------------------------------------------
 Center     Atomic      Atomic             Coordinates (Angstroms)
 Number     Number       Type             X           Y           Z
 ---------------------------------------------------------------------
      1          6           0        1.743426   -3.255405    0.000002
      2          6           0        1.008093   -2.068645   -0.000048
      3          6           0        1.665085   -0.835182   -0.000060
      4          6           0        3.058455   -0.742167   -0.000037
      5          6           0        3.785528   -1.923223    0.000006
      6          6           0        3.133201   -3.165391    0.000027
      7          1           0        1.248743   -4.226813   -0.000001
      8          1           0        3.541798    0.234908   -0.000046
      9          1           0        4.875607   -1.886293    0.000025
     10          1           0        3.723858   -4.082397    0.000052
     11          7           0        0.790763    0.220936   -0.000074
     12         16           0       -0.744532   -1.809771   -0.000162
     13          6           0       -1.424792    1.040028    0.000002
     14          6           0       -2.826666    0.906622   -0.000005
     15          6           0       -0.823501    2.355693    0.000131
     16          6           0       -3.654241    2.015749    0.000063
     17          1           0       -3.264440   -0.095380   -0.000069
     18          6           0       -1.710452    3.469180    0.000098
     19          6           0       -3.079238    3.301512    0.000094
     20          1           0       -4.737612    1.895019    0.000054
     21          1           0       -1.258231    4.461943    0.000095
     22          1           0       -3.727259    4.180989    0.000111
     23          6           0       -0.492696   -0.070829   -0.000066
     24          8           0        0.457059    2.536034   -0.000036
     25          1           0        0.914174    1.415851   -0.000078
 ---------------------------------------------------------------------

 SCF Done:  E(RwB97XD) =  -1028.81304735     A.U. after    1 cycles

 Alpha  occ. eigenvalues --  -89.09839 -19.23752 -14.48701 -10.40684 -10.36550
 Alpha  occ. eigenvalues --  -10.36001 -10.35653 -10.33038 -10.32359 -10.32150
 Alpha  occ. eigenvalues --  -10.32090 -10.31579 -10.31478 -10.30876 -10.29466
 Alpha  occ. eigenvalues --  -10.29061  -8.11803  -6.06678  -6.06303  -6.05834
 Alpha  occ. eigenvalues --   -1.13954  -1.10025  -0.97946  -0.95340  -0.92425
 Alpha  occ. eigenvalues --   -0.88988  -0.85862  -0.84034  -0.82559  -0.75791
 Alpha  occ. eigenvalues --   -0.71871  -0.70732  -0.68920  -0.68535  -0.63708
 Alpha  occ. eigenvalues --   -0.60806  -0.59436  -0.57396  -0.55871  -0.55209
 Alpha  occ. eigenvalues --   -0.54599  -0.53574  -0.52317  -0.51076  -0.50007
 Alpha  occ. eigenvalues --   -0.49474  -0.47531  -0.46422  -0.45298  -0.45079
 Alpha  occ. eigenvalues --   -0.44144  -0.43077  -0.41901  -0.40470  -0.36443
 Alpha  occ. eigenvalues --   -0.34077  -0.33034  -0.31525  -0.27608
 Alpha virt. eigenvalues --   -0.00921   0.04171   0.06643   0.07025   0.08283
 Alpha virt. eigenvalues --    0.10947   0.13090   0.14859   0.16051   0.17693
 Alpha virt. eigenvalues --    0.19191   0.20601   0.21608   0.22064   0.22809

 Mulliken charges:
               1
     1  C    0.009480
     2  C   -0.241642
     3  C    0.280247
     4  C   -0.009719
     5  C    0.010462
     6  C    0.001419
     7  H    0.023615
     8  H    0.028495
     9  H    0.024634
    10  H    0.024744
    11  N   -0.249362
    12  S    0.172409
    13  C   -0.122444
    14  C   -0.008203
    15  C    0.110847
    16  C   -0.024013
    17  H    0.003420
    18  C   -0.008560
    19  C    0.024209
    20  H    0.005375
    21  H    0.006862
    22  H    0.014759
    23  C    0.075066
    24  O   -0.343761
    25  H    0.191663
 Sum of Mulliken charges =  -0.00000

 Dipole moment (field-independent basis, Debye):
    X=              1.0267    Y=             -4.0666    Z=             -0.0000  Tot=              4.1942
 Quadrupole moment (field-independent basis, Debye-Ang):
   XX=            -82.7505   YY=            -92.0642   ZZ=           -104.0549
   XY=             -7.0664   XZ=              0.0002   YZ=              0.0004

  Exact polarizability:     280.914     -74.998     269.074       0.000       0.004      63.003
 Approx polarizability:     265.752     -27.508     250.027       0.001       0.003      82.209

 ******    1 imaginary frequencies (negative Signs) ******

                      1                      2                      3
                      A                      A                      A
 Frequencies --   -811.1782                38.4380                63.4186
 Red. masses --      1.1791                 5.0859                 6.1942
 Frc consts  --      0.4571                 0.0044                 0.0147
 IR Inten    --   1288.8522                 0.0305                 1.8485

                      4                      5                      6
                      A                      A                      A
 Frequencies --    134.0646               150.0423               198.5327
 Red. masses --      5.6583                 5.0760                 5.9249
 Frc consts  --      0.0599                 0.0673                 0.1376
 IR Inten    --      0.6694                 0.5867                 0.1389

                      7                      8                      9
                      A                      A                      A
 Frequencies --    242.6762               275.4178               319.0743
 Red. masses --      6.0027                 7.2128                 5.2563
 Frc consts  --      0.2083                 0.3224                 0.3153
 IR Inten    --      0.3931                 3.1728                 0.6596

                     10                     11                     12
                      A                      A                      A
 Frequencies --    383.1804               415.8083               433.6244
 Red. masses --      6.1309                11.1076                 3.1377
 Frc consts  --      0.5304                 1.1315                 0.3476
 IR Inten    --      1.5168                 4.2156                 1.7313

                     13                     14                     15
                      A                      A                      A
 Frequencies --    456.5398               515.3373               539.2088
 Red. masses --      3.6383                 8.8498                 3.2750
 Frc consts  --      0.4468                 1.3847                 0.5610
 IR Inten    --      9.4017                 4.0338                 4.1943

                     16                     17                     18
                      A                      A                      A
 Frequencies --    554.9857               569.4676               583.2388
 Red. masses --      8.6194                 3.6225                 7.7612
 Frc consts  --      1.5642                 0.6922                 1.5555
 IR Inten    --      8.0001                 0.1373                 7.6568

                     19                     20                     21
                      A                      A                      A
 Frequencies --    624.2661               648.3864               692.2623
 Red. masses --      7.3891                 6.5507                 6.4708
 Frc consts  --      1.6966                 1.6226                 1.8270
 IR Inten    --     34.5088                 0.0101                 8.5782

                     22                     23                     24
                      A                      A                      A
 Frequencies --    713.3175               752.4527               766.8556
 Red. masses --      6.5607                 2.2888                 1.6446
 Frc consts  --      1.9668                 0.7635                 0.5698
 IR Inten    --      7.5058                17.3528                34.4408

                     25                     26                     27
                      A                      A                      A
 Frequencies --    775.5074               779.9062               780.6254
 Red. masses --      2.1878                 8.1007                 1.7143
 Frc consts  --      0.7752                 2.9031                 0.6155
 IR Inten    --     35.7451                22.0293                36.8067

                     28                     29                     30
                      A                      A                      A
 Frequencies --    849.4577               879.9594               883.2106
 Red. masses --      6.2084                 1.6702                 1.4048
 Frc consts  --      2.6394                 0.7620                 0.6457
 IR Inten    --     17.6724                 7.8584                 0.1493

                     31                     32                     33
                      A                      A                      A
 Frequencies --    933.6315               967.9710               973.6211
 Red. masses --      7.0298                 1.3434                 1.3601
 Frc consts  --      3.6103                 0.7416                 0.7596
 IR Inten    --     15.4999                 0.7254                 1.0037

                     34                     35                     36
                      A                      A                      A
 Frequencies --   1011.9609              1013.1505              1015.7908
 Red. masses --      1.3013                 7.2628                 1.3057
 Frc consts  --      0.7851                 4.3924                 0.7938
 IR Inten    --      0.2443                11.4110                 0.0048

                     37                     38                     39
                      A                      A                      A
 Frequencies --   1053.4250              1059.2933              1096.6934
 Red. masses --      2.0615                 1.9729                 3.9873
 Frc consts  --      1.3478                 1.3043                 2.8255
 IR Inten    --      7.6149                 9.1716                 4.6545

                     40                     41                     42
                      A                      A                      A
 Frequencies --   1150.8668              1155.3763              1171.2767
 Red. masses --      1.4486                 1.2894                 1.0616
 Frc consts  --      1.1304                 1.0141                 0.8581
 IR Inten    --     12.7057                 0.9868                66.6512

                     43                     44                     45
                      A                      A                      A
 Frequencies --   1175.5906              1184.5851              1258.4973
 Red. masses --      1.1030                 1.1671                 1.8981
 Frc consts  --      0.8982                 0.9649                 1.7712
 IR Inten    --     97.7086                 0.0710                84.0565

                     46                     47                     48
                      A                      A                      A
 Frequencies --   1289.0912              1322.4122              1356.2501
 Red. masses --      1.5265                 2.8882                 5.8584
 Frc consts  --      1.4946                 2.9758                 6.3491
 IR Inten    --     12.0484               366.2285                20.0438

                     49                     50                     51
                      A                      A                      A
 Frequencies --   1380.5561              1386.3451              1405.2010
 Red. masses --      7.3957                 3.1980                 2.4065
 Frc consts  --      8.3050                 3.6213                 2.7997
 IR Inten    --     17.4108                14.4468                 9.9407

                     52                     53                     54
                      A                      A                      A
 Frequencies --   1495.8080              1504.6818              1528.7732
 Red. masses --      2.7298                 2.8911                 3.7164
 Frc consts  --      3.5985                 3.8565                 5.1176
 IR Inten    --     19.0588                32.7698                82.3671

                     55                     56                     57
                      A                      A                      A
 Frequencies --   1565.5976              1586.9385              1603.8366
 Red. masses --      7.3247                 4.8390                 5.7674
 Frc consts  --     10.5779                 7.1801                 8.7407
 IR Inten    --   1509.6019               241.2426                19.1670

                     58                     59                     60
                      A                      A                      A
 Frequencies --   1662.1579              1683.7348              1711.8059
 Red. masses --      7.0646                 6.7694                 6.5355
 Frc consts  --     11.4996                11.3070                11.2833
 IR Inten    --      1.9454                 3.4556               165.0821

                     61                     62                     63
                      A                      A                      A
 Frequencies --   1943.3246              3185.7120              3198.5535
 Red. masses --      1.1077                 1.0895                 1.0884
 Frc consts  --      2.4648                 6.5146                 6.5604
 IR Inten    --    146.9997                 4.7196                 9.8335

                     64                     65                     66
                      A                      A                      A
 Frequencies --   3215.6912              3223.7291              3225.8078
 Red. masses --      1.0863                 1.0937                 1.0907
 Frc consts  --      6.6181                 6.6968                 6.6869
 IR Inten    --      1.3949                15.1501                 2.7866

                     67                     68                     69
                      A                      A                      A
 Frequencies --   3231.7956              3235.3283              3241.7476
 Red. masses --      1.0981                 1.0961                 1.1000
 Frc consts  --      6.7572                 6.7600                 6.8108
 IR Inten    --     20.7417                 7.5967                11.9279

 - Thermochemistry -
 -------------------
 Temperature   298.150 Kelvin.  Pressure   1.00000 Atm.
 Atom     1 has atomic number  6 and mass  12.00000

 Molecular mass:   227.04049 amu.
 Principal axes and moments of inertia in atomic units:
                           1         2         3
     Eigenvalues --  1316.539356246.230297562.76963
           X           -0.70570   0.70852  -0.00001
           Y            0.70852   0.70570  -0.00003
           Z            0.00001   0.00003   1.00000
 This molecule is an asymmetric top.
 Rotational symmetry number  1.
 Warning -- assumption of classical behavior for rotation
           may cause significant error
 Rotational temperatures (Kelvin)      0.06579     0.01387     0.01145
 Rotational constants (GHZ):           1.37082     0.28893     0.23863
    1 imaginary frequencies ignored.
 Zero-point vibrational energy     487034.9 (Joules/Mol)
                                  116.40413 (Kcal/Mol)
 Warning -- explicit consideration of  17 degrees of freedom as
           vibrations may cause significant error
 Vibrational temperatures:     55.30    91.25   192.89   215.88   285.64
          (Kelvin)            349.16   396.26   459.08   551.31   598.26
                              623.89   656.86   741.46   775.80   798.50
                              819.34   839.15   898.18   932.88   996.01
                             1026.30  1082.61  1103.33  1115.78  1122.11
                             1123.15  1222.18  1266.07  1270.74  1343.29
                             1392.69  1400.82  1455.99  1457.70  1461.50
                             1515.64  1524.09  1577.90  1655.84  1662.33
                             1685.21  1691.41  1704.35  1810.70  1854.71
                             1902.66  1951.34  1986.31  1994.64  2021.77
                             2152.13  2164.90  2199.56  2252.55  2283.25
                             2307.56  2391.47  2422.52  2462.91  2796.01
                             4583.53  4602.01  4626.66  4638.23  4641.22
                             4649.83  4654.92  4664.15

 Zero-point correction=                           0.185502 (Hartree/Particle)
 Thermal correction to Energy=                    0.196961
 Thermal correction to Enthalpy=                  0.197905
 Thermal correction to Gibbs Free Energy=         0.146932
 Sum of electronic and zero-point Energies=          -1028.627546
 Sum of electronic and thermal Energies=             -1028.616087
 Sum of electronic and thermal Enthalpies=           -1028.615142
 Sum of electronic and thermal Free Energies=        -1028.666116

                     E (Thermal)             CV                S
                      KCal/Mol        Cal/Mol-Kelvin    Cal/Mol-Kelvin
 Total                  123.595             46.599            107.282
 Electronic               0.000              0.000              0.000
 Translational            0.889              2.981             42.162
 Rotational               0.889              2.981             32.497
 Vibrational            121.817             40.637             32.623
 Vibration     1          0.594              1.982              5.338
 Vibration     2          0.597              1.972              4.348
 Vibration     3          0.613              1.919              2.887
 Vibration     4          0.618              1.903              2.672
 Vibration     5          0.637              1.842              2.147
 Vibration     6          0.659              1.775              1.783
 Vibration     7          0.677              1.719              1.562
 Vibration     8          0.705              1.637              1.315
 Vibration     9          0.752              1.506              1.027
 Vibration    10          0.779              1.436              0.906
 Vibration    11          0.794              1.397              0.847
 Vibration    12          0.815              1.346              0.776
 Vibration    13          0.870              1.216              0.621
 Vibration    14          0.894              1.163              0.567
 Vibration    15          0.910              1.129              0.534
 Vibration    16          0.926              1.097              0.505
 Vibration    17          0.940              1.068              0.479

 Optimization completed.
    -- Stationary point found.
 Normal termination of Gaussian 16 at Tue Oct 27 21:03:34 2020.
