 Gaussian 16, Revision C.01,
 Gaussian 16:  ES64L-G16RevC.01  3-Jul-2019

 ----------------------------------------------------------------------
 #p opt=addgic freq wb97xd/cc-pvdz nosymm int=ultrafine scrf=(solvent=C
 arbonTetraChloride)
 ----------------------------------------------------------------------

 ------------------------------------------------
 NM 2D-scan of HBT TD-WB97XD pVDZ in CTC Relaxed.
 ------------------------------------------------
 Symbolic Z-matrix:
 Charge =  0 Multiplicity = 1

 SCF Done:  E(RwB97XD) =  -1028.36604485     A.U. after   16 cycles
 SCF Done:  E(RwB97XD) =  -1028.65379546     A.U. after   14 cycles
 SCF Done:  E(RwB97XD) =  -1028.77104293     A.U. after   15 cycles
 SCF Done:  E(RwB97XD) =  -1028.78719119     A.U. after   14 cycles
 SCF Done:  E(RwB97XD) =  -1028.79005099     A.U. after   13 cycles
 SCF Done:  E(RwB97XD) =  -1028.79043032     A.U. after   12 cycles
 SCF Done:  E(RwB97XD) =  -1028.79048211     A.U. after   11 cycles
 SCF Done:  E(RwB97XD) =  -1028.79048465     A.U. after    9 cycles
 Optimization completed.
    -- Stationary point found.
 Normal termination of Gaussian 16 at Wed Oct 28 01:37:36 2020.

 --------------------------------------------------------------------
 #P Geom=AllCheck Guess=TCheck SCRF=Check GenChk RwB97XD/CC-pVDZ Freq
 --------------------------------------------------------------------

 Structure from the checkpoint file:  "config_12_17.chk"
 ------------------------------------------------
 NM 2D-scan of HBT TD-WB97XD pVDZ in CTC Relaxed.
 ------------------------------------------------
 Charge =  0 Multiplicity = 1

                          Input orientation:
 ---------------------------------------------------------------------
 Center     Atomic      Atomic             Coordinates (Angstroms)
 Number     Number       Type             X           Y           Z
 ---------------------------------------------------------------------
      1          6           0        1.555968   -3.284016   -0.000046
      2          6           0        1.003874   -2.011453   -0.000030
      3          6           0        1.800132   -0.885388   -0.000009
      4          6           0        3.192149   -0.976951   -0.000001
      5          6           0        3.749454   -2.256910   -0.000015
      6          6           0        2.942853   -3.398023   -0.000039
      7          1           0        0.918965   -4.168028   -0.000063
      8          1           0        3.821732   -0.085629    0.000016
      9          1           0        4.835178   -2.361027   -0.000008
     10          1           0        3.402523   -4.386548   -0.000050
     11          7           0        1.005303    0.257987   -0.000000
     12         16           0       -0.699142   -1.557717   -0.000025
     13          6           0       -1.335467    1.140886    0.000025
     14          6           0       -2.707497    0.782183    0.000044
     15          6           0       -0.897088    2.531430    0.000016
     16          6           0       -3.698271    1.733944    0.000049
     17          1           0       -2.988103   -0.275060    0.000056
     18          6           0       -2.014039    3.496593    0.000016
     19          6           0       -3.330073    3.107539    0.000030
     20          1           0       -4.748011    1.438875    0.000065
     21          1           0       -1.750403    4.556428    0.000004
     22          1           0       -4.119000    3.864627    0.000028
     23          6           0       -0.343359    0.135912    0.000006
     24          8           0        0.306150    2.803095    0.000013
     25          1           0        1.612274    1.035258    0.000009
 ---------------------------------------------------------------------

 SCF Done:  E(RwB97XD) =  -1028.79048465     A.U. after    1 cycles

 Alpha  occ. eigenvalues --  -89.09670 -19.20946 -14.52518 -10.41829 -10.37006
 Alpha  occ. eigenvalues --  -10.35863 -10.35624 -10.33275 -10.33238 -10.32719
 Alpha  occ. eigenvalues --  -10.32320 -10.31031 -10.30667 -10.30196 -10.29064
 Alpha  occ. eigenvalues --  -10.28626  -8.11778  -6.06664  -6.06262  -6.05780
 Alpha  occ. eigenvalues --   -1.13008  -1.10209  -0.98673  -0.95736  -0.93325
 Alpha  occ. eigenvalues --   -0.89135  -0.86720  -0.83893  -0.81539  -0.75569
 Alpha  occ. eigenvalues --   -0.74494  -0.71885  -0.69548  -0.67784  -0.64261
 Alpha  occ. eigenvalues --   -0.60899  -0.59758  -0.56657  -0.56025  -0.55994
 Alpha  occ. eigenvalues --   -0.55011  -0.53718  -0.52949  -0.50024  -0.49300
 Alpha  occ. eigenvalues --   -0.48999  -0.48243  -0.46729  -0.45691  -0.44740
 Alpha  occ. eigenvalues --   -0.44486  -0.42799  -0.41846  -0.40347  -0.36961
 Alpha  occ. eigenvalues --   -0.33630  -0.31678  -0.31011  -0.25974
 Alpha virt. eigenvalues --   -0.01361   0.03726   0.05826   0.07153   0.09694
 Alpha virt. eigenvalues --    0.11372   0.13939   0.14572   0.15830   0.16536
 Alpha virt. eigenvalues --    0.17857   0.19677   0.20979   0.21595   0.22784

 Mulliken charges:
               1
     1  C    0.014834
     2  C   -0.230963
     3  C    0.191689
     4  C   -0.015137
     5  C    0.009502
     6  C    0.005499
     7  H    0.023130
     8  H    0.030600
     9  H    0.027881
    10  H    0.026066
    11  N   -0.102833
    12  S    0.176381
    13  C   -0.084118
    14  C   -0.020408
    15  C    0.092896
    16  C   -0.034995
    17  H    0.011851
    18  C   -0.051669
    19  C    0.029640
    20  H    0.001733
    21  H    0.001411
    22  H    0.014048
    23  C    0.111175
    24  O   -0.346375
    25  H    0.118162
 Sum of Mulliken charges =  -0.00000

 Dipole moment (field-independent basis, Debye):
    X=              2.3909    Y=             -5.4790    Z=             -0.0000  Tot=              5.9779
 Quadrupole moment (field-independent basis, Debye-Ang):
   XX=            -80.6010   YY=            -96.4582   ZZ=           -103.9643
   XY=             -6.3101   XZ=             -0.0000   YZ=              0.0001

  Exact polarizability:     292.030     -93.498     289.955      -0.001       0.002      62.879
 Approx polarizability:     268.239     -36.022     254.577      -0.001       0.001      81.871

 ******    1 imaginary frequencies (negative Signs) ******

                      1                      2                      3
                      A                      A                      A
 Frequencies --   -121.7722                52.2944                68.1759
 Red. masses --      2.0836                 5.5937                 6.1040
 Frc consts  --      0.0182                 0.0090                 0.0167
 IR Inten    --     29.3530                 0.0061                 1.4514

                      4                      5                      6
                      A                      A                      A
 Frequencies --    111.7641               181.8451               194.5284
 Red. masses --      5.8287                 3.4661                 4.7430
 Frc consts  --      0.0429                 0.0675                 0.1057
 IR Inten    --      1.0511                14.1086                15.0092

                      7                      8                      9
                      A                      A                      A
 Frequencies --    254.6171               266.1569               290.7660
 Red. masses --      2.4369                 8.4655                 6.9847
 Frc consts  --      0.0931                 0.3533                 0.3479
 IR Inten    --     21.9421                 5.1920                 1.8780

                     10                     11                     12
                      A                      A                      A
 Frequencies --    325.9406               391.0854               430.4125
 Red. masses --      4.0076                 7.5495                 2.9883
 Frc consts  --      0.2508                 0.6803                 0.3262
 IR Inten    --      9.0853                 2.9731                 3.9083

                     13                     14                     15
                      A                      A                      A
 Frequencies --    441.2705               505.1960               517.7838
 Red. masses --      3.4546                 8.0517                 2.6171
 Frc consts  --      0.3963                 1.2108                 0.4134
 IR Inten    --      7.1531                10.0872                 3.5799

                     16                     17                     18
                      A                      A                      A
 Frequencies --    528.1214               545.4729               563.7003
 Red. masses --      6.5189                 7.8771                 3.8110
 Frc consts  --      1.0713                 1.3809                 0.7135
 IR Inten    --      2.6627                16.1865                 0.0005

                     19                     20                     21
                      A                      A                      A
 Frequencies --    578.8199               626.8203               656.8492
 Red. masses --      7.4695                 6.8256                 6.5033
 Frc consts  --      1.4744                 1.5801                 1.6532
 IR Inten    --     40.8607                 0.6695                 0.0768

                     22                     23                     24
                      A                      A                      A
 Frequencies --    708.7287               743.2352               750.0273
 Red. masses --      5.3806                 7.1285                 2.5275
 Frc consts  --      1.5924                 2.3201                 0.8377
 IR Inten    --     57.3535                40.0204                14.8314

                     25                     26                     27
                      A                      A                      A
 Frequencies --    756.8428               773.5807               778.4888
 Red. masses --      1.4174                 1.6032                 2.4322
 Frc consts  --      0.4784                 0.5653                 0.8685
 IR Inten    --     48.0351                52.9084                14.0544

                     28                     29                     30
                      A                      A                      A
 Frequencies --    828.2082               874.6779               879.2252
 Red. masses --      6.3041                 2.1158                 1.3761
 Frc consts  --      2.5477                 0.9537                 0.6268
 IR Inten    --     24.9394                15.8527                 0.8373

                     31                     32                     33
                      A                      A                      A
 Frequencies --    893.1730               963.4144               968.5529
 Red. masses --      5.9283                 1.3258                 1.3607
 Frc consts  --      2.7864                 0.7250                 0.7521
 IR Inten    --      1.5211                 0.0678                 1.5987

                     34                     35                     36
                      A                      A                      A
 Frequencies --    978.9839              1012.2265              1017.3631
 Red. masses --      4.5872                 1.3029                 1.3068
 Frc consts  --      2.5903                 0.7865                 0.7969
 IR Inten    --     20.5713                 0.0010                 0.3348

                     37                     38                     39
                      A                      A                      A
 Frequencies --   1047.8760              1058.4315              1101.0004
 Red. masses --      2.1072                 2.0660                 3.7169
 Frc consts  --      1.3632                 1.3636                 2.6546
 IR Inten    --     10.8295                12.1421                 1.7733

                     40                     41                     42
                      A                      A                      A
 Frequencies --   1118.8356              1157.3257              1161.8438
 Red. masses --      1.7926                 1.3718                 1.2023
 Frc consts  --      1.3221                 1.0825                 0.9562
 IR Inten    --     27.9826                 3.8982                64.0986

                     43                     44                     45
                      A                      A                      A
 Frequencies --   1180.6425              1199.0187              1222.0896
 Red. masses --      1.1596                 1.2402                 2.5681
 Frc consts  --      0.9523                 1.0505                 2.2598
 IR Inten    --     28.7539                16.6386                68.5023

                     46                     47                     48
                      A                      A                      A
 Frequencies --   1274.4215              1306.5986              1347.3094
 Red. masses --      2.0489                 1.8107                 2.5811
 Frc consts  --      1.9606                 1.8213                 2.7605
 IR Inten    --     60.4120               136.2284                26.8005

                     49                     50                     51
                      A                      A                      A
 Frequencies --   1384.6294              1397.7994              1410.6676
 Red. masses --      3.8441                 6.2198                 2.2539
 Frc consts  --      4.3423                 7.1600                 2.6426
 IR Inten    --    262.8532                28.3573                33.4837

                     52                     53                     54
                      A                      A                      A
 Frequencies --   1492.1744              1506.6771              1527.2434
 Red. masses --      3.2710                 2.8737                 4.3704
 Frc consts  --      4.2911                 3.8435                 6.0061
 IR Inten    --    333.3464               772.4163              1550.4456

                     55                     56                     57
                      A                      A                      A
 Frequencies --   1536.3016              1590.5873              1656.4250
 Red. masses --      2.9873                 6.8803                 5.6744
 Frc consts  --      4.1542                10.2559                 9.1731
 IR Inten    --     10.2617                22.2363                80.4399

                     58                     59                     60
                      A                      A                      A
 Frequencies --   1679.3211              1709.6610              1752.8531
 Red. masses --      7.0857                 7.9173                10.2536
 Frc consts  --     11.7733                13.6347                18.5617
 IR Inten    --     20.2928                10.8675               467.0106

                     61                     62                     63
                      A                      A                      A
 Frequencies --   3184.6274              3191.8740              3212.4536
 Red. masses --      1.0880                 1.0879                 1.0881
 Frc consts  --      6.5012                 6.5305                 6.6158
 IR Inten    --      2.7737                13.3715                 1.1871

                     64                     65                     66
                      A                      A                      A
 Frequencies --   3214.8842              3222.3324              3229.6194
 Red. masses --      1.0944                 1.0909                 1.0973
 Frc consts  --      6.6643                 6.6736                 6.7435
 IR Inten    --     36.2376                 1.3649                19.3477

                     67                     68                     69
                      A                      A                      A
 Frequencies --   3232.0950              3242.5666              3967.1767
 Red. masses --      1.0950                 1.0993                 1.0786
 Frc consts  --      6.7397                 6.8101                10.0017
 IR Inten    --      5.4165                12.3967               139.1650

 - Thermochemistry -
 -------------------
 Temperature   298.150 Kelvin.  Pressure   1.00000 Atm.
 Atom     1 has atomic number  6 and mass  12.00000

 Molecular mass:   227.04049 amu.
 Principal axes and moments of inertia in atomic units:
                           1         2         3
     Eigenvalues --  1259.473436457.613737717.08716
           X           -0.70580   0.70842   0.00000
           Y            0.70842   0.70580  -0.00001
           Z            0.00001   0.00000   1.00000
 This molecule is an asymmetric top.
 Rotational symmetry number  1.
 Warning -- assumption of classical behavior for rotation
           may cause significant error
 Rotational temperatures (Kelvin)      0.06877     0.01341     0.01122
 Rotational constants (GHZ):           1.43293     0.27947     0.23386
    1 imaginary frequencies ignored.
 Zero-point vibrational energy     496305.0 (Joules/Mol)
                                  118.61974 (Kcal/Mol)
 Warning -- explicit consideration of  18 degrees of freedom as
           vibrations may cause significant error
 Vibrational temperatures:     75.24    98.09   160.80   261.63   279.88
          (Kelvin)            366.34   382.94   418.35   468.96   562.68
                              619.27   634.89   726.86   744.98   759.85
                              784.81   811.04   832.79   901.85   945.06
                             1019.70  1069.35  1079.12  1088.93  1113.01
                             1120.07  1191.61  1258.47  1265.01  1285.08
                             1386.14  1393.53  1408.54  1456.37  1463.76
                             1507.66  1522.85  1584.09  1609.75  1665.13
                             1671.63  1698.68  1725.12  1758.31  1833.61
                             1879.90  1938.48  1992.17  2011.12  2029.64
                             2146.91  2167.77  2197.36  2210.40  2288.50
                             2383.23  2416.17  2459.82  2521.96  4581.97
                             4592.39  4622.00  4625.50  4636.22  4646.70
                             4650.26  4665.33  5707.88

 Zero-point correction=                           0.189033 (Hartree/Particle)
 Thermal correction to Energy=                    0.200741
 Thermal correction to Enthalpy=                  0.201685
 Thermal correction to Gibbs Free Energy=         0.150565
 Sum of electronic and zero-point Energies=          -1028.601452
 Sum of electronic and thermal Energies=             -1028.589744
 Sum of electronic and thermal Enthalpies=           -1028.588800
 Sum of electronic and thermal Free Energies=        -1028.639919

                     E (Thermal)             CV                S
                      KCal/Mol        Cal/Mol-Kelvin    Cal/Mol-Kelvin
 Total                  125.967             47.548            107.590
 Electronic               0.000              0.000              0.000
 Translational            0.889              2.981             42.162
 Rotational               0.889              2.981             32.506
 Vibrational            124.189             41.586             32.922
 Vibration     1          0.596              1.977              4.729
 Vibration     2          0.598              1.969              4.205
 Vibration     3          0.607              1.940              3.238
 Vibration     4          0.630              1.864              2.309
 Vibration     5          0.635              1.847              2.184
 Vibration     6          0.665              1.755              1.698
 Vibration     7          0.672              1.735              1.621
 Vibration     8          0.687              1.691              1.469
 Vibration     9          0.710              1.624              1.280
 Vibration    10          0.759              1.489              0.996
 Vibration    11          0.792              1.404              0.857
 Vibration    12          0.801              1.380              0.823
 Vibration    13          0.860              1.238              0.645
 Vibration    14          0.873              1.211              0.615
 Vibration    15          0.883              1.188              0.591
 Vibration    16          0.901              1.150              0.554
 Vibration    17          0.919              1.110              0.516
 Vibration    18          0.935              1.077              0.488

 Optimization completed.
    -- Stationary point found.
 Normal termination of Gaussian 16 at Wed Oct 28 01:43:32 2020.
