 Gaussian 16, Revision C.01,
 Gaussian 16:  ES64L-G16RevC.01  3-Jul-2019

 ----------------------------------------------------------------------
 #p opt=addgic freq wb97xd/cc-pvdz nosymm int=ultrafine scrf=(solvent=C
 arbonTetraChloride)
 ----------------------------------------------------------------------

 ------------------------------------------------
 NM 2D-scan of HBT TD-WB97XD pVDZ in CTC Relaxed.
 ------------------------------------------------
 Symbolic Z-matrix:
 Charge =  0 Multiplicity = 1

 SCF Done:  E(RwB97XD) =  -1028.81274841     A.U. after   15 cycles
 SCF Done:  E(RwB97XD) =  -1028.81934829     A.U. after   13 cycles
 SCF Done:  E(RwB97XD) =  -1028.82090318     A.U. after   13 cycles
 SCF Done:  E(RwB97XD) =  -1028.82116222     A.U. after   12 cycles
 SCF Done:  E(RwB97XD) =  -1028.82122846     A.U. after   11 cycles
 SCF Done:  E(RwB97XD) =  -1028.82123679     A.U. after   10 cycles
 Optimization completed.
    -- Stationary point found.
 Normal termination of Gaussian 16 at Tue Oct 27 23:38:31 2020.

 --------------------------------------------------------------------
 #P Geom=AllCheck Guess=TCheck SCRF=Check GenChk RwB97XD/CC-pVDZ Freq
 --------------------------------------------------------------------

 Structure from the checkpoint file:  "config_6_11.chk"
 ------------------------------------------------
 NM 2D-scan of HBT TD-WB97XD pVDZ in CTC Relaxed.
 ------------------------------------------------
 Charge =  0 Multiplicity = 1

                          Input orientation:
 ---------------------------------------------------------------------
 Center     Atomic      Atomic             Coordinates (Angstroms)
 Number     Number       Type             X           Y           Z
 ---------------------------------------------------------------------
      1          6           0        1.616359   -3.252445   -0.000034
      2          6           0        1.006230   -2.001432   -0.000022
      3          6           0        1.741151   -0.808763   -0.000010
      4          6           0        3.140768   -0.862780   -0.000011
      5          6           0        3.753856   -2.112857   -0.000023
      6          6           0        3.003359   -3.297707   -0.000034
      7          1           0        1.020452   -4.165338   -0.000044
      8          1           0        3.728452    0.055628   -0.000003
      9          1           0        4.843259   -2.170687   -0.000023
     10          1           0        3.511656   -4.262721   -0.000043
     11          7           0        0.920348    0.310432    0.000001
     12         16           0       -0.711396   -1.662046   -0.000017
     13          6           0       -1.361788    1.082964    0.000019
     14          6           0       -2.734333    0.809007    0.000023
     15          6           0       -0.870160    2.418671    0.000031
     16          6           0       -3.662541    1.837820    0.000033
     17          1           0       -3.074554   -0.229780    0.000016
     18          6           0       -1.839838    3.453842    0.000035
     19          6           0       -3.197929    3.160827    0.000036
     20          1           0       -4.730745    1.621154    0.000036
     21          1           0       -1.490799    4.487484    0.000039
     22          1           0       -3.917925    3.982169    0.000040
     23          6           0       -0.363980    0.033272    0.000002
     24          8           0        0.419740    2.645684    0.000032
     25          1           0        0.914351    1.667358    0.000019
 ---------------------------------------------------------------------

 SCF Done:  E(RwB97XD) =  -1028.82123679     A.U. after    1 cycles

 Alpha  occ. eigenvalues --  -89.09075 -19.25649 -14.47815 -10.39792 -10.36888
 Alpha  occ. eigenvalues --  -10.35688 -10.35041 -10.32555 -10.32189 -10.31877
 Alpha  occ. eigenvalues --  -10.31818 -10.31655 -10.31495 -10.31220 -10.29870
 Alpha  occ. eigenvalues --  -10.29760  -8.11181  -6.06030  -6.05665  -6.05229
 Alpha  occ. eigenvalues --   -1.14931  -1.09516  -0.97600  -0.95969  -0.92275
 Alpha  occ. eigenvalues --   -0.88759  -0.85770  -0.84110  -0.83032  -0.75641
 Alpha  occ. eigenvalues --   -0.71543  -0.70743  -0.69219  -0.68213  -0.63435
 Alpha  occ. eigenvalues --   -0.60851  -0.59228  -0.57987  -0.56150  -0.54723
 Alpha  occ. eigenvalues --   -0.54551  -0.53500  -0.52646  -0.51015  -0.49919
 Alpha  occ. eigenvalues --   -0.49644  -0.47092  -0.46277  -0.45291  -0.45163
 Alpha  occ. eigenvalues --   -0.44122  -0.42998  -0.42452  -0.40186  -0.36317
 Alpha  occ. eigenvalues --   -0.35676  -0.32545  -0.31577  -0.28487
 Alpha virt. eigenvalues --   -0.00639   0.04530   0.06705   0.07611   0.07685
 Alpha virt. eigenvalues --    0.11169   0.14535   0.15048   0.16706   0.17886
 Alpha virt. eigenvalues --    0.19064   0.20872   0.21750   0.22389   0.22729

 Mulliken charges:
               1
     1  C    0.016329
     2  C   -0.227288
     3  C    0.256071
     4  C   -0.014034
     5  C    0.005724
     6  C    0.003536
     7  H    0.020161
     8  H    0.023936
     9  H    0.022676
    10  H    0.023065
    11  N   -0.325747
    12  S    0.164451
    13  C   -0.075968
    14  C   -0.023006
    15  C    0.096998
    16  C   -0.014599
    17  H    0.012178
    18  C   -0.009935
    19  C    0.022025
    20  H    0.007281
    21  H    0.011741
    22  H    0.017183
    23  C    0.079925
    24  O   -0.282423
    25  H    0.189721
 Sum of Mulliken charges =  -0.00000

 Dipole moment (field-independent basis, Debye):
    X=              0.4057    Y=             -3.5011    Z=             -0.0000  Tot=              3.5245
 Quadrupole moment (field-independent basis, Debye-Ang):
   XX=            -82.6662   YY=            -91.2467   ZZ=           -103.9692
   XY=             -7.2148   XZ=             -0.0001   YZ=              0.0001

  Exact polarizability:     276.458     -70.573     258.728      -0.001       0.002      62.861
 Approx polarizability:     263.144     -24.919     244.041      -0.001       0.002      82.143

                      1                      2                      3
                      A                      A                      A
 Frequencies --     17.1701                65.9787               118.3110
 Red. masses --      5.2595                 6.1459                 5.3847
 Frc consts  --      0.0009                 0.0158                 0.0444
 IR Inten    --      0.0345                 1.3666                13.3473

                      4                      5                      6
                      A                      A                      A
 Frequencies --    152.3816               197.6234               243.2873
 Red. masses --      5.0907                 6.0892                 5.7042
 Frc consts  --      0.0696                 0.1401                 0.1989
 IR Inten    --      0.3811                 0.3989                 0.1521

                      7                      8                      9
                      A                      A                      A
 Frequencies --    272.6833               320.6756               327.4856
 Red. masses --      7.0114                 4.9455                 5.1860
 Frc consts  --      0.3072                 0.2996                 0.3277
 IR Inten    --      7.0463                76.1537                 0.2319

                     10                     11                     12
                      A                      A                      A
 Frequencies --    421.0638               434.8184               460.6544
 Red. masses --     10.2417                 3.1048                 3.5952
 Frc consts  --      1.0698                 0.3459                 0.4495
 IR Inten    --      1.7380                 1.8285                 8.4152

                     13                     14                     15
                      A                      A                      A
 Frequencies --    492.8118               519.5096               538.5289
 Red. masses --      4.6525                 8.1431                 3.4073
 Frc consts  --      0.6657                 1.2949                 0.5822
 IR Inten    --     90.0233                12.4792                 3.5625

                     16                     17                     18
                      A                      A                      A
 Frequencies --    563.6068               574.5548               588.0368
 Red. masses --      7.1211                 3.6878                 7.7315
 Frc consts  --      1.3328                 0.7173                 1.5752
 IR Inten    --     13.6838                 0.0849                 1.4933

                     19                     20                     21
                      A                      A                      A
 Frequencies --    648.7740               688.4198               725.8007
 Red. masses --      6.4396                 6.2945                 6.5493
 Frc consts  --      1.5970                 1.7576                 2.0327
 IR Inten    --      0.0084                14.9780                30.6346

                     22                     23                     24
                      A                      A                      A
 Frequencies --    755.4468               768.8656               773.3533
 Red. masses --      2.1153                 2.1672                 9.4914
 Frc consts  --      0.7113                 0.7548                 3.3445
 IR Inten    --     23.5984                14.9945                21.8361

                     25                     26                     27
                      A                      A                      A
 Frequencies --    775.2987               783.3148               854.5992
 Red. masses --      1.7080                 1.8355                 6.0025
 Frc consts  --      0.6049                 0.6635                 2.5829
 IR Inten    --     46.6856                42.9185                13.2340

                     28                     29                     30
                      A                      A                      A
 Frequencies --    881.0699               885.7019               908.9274
 Red. masses --      1.5942                 1.4023                 6.2357
 Frc consts  --      0.7291                 0.6481                 3.0352
 IR Inten    --      5.8716                 0.4221                36.1173

                     31                     32                     33
                      A                      A                      A
 Frequencies --    966.9223               974.7051              1007.1637
 Red. masses --      1.3569                 1.3638                 6.7983
 Frc consts  --      0.7475                 0.7634                 4.0630
 IR Inten    --      1.0781                 1.2652               105.9907

                     34                     35                     36
                      A                      A                      A
 Frequencies --   1010.4896              1015.9908              1053.4572
 Red. masses --      1.3025                 1.3056                 2.0332
 Frc consts  --      0.7836                 0.7940                 1.3294
 IR Inten    --      0.2552                 0.0006                15.5398

                     37                     38                     39
                      A                      A                      A
 Frequencies --   1064.3390              1102.2129              1129.2951
 Red. masses --      1.8946                 3.8570                 1.0579
 Frc consts  --      1.2645                 2.7608                 0.7949
 IR Inten    --      6.4017                16.9984                70.1054

                     40                     41                     42
                      A                      A                      A
 Frequencies --   1131.0653              1155.6829              1160.3703
 Red. masses --      1.8514                 1.4700                 1.3778
 Frc consts  --      1.3955                 1.1568                 1.0930
 IR Inten    --    243.8834                 3.5803                 2.0459

                     43                     44                     45
                      A                      A                      A
 Frequencies --   1183.6231              1194.3748              1261.3208
 Red. masses --      1.1893                 1.2408                 2.0088
 Frc consts  --      0.9817                 1.0429                 1.8830
 IR Inten    --     45.2095               288.4580                54.7334

                     46                     47                     48
                      A                      A                      A
 Frequencies --   1289.5957              1314.0407              1356.3953
 Red. masses --      1.5232                 3.4731                 3.3057
 Frc consts  --      1.4925                 3.5333                 3.5833
 IR Inten    --      2.3571               280.3877                 7.4302

                     49                     50                     51
                      A                      A                      A
 Frequencies --   1382.1050              1383.8484              1418.9727
 Red. masses --      3.8481                 5.8015                 2.7222
 Frc consts  --      4.3309                 6.5458                 3.2293
 IR Inten    --     14.8140                16.6955                68.0321

                     52                     53                     54
                      A                      A                      A
 Frequencies --   1489.2401              1498.4699              1515.6026
 Red. masses --      2.7545                 2.7848                 3.4594
 Frc consts  --      3.5993                 3.6841                 4.6819
 IR Inten    --     29.6545                20.8745                55.3771

                     55                     56                     57
                      A                      A                      A
 Frequencies --   1576.2592              1609.3445              1644.3448
 Red. masses --      6.1337                 3.8671                 4.9605
 Frc consts  --      8.9790                 5.9010                 7.9024
 IR Inten    --    293.1113               213.6731               855.8046

                     58                     59                     60
                      A                      A                      A
 Frequencies --   1661.3571              1690.6857              1720.9321
 Red. masses --      6.6700                 6.2962                 3.6249
 Frc consts  --     10.8468                10.6037                 6.3251
 IR Inten    --    104.1049               225.8765               441.1121

                     61                     62                     63
                      A                      A                      A
 Frequencies --   1883.4964              3195.8666              3204.2395
 Red. masses --      1.1166                 1.0889                 1.0889
 Frc consts  --      2.3339                 6.5528                 6.5867
 IR Inten    --    263.9602                 3.6928                 8.2364

                     64                     65                     66
                      A                      A                      A
 Frequencies --   3214.0456              3224.6094              3226.7733
 Red. masses --      1.0862                 1.0908                 1.0937
 Frc consts  --      6.6111                 6.6825                 6.7095
 IR Inten    --      1.7757                 3.3290                15.3503

                     67                     68                     69
                      A                      A                      A
 Frequencies --   3234.9135              3236.6316              3240.8801
 Red. masses --      1.0960                 1.0982                 1.0997
 Frc consts  --      6.7575                 6.7783                 6.8051
 IR Inten    --      8.2166                17.5220                12.6753

 - Thermochemistry -
 -------------------
 Temperature   298.150 Kelvin.  Pressure   1.00000 Atm.
 Atom     1 has atomic number  6 and mass  12.00000

 Molecular mass:   227.04049 amu.
 Principal axes and moments of inertia in atomic units:
                           1         2         3
     Eigenvalues --  1280.412056257.047647537.45969
           X           -0.70702   0.70720   0.00000
           Y            0.70720   0.70702  -0.00001
           Z            0.00001   0.00001   1.00000
 This molecule is an asymmetric top.
 Rotational symmetry number  1.
 Warning -- assumption of classical behavior for rotation
           may cause significant error
 Rotational temperatures (Kelvin)      0.06765     0.01384     0.01149
 Rotational constants (GHZ):           1.40950     0.28843     0.23944
 Zero-point vibrational energy     492756.3 (Joules/Mol)
                                  117.77158 (Kcal/Mol)
 Warning -- explicit consideration of  18 degrees of freedom as
           vibrations may cause significant error
 Vibrational temperatures:     24.70    94.93   170.22   219.24   284.34
          (Kelvin)            350.04   392.33   461.38   471.18   605.82
                              625.61   662.78   709.05   747.46   774.82
                              810.90   826.66   846.05   933.44   990.48
                             1044.27  1086.92  1106.23  1112.68  1115.48
                             1127.02  1229.58  1267.66  1274.33  1307.74
                             1391.19  1402.38  1449.08  1453.87  1461.78
                             1515.69  1531.35  1585.84  1624.80  1627.35
                             1662.77  1669.51  1702.97  1718.44  1814.76
                             1855.44  1890.61  1951.55  1988.54  1991.05
                             2041.59  2142.68  2155.96  2180.61  2267.89
                             2315.49  2365.85  2390.32  2432.52  2476.04
                             2709.93  4598.14  4610.19  4624.29  4639.49
                             4642.61  4654.32  4656.79  4662.90

 Zero-point correction=                           0.187681 (Hartree/Particle)
 Thermal correction to Energy=                    0.199350
 Thermal correction to Enthalpy=                  0.200294
 Thermal correction to Gibbs Free Energy=         0.148273
 Sum of electronic and zero-point Energies=          -1028.633556
 Sum of electronic and thermal Energies=             -1028.621887
 Sum of electronic and thermal Enthalpies=           -1028.620943
 Sum of electronic and thermal Free Energies=        -1028.672963

                     E (Thermal)             CV                S
                      KCal/Mol        Cal/Mol-Kelvin    Cal/Mol-Kelvin
 Total                  125.094             47.203            109.486
 Electronic               0.000              0.000              0.000
 Translational            0.889              2.981             42.162
 Rotational               0.889              2.981             32.468
 Vibrational            123.316             41.242             34.856
 Vibration     1          0.593              1.986              6.937
 Vibration     2          0.597              1.971              4.270
 Vibration     3          0.608              1.934              3.128
 Vibration     4          0.619              1.900              2.642
 Vibration     5          0.637              1.843              2.155
 Vibration     6          0.659              1.774              1.779
 Vibration     7          0.676              1.724              1.579
 Vibration     8          0.706              1.634              1.307
 Vibration     9          0.711              1.621              1.272
 Vibration    10          0.784              1.424              0.888
 Vibration    11          0.795              1.394              0.843
 Vibration    12          0.818              1.337              0.764
 Vibration    13          0.849              1.266              0.676
 Vibration    14          0.874              1.207              0.611
 Vibration    15          0.894              1.165              0.568
 Vibration    16          0.919              1.110              0.517
 Vibration    17          0.931              1.086              0.496
 Vibration    18          0.945              1.057              0.471

 Optimization completed.
    -- Stationary point found.
 Normal termination of Gaussian 16 at Tue Oct 27 23:45:31 2020.
