 Gaussian 16, Revision C.01,
 Gaussian 16:  ES64L-G16RevC.01  3-Jul-2019

 ----------------------------------------------------------------------
 #p opt=addgic freq wb97xd/cc-pvdz nosymm int=ultrafine scrf=(solvent=C
 arbonTetraChloride)
 ----------------------------------------------------------------------

 ------------------------------------------------
 NM 2D-scan of HBT TD-WB97XD pVDZ in CTC Relaxed.
 ------------------------------------------------
 Symbolic Z-matrix:
 Charge =  0 Multiplicity = 1

 SCF Done:  E(RwB97XD) =  -1028.62732369     A.U. after   16 cycles
 SCF Done:  E(RwB97XD) =  -1028.75627704     A.U. after   13 cycles
 SCF Done:  E(RwB97XD) =  -1028.77133748     A.U. after   14 cycles
 SCF Done:  E(RwB97XD) =  -1028.79007006     A.U. after   14 cycles
 SCF Done:  E(RwB97XD) =  -1028.79070333     A.U. after   13 cycles
 SCF Done:  E(RwB97XD) =  -1028.79115613     A.U. after   12 cycles
 SCF Done:  E(RwB97XD) =  -1028.79118609     A.U. after   10 cycles
 SCF Done:  E(RwB97XD) =  -1028.79118887     A.U. after    9 cycles
 Optimization completed.
    -- Stationary point found.
 Normal termination of Gaussian 16 at Tue Oct 27 21:31:55 2020.

 --------------------------------------------------------------------
 #P Geom=AllCheck Guess=TCheck SCRF=Check GenChk RwB97XD/CC-pVDZ Freq
 --------------------------------------------------------------------

 Structure from the checkpoint file:  "config_12_4.chk"
 ------------------------------------------------
 NM 2D-scan of HBT TD-WB97XD pVDZ in CTC Relaxed.
 ------------------------------------------------
 Charge =  0 Multiplicity = 1

                          Input orientation:
 ---------------------------------------------------------------------
 Center     Atomic      Atomic             Coordinates (Angstroms)
 Number     Number       Type             X           Y           Z
 ---------------------------------------------------------------------
      1          6           0        1.735749   -3.278204    0.000141
      2          6           0        1.020097   -2.084249    0.000057
      3          6           0        1.701152   -0.887388   -0.000091
      4          6           0        3.090851   -0.792525   -0.000130
      5          6           0        3.801111   -1.987526   -0.000035
      6          6           0        3.129193   -3.213980    0.000093
      7          1           0        1.225767   -4.241048    0.000235
      8          1           0        3.591363    0.176507   -0.000234
      9          1           0        4.891424   -1.964681   -0.000062
     10          1           0        3.702641   -4.141319    0.000154
     11          7           0        0.814513    0.162218   -0.000204
     12         16           0       -0.740164   -1.762331    0.000081
     13          6           0       -1.428685    1.069789   -0.000103
     14          6           0       -2.835145    0.911898   -0.000175
     15          6           0       -0.821133    2.411955    0.000071
     16          6           0       -3.693245    1.993159   -0.000056
     17          1           0       -3.251378   -0.100170   -0.000339
     18          6           0       -1.794392    3.506776    0.000258
     19          6           0       -3.150531    3.303426    0.000190
     20          1           0       -4.772574    1.839167   -0.000127
     21          1           0       -1.379365    4.516681    0.000445
     22          1           0       -3.827935    4.161498    0.000322
     23          6           0       -0.513844   -0.026742   -0.000117
     24          8           0        0.406023    2.582512    0.000089
     25          1           0        1.308850    1.013432   -0.000392
 ---------------------------------------------------------------------

 SCF Done:  E(RwB97XD) =  -1028.79118887     A.U. after    1 cycles

 Alpha  occ. eigenvalues --  -89.10214 -19.21192 -14.51445 -10.41935 -10.36698
 Alpha  occ. eigenvalues --  -10.36104 -10.35949 -10.33469 -10.33073 -10.32709
 Alpha  occ. eigenvalues --  -10.32374 -10.31114 -10.30780 -10.30552 -10.29020
 Alpha  occ. eigenvalues --  -10.28468  -8.12182  -6.07082  -6.06680  -6.06182
 Alpha  occ. eigenvalues --   -1.13546  -1.10320  -0.98699  -0.95073  -0.93223
 Alpha  occ. eigenvalues --   -0.89315  -0.86480  -0.84131  -0.81516  -0.75730
 Alpha  occ. eigenvalues --   -0.74218  -0.71490  -0.69578  -0.67736  -0.64365
 Alpha  occ. eigenvalues --   -0.60886  -0.59839  -0.56638  -0.56082  -0.55988
 Alpha  occ. eigenvalues --   -0.55031  -0.53532  -0.52832  -0.50508  -0.49410
 Alpha  occ. eigenvalues --   -0.49031  -0.48151  -0.46665  -0.45659  -0.44743
 Alpha  occ. eigenvalues --   -0.44519  -0.42869  -0.41691  -0.40412  -0.36931
 Alpha  occ. eigenvalues --   -0.33656  -0.31710  -0.31258  -0.26107
 Alpha virt. eigenvalues --   -0.01365   0.03672   0.06133   0.06725   0.09581
 Alpha virt. eigenvalues --    0.11148   0.12114   0.14568   0.15898   0.16971
 Alpha virt. eigenvalues --    0.18597   0.19818   0.21130   0.21639   0.22960

 Mulliken charges:
               1
     1  C    0.007879
     2  C   -0.252702
     3  C    0.229206
     4  C   -0.013540
     5  C    0.013447
     6  C    0.002375
     7  H    0.025761
     8  H    0.034401
     9  H    0.028156
    10  H    0.026395
    11  N   -0.072194
    12  S    0.176440
    13  C   -0.134177
    14  C   -0.002870
    15  C    0.115100
    16  C   -0.036638
    17  H    0.000513
    18  C   -0.038627
    19  C    0.029014
    20  H    0.002684
    21  H    0.000387
    22  H    0.013138
    23  C    0.102343
    24  O   -0.369764
    25  H    0.113275
 Sum of Mulliken charges =  -0.00000

 Dipole moment (field-independent basis, Debye):
    X=              2.1788    Y=             -5.1405    Z=             -0.0005  Tot=              5.5832
 Quadrupole moment (field-independent basis, Debye-Ang):
   XX=            -81.7227   YY=            -94.6059   ZZ=           -104.0600
   XY=             -6.7748   XZ=             -0.0009   YZ=             -0.0008

  Exact polarizability:     291.666     -90.917     289.791      -0.002       0.004      63.025
 Approx polarizability:     269.496     -36.506     256.272      -0.002       0.001      82.034

 ******    1 imaginary frequencies (negative Signs) ******

                      1                      2                      3
                      A                      A                      A
 Frequencies --    -62.0412                49.4887                80.6213
 Red. masses --      4.0833                 5.5024                 5.1639
 Frc consts  --      0.0093                 0.0079                 0.0198
 IR Inten    --      3.8541                 0.1627                 2.2592

                      4                      5                      6
                      A                      A                      A
 Frequencies --    110.8057               184.8521               224.5223
 Red. masses --      5.6555                 4.9972                 5.3832
 Frc consts  --      0.0409                 0.1006                 0.1599
 IR Inten    --      0.4908                 1.3669                 6.2724

                      7                      8                      9
                      A                      A                      A
 Frequencies --    265.2656               288.2669               326.3659
 Red. masses --      7.3695                 3.2116                 7.0056
 Frc consts  --      0.3055                 0.1572                 0.4396
 IR Inten    --      3.2070                15.2697                 5.4718

                     10                     11                     12
                      A                      A                      A
 Frequencies --    380.1276               382.1012               436.5068
 Red. masses --      8.5256                 1.6896                 2.6108
 Frc consts  --      0.7258                 0.1453                 0.2931
 IR Inten    --      6.2992                42.9878                13.1065

                     13                     14                     15
                      A                      A                      A
 Frequencies --    441.8199               498.5175               526.0198
 Red. masses --      3.3026                 7.7582                 2.7195
 Frc consts  --      0.3798                 1.1360                 0.4433
 IR Inten    --      2.2222                 8.1485                 2.2801

                     16                     17                     18
                      A                      A                      A
 Frequencies --    537.3582               551.4304               561.8242
 Red. masses --      8.9917                 6.6096                 3.7378
 Frc consts  --      1.5298                 1.1842                 0.6951
 IR Inten    --     10.4161                 1.1430                 0.0981

                     19                     20                     21
                      A                      A                      A
 Frequencies --    583.4646               633.8516               663.0816
 Red. masses --      7.3705                 6.8858                 6.0347
 Frc consts  --      1.4783                 1.6300                 1.5633
 IR Inten    --     40.7707                 1.7085                 4.7775

                     22                     23                     24
                      A                      A                      A
 Frequencies --    691.4584               738.1723               749.3732
 Red. masses --      6.0209                 7.5874                 2.6408
 Frc consts  --      1.6961                 2.4359                 0.8737
 IR Inten    --     39.8309                39.3881                 9.0777

                     25                     26                     27
                      A                      A                      A
 Frequencies --    759.5759               775.3118               778.0655
 Red. masses --      1.4216                 1.5676                 2.4367
 Frc consts  --      0.4832                 0.5552                 0.8691
 IR Inten    --     48.7167                44.5424                29.9785

                     28                     29                     30
                      A                      A                      A
 Frequencies --    825.2655               875.4330               878.1862
 Red. masses --      6.2315                 1.9927                 1.3802
 Frc consts  --      2.5005                 0.8998                 0.6271
 IR Inten    --     27.4065                14.8768                 1.0150

                     31                     32                     33
                      A                      A                      A
 Frequencies --    908.1996               967.7356               968.7943
 Red. masses --      6.0499                 1.3255                 4.1985
 Frc consts  --      2.9401                 0.7314                 2.3217
 IR Inten    --      6.0826                 0.1947                31.5754

                     34                     35                     36
                      A                      A                      A
 Frequencies --    970.8073              1014.4707              1015.8863
 Red. masses --      1.3570                 1.3026                 1.3029
 Frc consts  --      0.7535                 0.7898                 0.7923
 IR Inten    --      1.3176                 0.0009                 0.3261

                     37                     38                     39
                      A                      A                      A
 Frequencies --   1046.9291              1058.4750              1086.5129
 Red. masses --      2.1074                 2.2107                 3.1294
 Frc consts  --      1.3609                 1.4593                 2.1766
 IR Inten    --      6.9259                11.9344                26.0543

                     40                     41                     42
                      A                      A                      A
 Frequencies --   1097.0790              1154.8794              1155.2541
 Red. masses --      2.1373                 1.2564                 1.3126
 Frc consts  --      1.5157                 0.9873                 1.0321
 IR Inten    --     90.4467                44.2806                11.7599

                     43                     44                     45
                      A                      A                      A
 Frequencies --   1181.3987              1188.5574              1228.6813
 Red. masses --      1.1518                 1.1635                 2.2353
 Frc consts  --      0.9471                 0.9684                 1.9882
 IR Inten    --     36.0593                 5.8914                53.5539

                     46                     47                     48
                      A                      A                      A
 Frequencies --   1285.8423              1302.4275              1366.6012
 Red. masses --      2.0673                 1.6777                 4.0053
 Frc consts  --      2.0138                 1.6767                 4.4073
 IR Inten    --    122.2554               132.1392               105.6503

                     49                     50                     51
                      A                      A                      A
 Frequencies --   1370.4292              1397.4139              1414.6785
 Red. masses --      3.2136                 6.3358                 2.2522
 Frc consts  --      3.5560                 7.2895                 2.6557
 IR Inten    --     19.2947                96.4835                12.3941

                     52                     53                     54
                      A                      A                      A
 Frequencies --   1483.2066              1503.6186              1534.6631
 Red. masses --      3.0031                 3.0692                 3.0270
 Frc consts  --      3.8925                 4.0883                 4.2003
 IR Inten    --    604.4836               737.4441               591.8696

                     55                     56                     57
                      A                      A                      A
 Frequencies --   1547.5718              1588.0614              1651.4165
 Red. masses --      4.2633                 6.6451                 6.1462
 Frc consts  --      6.0159                 9.8739                 9.8758
 IR Inten    --    367.3087                91.9013                48.2274

                     58                     59                     60
                      A                      A                      A
 Frequencies --   1679.3865              1712.0423              1736.7660
 Red. masses --      7.1248                 8.1129                 8.8161
 Frc consts  --     11.8393                14.0105                15.6679
 IR Inten    --     55.4456                66.4046               390.9046

                     61                     62                     63
                      A                      A                      A
 Frequencies --   3174.2957              3188.2988              3213.5402
 Red. masses --      1.0896                 1.0877                 1.0946
 Frc consts  --      6.4687                 6.5143                 6.6599
 IR Inten    --      6.8817                14.2230                28.2934

                     64                     65                     66
                      A                      A                      A
 Frequencies --   3218.2144              3228.6038              3229.5414
 Red. masses --      1.0867                 1.0910                 1.0965
 Frc consts  --      6.6314                 6.7006                 6.7384
 IR Inten    --      2.2434                 0.9996                20.1475

                     67                     68                     69
                      A                      A                      A
 Frequencies --   3236.4373              3245.4155              3934.8833
 Red. masses --      1.0965                 1.0992                 1.0784
 Frc consts  --      6.7668                 6.8210                 9.8379
 IR Inten    --      3.8656                13.0086               125.6170

 - Thermochemistry -
 -------------------
 Temperature   298.150 Kelvin.  Pressure   1.00000 Atm.
 Atom     1 has atomic number  6 and mass  12.00000

 Molecular mass:   227.04049 amu.
 Principal axes and moments of inertia in atomic units:
                           1         2         3
     Eigenvalues --  1298.387486392.732907691.12034
           X           -0.70689   0.70732   0.00000
           Y            0.70732   0.70689  -0.00000
           Z            0.00001   0.00000   1.00000
 This molecule is an asymmetric top.
 Rotational symmetry number  1.
 Warning -- assumption of classical behavior for rotation
           may cause significant error
 Rotational temperatures (Kelvin)      0.06671     0.01355     0.01126
 Rotational constants (GHZ):           1.38999     0.28231     0.23465
    1 imaginary frequencies ignored.
 Zero-point vibrational energy     496953.6 (Joules/Mol)
                                  118.77476 (Kcal/Mol)
 Warning -- explicit consideration of  18 degrees of freedom as
           vibrations may cause significant error
 Vibrational temperatures:     71.20   116.00   159.42   265.96   323.04
          (Kelvin)            381.66   414.75   469.57   546.92   549.76
                              628.04   635.68   717.26   756.83   773.14
                              793.39   808.34   839.48   911.97   954.03
                              994.85  1062.07  1078.18  1092.86  1115.50
                             1119.46  1187.37  1259.55  1263.51  1306.70
                             1392.36  1393.88  1396.78  1459.60  1461.63
                             1506.30  1522.91  1563.25  1578.45  1661.61
                             1662.15  1699.77  1710.07  1767.80  1850.04
                             1873.90  1966.23  1971.74  2010.57  2035.41
                             2134.00  2163.37  2208.04  2226.61  2284.87
                             2376.02  2416.26  2463.25  2498.82  4567.10
                             4587.25  4623.57  4630.29  4645.24  4646.59
                             4656.51  4669.43  5661.42

 Zero-point correction=                           0.189280 (Hartree/Particle)
 Thermal correction to Energy=                    0.200767
 Thermal correction to Enthalpy=                  0.201711
 Thermal correction to Gibbs Free Energy=         0.151133
 Sum of electronic and zero-point Energies=          -1028.601909
 Sum of electronic and thermal Energies=             -1028.590422
 Sum of electronic and thermal Enthalpies=           -1028.589478
 Sum of electronic and thermal Free Energies=        -1028.640056

                     E (Thermal)             CV                S
                      KCal/Mol        Cal/Mol-Kelvin    Cal/Mol-Kelvin
 Total                  125.983             47.251            106.451
 Electronic               0.000              0.000              0.000
 Translational            0.889              2.981             42.162
 Rotational               0.889              2.981             32.523
 Vibrational            124.206             41.290             31.766
 Vibration     1          0.595              1.978              4.838
 Vibration     2          0.600              1.962              3.876
 Vibration     3          0.607              1.941              3.255
 Vibration     4          0.631              1.861              2.279
 Vibration     5          0.649              1.804              1.922
 Vibration     6          0.671              1.737              1.627
 Vibration     7          0.685              1.696              1.484
 Vibration     8          0.710              1.623              1.278
 Vibration     9          0.750              1.513              1.039
 Vibration    10          0.752              1.508              1.031
 Vibration    11          0.797              1.391              0.838
 Vibration    12          0.802              1.379              0.821
 Vibration    13          0.854              1.253              0.662
 Vibration    14          0.881              1.192              0.596
 Vibration    15          0.892              1.167              0.571
 Vibration    16          0.907              1.137              0.541
 Vibration    17          0.918              1.114              0.520
 Vibration    18          0.940              1.067              0.479

 Optimization completed.
    -- Stationary point found.
 Normal termination of Gaussian 16 at Tue Oct 27 21:38:13 2020.
