 Gaussian 16, Revision C.01,
 Gaussian 16:  ES64L-G16RevC.01  3-Jul-2019

 ----------------------------------------------------------------------
 #p opt=addgic freq wb97xd/cc-pvdz nosymm int=ultrafine scrf=(solvent=C
 arbonTetraChloride)
 ----------------------------------------------------------------------

 ------------------------------------------------
 NM 2D-scan of HBT TD-WB97XD pVDZ in CTC Relaxed.
 ------------------------------------------------
 Symbolic Z-matrix:
 Charge =  0 Multiplicity = 1

 SCF Done:  E(RwB97XD) =  -1028.72288320     A.U. after   16 cycles
 SCF Done:  E(RwB97XD) =  -1028.78737864     A.U. after   14 cycles
 SCF Done:  E(RwB97XD) =  -1028.80416879     A.U. after   14 cycles
 SCF Done:  E(RwB97XD) =  -1028.80640716     A.U. after   12 cycles
 SCF Done:  E(RwB97XD) =  -1028.80647763     A.U. after   11 cycles
 SCF Done:  E(RwB97XD) =  -1028.80648303     A.U. after   10 cycles
 Optimization completed.
    -- Stationary point found.
 Normal termination of Gaussian 16 at Wed Oct 28 00:55:28 2020.

 --------------------------------------------------------------------
 #P Geom=AllCheck Guess=TCheck SCRF=Check GenChk RwB97XD/CC-pVDZ Freq
 --------------------------------------------------------------------

 Structure from the checkpoint file:  "config_10_18.chk"
 ------------------------------------------------
 NM 2D-scan of HBT TD-WB97XD pVDZ in CTC Relaxed.
 ------------------------------------------------
 Charge =  0 Multiplicity = 1

                          Input orientation:
 ---------------------------------------------------------------------
 Center     Atomic      Atomic             Coordinates (Angstroms)
 Number     Number       Type             X           Y           Z
 ---------------------------------------------------------------------
      1          6           0        1.533323   -3.275858   -0.000033
      2          6           0        0.997701   -1.994629   -0.000025
      3          6           0        1.801864   -0.856783   -0.000015
      4          6           0        3.192442   -0.979975   -0.000015
      5          6           0        3.733004   -2.266835   -0.000021
      6          6           0        2.917773   -3.404151   -0.000030
      7          1           0        0.883378   -4.150941   -0.000040
      8          1           0        3.834451   -0.098547   -0.000007
      9          1           0        4.817508   -2.383299   -0.000019
     10          1           0        3.368648   -4.396911   -0.000035
     11          7           0        1.018553    0.294953   -0.000007
     12         16           0       -0.701490   -1.560126   -0.000022
     13          6           0       -1.306222    1.135487    0.000023
     14          6           0       -2.680167    0.760238    0.000038
     15          6           0       -0.894005    2.533173    0.000014
     16          6           0       -3.674833    1.697541    0.000038
     17          1           0       -2.948235   -0.299890    0.000050
     18          6           0       -2.006880    3.482080    0.000023
     19          6           0       -3.314958    3.076927    0.000027
     20          1           0       -4.722895    1.397915    0.000049
     21          1           0       -1.748108    4.542827    0.000026
     22          1           0       -4.109023    3.828310    0.000026
     23          6           0       -0.319280    0.133994    0.000004
     24          8           0        0.308449    2.861560    0.000050
     25          1           0        1.424190    1.215949    0.000000
 ---------------------------------------------------------------------

 SCF Done:  E(RwB97XD) =  -1028.80648303     A.U. after    1 cycles

 Alpha  occ. eigenvalues --  -89.09644 -19.21265 -14.52500 -10.41395 -10.37361
 Alpha  occ. eigenvalues --  -10.35992 -10.35747 -10.33171 -10.33119 -10.32579
 Alpha  occ. eigenvalues --  -10.32278 -10.31090 -10.30734 -10.30254 -10.29135
 Alpha  occ. eigenvalues --  -10.28638  -8.11753  -6.06631  -6.06244  -6.05756
 Alpha  occ. eigenvalues --   -1.12864  -1.09870  -0.98625  -0.95620  -0.93282
 Alpha  occ. eigenvalues --   -0.89169  -0.86786  -0.83742  -0.81778  -0.75465
 Alpha  occ. eigenvalues --   -0.73695  -0.72135  -0.69201  -0.67904  -0.64767
 Alpha  occ. eigenvalues --   -0.60915  -0.59718  -0.56732  -0.55990  -0.55930
 Alpha  occ. eigenvalues --   -0.55020  -0.53921  -0.52973  -0.50028  -0.49491
 Alpha  occ. eigenvalues --   -0.48977  -0.48304  -0.46776  -0.45662  -0.44775
 Alpha  occ. eigenvalues --   -0.44478  -0.42842  -0.41915  -0.40377  -0.36873
 Alpha  occ. eigenvalues --   -0.33589  -0.31615  -0.31435  -0.26206
 Alpha virt. eigenvalues --   -0.01261   0.03802   0.05748   0.07124   0.09457
 Alpha virt. eigenvalues --    0.11322   0.14179   0.14805   0.16122   0.17218
 Alpha virt. eigenvalues --    0.18083   0.19802   0.20889   0.21539   0.22744

 Mulliken charges:
               1
     1  C    0.018360
     2  C   -0.230902
     3  C    0.230406
     4  C   -0.011936
     5  C    0.008723
     6  C    0.004973
     7  H    0.023626
     8  H    0.029814
     9  H    0.027175
    10  H    0.025878
    11  N   -0.127518
    12  S    0.179228
    13  C   -0.087195
    14  C   -0.020818
    15  C    0.093984
    16  C   -0.031655
    17  H    0.013846
    18  C   -0.035816
    19  C    0.028436
    20  H    0.001996
    21  H    0.002094
    22  H    0.013942
    23  C    0.087112
    24  O   -0.368684
    25  H    0.124930
 Sum of Mulliken charges =  -0.00000

 Dipole moment (field-independent basis, Debye):
    X=              2.0142    Y=             -5.4241    Z=             -0.0001  Tot=              5.7860
 Quadrupole moment (field-independent basis, Debye-Ang):
   XX=            -81.2107   YY=            -96.4985   ZZ=           -103.9753
   XY=             -6.4256   XZ=             -0.0001   YZ=             -0.0002

  Exact polarizability:     287.976     -89.393     286.792      -0.001       0.002      62.839
 Approx polarizability:     265.718     -33.299     254.951      -0.000       0.001      81.849

                      1                      2                      3
                      A                      A                      A
 Frequencies --     46.2610                59.4808               104.0412
 Red. masses --      4.7691                 5.9786                 5.8004
 Frc consts  --      0.0060                 0.0125                 0.0370
 IR Inten    --      1.6125                 1.0038                 1.4711

                      4                      5                      6
                      A                      A                      A
 Frequencies --    126.3660               193.7450               225.0878
 Red. masses --      5.5921                 6.1540                 5.7542
 Frc consts  --      0.0526                 0.1361                 0.1718
 IR Inten    --      1.5330                 0.0195                 0.9368

                      7                      8                      9
                      A                      A                      A
 Frequencies --    263.4398               294.3338               307.5089
 Red. masses --      8.0994                 6.8970                 5.2648
 Frc consts  --      0.3312                 0.3520                 0.2933
 IR Inten    --      6.4985                 1.3939                 1.1643

                     10                     11                     12
                      A                      A                      A
 Frequencies --    400.0045               426.3442               445.7273
 Red. masses --      8.3020                 3.3134                 3.4734
 Frc consts  --      0.7826                 0.3549                 0.4066
 IR Inten    --      3.9970                 0.0567                10.3136

                     13                     14                     15
                      A                      A                      A
 Frequencies --    509.7180               519.6485               531.4146
 Red. masses --      8.2973                 2.6290                 6.8733
 Frc consts  --      1.2701                 0.4183                 1.1436
 IR Inten    --     10.8261                 8.0088                 5.3789

                     16                     17                     18
                      A                      A                      A
 Frequencies --    546.1419               561.5393               581.4091
 Red. masses --      7.3477                 3.7907                 7.3004
 Frc consts  --      1.2912                 0.7043                 1.4540
 IR Inten    --     13.5395                 0.3935                38.7649

                     19                     20                     21
                      A                      A                      A
 Frequencies --    610.3324               655.0079               655.8202
 Red. masses --      1.6370                 6.1542                 2.1401
 Frc consts  --      0.3593                 1.5557                 0.5423
 IR Inten    --     35.2916                 2.7631                43.9338

                     22                     23                     24
                      A                      A                      A
 Frequencies --    719.6897               741.3831               752.2162
 Red. masses --      5.6752                 7.4578                 2.6107
 Frc consts  --      1.7319                 2.4151                 0.8703
 IR Inten    --     64.6726                53.2017                18.0817

                     25                     26                     27
                      A                      A                      A
 Frequencies --    757.8669               774.5506               779.7395
 Red. masses --      1.4209                 1.5649                 2.4787
 Frc consts  --      0.4808                 0.5531                 0.8879
 IR Inten    --     45.1357                45.8471                17.4137

                     28                     29                     30
                      A                      A                      A
 Frequencies --    834.2387               876.6774               878.6745
 Red. masses --      6.2554                 2.0827                 4.6881
 Frc consts  --      2.5650                 0.9431                 2.1326
 IR Inten    --     18.0451                17.5734                 1.1792

                     31                     32                     33
                      A                      A                      A
 Frequencies --    883.5521               963.6510               968.2100
 Red. masses --      1.3703                 1.3247                 4.3900
 Frc consts  --      0.6303                 0.7248                 2.4247
 IR Inten    --      0.6130                 0.0698                31.0533

                     34                     35                     36
                      A                      A                      A
 Frequencies --    970.0248              1012.9967              1018.6370
 Red. masses --      1.3603                 1.3030                 1.3078
 Frc consts  --      0.7541                 0.7878                 0.7995
 IR Inten    --      1.5889                 0.0097                 0.3608

                     37                     38                     39
                      A                      A                      A
 Frequencies --   1039.2625              1058.5904              1097.3252
 Red. masses --      2.1324                 2.0871                 3.3305
 Frc consts  --      1.3570                 1.3780                 2.3628
 IR Inten    --     14.7684                11.7895                17.6347

                     40                     41                     42
                      A                      A                      A
 Frequencies --   1134.1786              1162.0830              1164.9968
 Red. masses --      1.9086                 1.2246                 1.3642
 Frc consts  --      1.4466                 0.9744                 1.0909
 IR Inten    --     49.1078                51.8771                34.5264

                     43                     44                     45
                      A                      A                      A
 Frequencies --   1180.0052              1198.9717              1242.8048
 Red. masses --      1.1477                 1.2521                 2.0407
 Frc consts  --      0.9416                 1.0605                 1.8571
 IR Inten    --     19.5978                20.9168                10.4805

                     46                     47                     48
                      A                      A                      A
 Frequencies --   1283.2659              1296.5189              1351.6495
 Red. masses --      2.2202                 2.0132                 2.6680
 Frc consts  --      2.1541                 1.9939                 2.8718
 IR Inten    --     76.8931               105.7167                17.7487

                     49                     50                     51
                      A                      A                      A
 Frequencies --   1384.7964              1399.3395              1412.9309
 Red. masses --      5.8185                 5.1117                 2.2041
 Frc consts  --      6.5741                 5.8974                 2.5925
 IR Inten    --    160.5872                59.4145                 4.5981

                     52                     53                     54
                      A                      A                      A
 Frequencies --   1492.1056              1506.5605              1522.7715
 Red. masses --      2.7056                 2.9046                 3.0870
 Frc consts  --      3.5490                 3.8843                 4.2175
 IR Inten    --      9.1090               328.5947                 4.7194

                     55                     56                     57
                      A                      A                      A
 Frequencies --   1554.4490              1601.8155              1654.3071
 Red. masses --      4.8018                 7.0231                 6.9170
 Frc consts  --      6.8361                10.6171                11.1533
 IR Inten    --   2073.5401               109.0299               118.6878

                     58                     59                     60
                      A                      A                      A
 Frequencies --   1679.9465              1681.7816              1722.5902
 Red. masses --      7.4355                 7.1089                 8.0241
 Frc consts  --     12.3637                11.8466                14.0285
 IR Inten    --     23.4367                59.4139               437.6935

                     61                     62                     63
                      A                      A                      A
 Frequencies --   3188.3553              3193.8191              3214.6250
 Red. masses --      1.0877                 1.0883                 1.0864
 Frc consts  --      6.5148                 6.5407                 6.6145
 IR Inten    --      2.6106                13.3099                 1.2385

                     64                     65                     66
                      A                      A                      A
 Frequencies --   3216.6940              3224.4181              3232.6035
 Red. masses --      1.0952                 1.0906                 1.0961
 Frc consts  --      6.6767                 6.6806                 6.7482
 IR Inten    --     32.7137                 2.1060                 5.0964

                     67                     68                     69
                      A                      A                      A
 Frequencies --   3233.0825              3240.4918              3692.9056
 Red. masses --      1.0974                 1.1000                 1.0805
 Frc consts  --      6.7584                 6.8053                 8.6817
 IR Inten    --     18.0453                11.9976               128.4064

 - Thermochemistry -
 -------------------
 Temperature   298.150 Kelvin.  Pressure   1.00000 Atm.
 Atom     1 has atomic number  6 and mass  12.00000

 Molecular mass:   227.04049 amu.
 Principal axes and moments of inertia in atomic units:
                           1         2         3
     Eigenvalues --  1275.447116397.727727673.17483
           X           -0.70303   0.71116   0.00000
           Y            0.71116   0.70303  -0.00001
           Z            0.00001   0.00001   1.00000
 This molecule is an asymmetric top.
 Rotational symmetry number  1.
 Warning -- assumption of classical behavior for rotation
           may cause significant error
 Rotational temperatures (Kelvin)      0.06791     0.01354     0.01129
 Rotational constants (GHZ):           1.41499     0.28209     0.23520
 Zero-point vibrational energy     497978.6 (Joules/Mol)
                                  119.01974 (Kcal/Mol)
 Warning -- explicit consideration of  19 degrees of freedom as
           vibrations may cause significant error
 Vibrational temperatures:     66.56    85.58   149.69   181.81   278.76
          (Kelvin)            323.85   379.03   423.48   442.44   575.52
                              613.41   641.30   733.37   747.66   764.59
                              785.78   807.93   836.52   878.13   942.41
                              943.58  1035.47  1066.68  1082.27  1090.40
                             1114.41  1121.87  1200.28  1261.34  1264.22
                             1271.23  1386.48  1393.04  1395.65  1457.48
                             1465.59  1495.27  1523.08  1578.81  1631.83
                             1671.98  1676.17  1697.76  1725.05  1788.12
                             1846.33  1865.40  1944.72  1992.41  2013.34
                             2032.89  2146.81  2167.60  2190.93  2236.51
                             2304.66  2380.18  2417.07  2419.71  2478.42
                             4587.33  4595.19  4625.13  4628.11  4639.22
                             4651.00  4651.68  4662.35  5313.27

 Zero-point correction=                           0.189670 (Hartree/Particle)
 Thermal correction to Energy=                    0.201703
 Thermal correction to Enthalpy=                  0.202647
 Thermal correction to Gibbs Free Energy=         0.150589
 Sum of electronic and zero-point Energies=          -1028.616813
 Sum of electronic and thermal Energies=             -1028.604780
 Sum of electronic and thermal Enthalpies=           -1028.603836
 Sum of electronic and thermal Free Energies=        -1028.655894

                     E (Thermal)             CV                S
                      KCal/Mol        Cal/Mol-Kelvin    Cal/Mol-Kelvin
 Total                  126.570             48.581            109.566
 Electronic               0.000              0.000              0.000
 Translational            0.889              2.981             42.162
 Rotational               0.889              2.981             32.504
 Vibrational            124.793             42.619             34.900
 Vibration     1          0.595              1.979              4.971
 Vibration     2          0.597              1.974              4.474
 Vibration     3          0.605              1.946              3.377
 Vibration     4          0.611              1.927              3.001
 Vibration     5          0.635              1.849              2.192
 Vibration     6          0.650              1.803              1.918
 Vibration     7          0.670              1.740              1.639
 Vibration     8          0.689              1.684              1.449
 Vibration     9          0.697              1.659              1.376
 Vibration    10          0.766              1.470              0.963
 Vibration    11          0.788              1.413              0.871
 Vibration    12          0.805              1.370              0.809
 Vibration    13          0.865              1.228              0.634
 Vibration    14          0.875              1.206              0.611
 Vibration    15          0.886              1.181              0.584
 Vibration    16          0.901              1.148              0.552
 Vibration    17          0.917              1.115              0.521
 Vibration    18          0.938              1.072              0.483
 Vibration    19          0.969              1.010              0.432

 Optimization completed.
    -- Stationary point found.
 Normal termination of Gaussian 16 at Wed Oct 28 01:01:30 2020.
