 Gaussian 16, Revision C.01,
 Gaussian 16:  ES64L-G16RevC.01  3-Jul-2019

 ----------------------------------------------------------------------
 #p opt=addgic freq wb97xd/cc-pvdz nosymm int=ultrafine scrf=(solvent=C
 arbonTetraChloride)
 ----------------------------------------------------------------------

 ------------------------------------------------
 NM 2D-scan of HBT TD-WB97XD pVDZ in CTC Relaxed.
 ------------------------------------------------
 Symbolic Z-matrix:
 Charge =  0 Multiplicity = 1

 SCF Done:  E(RwB97XD) =  -1028.79019930     A.U. after   15 cycles
 SCF Done:  E(RwB97XD) =  -1028.82363935     A.U. after   13 cycles
 SCF Done:  E(RwB97XD) =  -1028.82632072     A.U. after   13 cycles
 SCF Done:  E(RwB97XD) =  -1028.82656331     A.U. after   11 cycles
 SCF Done:  E(RwB97XD) =  -1028.82658146     A.U. after   10 cycles
 SCF Done:  E(RwB97XD) =  -1028.82658671     A.U. after    9 cycles
 Optimization completed.
    -- Stationary point found.
 Normal termination of Gaussian 16 at Wed Oct 28 01:39:32 2020.

 --------------------------------------------------------------------
 #P Geom=AllCheck Guess=TCheck SCRF=Check GenChk RwB97XD/CC-pVDZ Freq
 --------------------------------------------------------------------

 Structure from the checkpoint file:  "config_2_20.chk"
 ------------------------------------------------
 NM 2D-scan of HBT TD-WB97XD pVDZ in CTC Relaxed.
 ------------------------------------------------
 Charge =  0 Multiplicity = 1

                          Input orientation:
 ---------------------------------------------------------------------
 Center     Atomic      Atomic             Coordinates (Angstroms)
 Number     Number       Type             X           Y           Z
 ---------------------------------------------------------------------
      1          6           0        1.501865   -3.277468   -0.000052
      2          6           0        0.992090   -1.981433   -0.000025
      3          6           0        1.799052   -0.828303   -0.000011
      4          6           0        3.192704   -1.002496   -0.000029
      5          6           0        3.710914   -2.296023   -0.000053
      6          6           0        2.879248   -3.427632   -0.000064
      7          1           0        0.833609   -4.139081   -0.000062
      8          1           0        3.853799   -0.134947   -0.000019
      9          1           0        4.793554   -2.432279   -0.000064
     10          1           0        3.317672   -4.426525   -0.000083
     11          7           0        1.070168    0.366955    0.000031
     12         16           0       -0.683567   -1.541678   -0.000006
     13          6           0       -1.275999    1.138972    0.000086
     14          6           0       -2.620504    0.738080    0.000103
     15          6           0       -0.943389    2.508031    0.000043
     16          6           0       -3.645990    1.665743    0.000041
     17          1           0       -2.869604   -0.324603    0.000151
     18          6           0       -1.992869    3.447561   -0.000040
     19          6           0       -3.318520    3.026555   -0.000043
     20          1           0       -4.685799    1.339024    0.000047
     21          1           0       -1.741825    4.509052   -0.000085
     22          1           0       -4.113441    3.774957   -0.000100
     23          6           0       -0.218077    0.135998    0.000062
     24          8           0        0.332136    2.897101    0.000097
     25          1           0        0.901123    2.074518    0.000201
 ---------------------------------------------------------------------

 SCF Done:  E(RwB97XD) =  -1028.82658671     A.U. after    1 cycles

 Alpha  occ. eigenvalues --  -89.08234 -19.28433 -14.47272 -10.39239 -10.37491
 Alpha  occ. eigenvalues --  -10.35170 -10.34471 -10.32120 -10.32095 -10.31868
 Alpha  occ. eigenvalues --  -10.31802 -10.31586 -10.31535 -10.31460 -10.30454
 Alpha  occ. eigenvalues --  -10.30363  -8.10406  -6.05243  -6.04884  -6.04459
 Alpha  occ. eigenvalues --   -1.16631  -1.08711  -0.97356  -0.96376  -0.91909
 Alpha  occ. eigenvalues --   -0.88586  -0.85549  -0.84740  -0.82807  -0.75464
 Alpha  occ. eigenvalues --   -0.71685  -0.70718  -0.69380  -0.68040  -0.63354
 Alpha  occ. eigenvalues --   -0.60555  -0.58868  -0.58565  -0.56604  -0.54590
 Alpha  occ. eigenvalues --   -0.54063  -0.53325  -0.53014  -0.50731  -0.50493
 Alpha  occ. eigenvalues --   -0.49104  -0.47494  -0.45949  -0.45541  -0.45071
 Alpha  occ. eigenvalues --   -0.44106  -0.43101  -0.42360  -0.39731  -0.37430
 Alpha  occ. eigenvalues --   -0.36226  -0.32047  -0.31732  -0.29294
 Alpha virt. eigenvalues --   -0.00467   0.04892   0.06717   0.07048   0.08287
 Alpha virt. eigenvalues --    0.11407   0.14571   0.15296   0.17370   0.18116
 Alpha virt. eigenvalues --    0.18951   0.20977   0.21473   0.22550   0.22743

 Mulliken charges:
               1
     1  C    0.017420
     2  C   -0.204763
     3  C    0.204079
     4  C   -0.020853
     5  C    0.001988
     6  C    0.002891
     7  H    0.017526
     8  H    0.019143
     9  H    0.019814
    10  H    0.021079
    11  N   -0.358740
    12  S    0.144860
    13  C   -0.035863
    14  C   -0.036047
    15  C    0.064061
    16  C   -0.003468
    17  H    0.025724
    18  C    0.003188
    19  C    0.021574
    20  H    0.010112
    21  H    0.018113
    22  H    0.019599
    23  C    0.087803
    24  O   -0.206185
    25  H    0.166944
 Sum of Mulliken charges =  -0.00000

 Dipole moment (field-independent basis, Debye):
    X=             -0.3612    Y=             -2.5648    Z=              0.0000  Tot=              2.5901
 Quadrupole moment (field-independent basis, Debye-Ang):
   XX=            -82.7012   YY=            -90.2172   ZZ=           -104.0324
   XY=             -7.2562   XZ=              0.0001   YZ=             -0.0000

  Exact polarizability:     272.401     -67.328     253.274      -0.001       0.000      62.844
 Approx polarizability:     260.854     -22.799     241.527      -0.000      -0.000      82.130

 ******    1 imaginary frequencies (negative Signs) ******

                      1                      2                      3
                      A                      A                      A
 Frequencies --    -13.6904                63.9689               126.7582
 Red. masses --      5.5555                 5.7231                 5.6732
 Frc consts  --      0.0006                 0.0138                 0.0537
 IR Inten    --      0.0545                 1.1035                 1.6541

                      4                      5                      6
                      A                      A                      A
 Frequencies --    150.8397               197.3209               246.2687
 Red. masses --      5.0072                 6.1013                 5.5066
 Frc consts  --      0.0671                 0.1400                 0.1968
 IR Inten    --      0.0487                 0.8742                 0.0070

                      7                      8                      9
                      A                      A                      A
 Frequencies --    276.0185               308.3657               330.9986
 Red. masses --      7.7633                 6.3166                 5.0593
 Frc consts  --      0.3485                 0.3539                 0.3266
 IR Inten    --      1.6063                 7.7651                 0.0192

                     10                     11                     12
                      A                      A                      A
 Frequencies --    420.5531               437.8647               467.2613
 Red. masses --      9.5445                 3.0958                 3.6205
 Frc consts  --      0.9946                 0.3497                 0.4657
 IR Inten    --      0.2378                 1.6458                 8.0931

                     13                     14                     15
                      A                      A                      A
 Frequencies --    516.6233               519.6756               536.0993
 Red. masses --      6.1219                 7.1541                 3.4444
 Frc consts  --      0.9627                 1.1383                 0.5832
 IR Inten    --      5.1756                 4.6520                 3.6923

                     16                     17                     18
                      A                      A                      A
 Frequencies --    553.9228               577.3288               589.9466
 Red. masses --      7.6400                 3.7654                 7.7060
 Frc consts  --      1.3812                 0.7394                 1.5802
 IR Inten    --      1.6823                 0.0228                 5.1311

                     19                     20                     21
                      A                      A                      A
 Frequencies --    646.9629               677.7311               736.6074
 Red. masses --      6.0839                 6.7399                 6.4795
 Frc consts  --      1.5004                 1.8240                 2.0714
 IR Inten    --      0.0158                 2.8838                17.5518

                     22                     23                     24
                      A                      A                      A
 Frequencies --    750.1584               757.0942               763.8834
 Red. masses --     10.1156                 1.9187                 3.2901
 Frc consts  --      3.3539                 0.6480                 1.1311
 IR Inten    --     17.9566                33.0923                 0.2108

                     25                     26                     27
                      A                      A                      A
 Frequencies --    773.8145               787.1868               850.1013
 Red. masses --      1.3111                 1.9933                 5.9350
 Frc consts  --      0.4625                 0.7277                 2.5270
 IR Inten    --     61.9848                38.3389                16.5407

                     28                     29                     30
                      A                      A                      A
 Frequencies --    859.9709               881.5841               885.2499
 Red. masses --      1.1152                 1.5415                 6.5927
 Frc consts  --      0.4859                 0.7059                 3.0440
 IR Inten    --     79.6229                 3.0199                 4.9469

                     31                     32                     33
                      A                      A                      A
 Frequencies --    887.8119               967.1232               975.8993
 Red. masses --      1.4158                 1.3670                 1.3678
 Frc consts  --      0.6575                 0.7533                 0.7675
 IR Inten    --      1.4405                 0.9660                 1.6253

                     34                     35                     36
                      A                      A                      A
 Frequencies --   1004.2547              1011.3050              1015.4894
 Red. masses --      7.7850                 1.3051                 1.3056
 Frc consts  --      4.6259                 0.7864                 0.7933
 IR Inten    --     46.2344                 0.4841                 0.0241

                     37                     38                     39
                      A                      A                      A
 Frequencies --   1051.6493              1070.7316              1110.0656
 Red. masses --      1.9944                 1.8988                 3.2046
 Frc consts  --      1.2996                 1.2826                 2.3266
 IR Inten    --      8.7447                 9.3556                 5.4078

                     40                     41                     42
                      A                      A                      A
 Frequencies --   1156.1292              1160.5498              1177.7311
 Red. masses --      1.4227                 1.3852                 1.1621
 Frc consts  --      1.1204                 1.0992                 0.9497
 IR Inten    --      5.1294                 3.1077                37.9315

                     43                     44                     45
                      A                      A                      A
 Frequencies --   1185.1895              1253.7695              1273.8890
 Red. masses --      1.3079                 2.0202                 3.2028
 Frc consts  --      1.0824                 1.8710                 3.0623
 IR Inten    --      0.8552                98.5820               101.5362

                     46                     47                     48
                      A                      A                      A
 Frequencies --   1286.9119              1311.8194              1349.4094
 Red. masses --      1.6984                 2.1925                 3.7364
 Frc consts  --      1.6572                 2.2230                 4.0086
 IR Inten    --     44.1412                23.2513                33.3269

                     49                     50                     51
                      A                      A                      A
 Frequencies --   1370.7371              1379.1186              1469.5934
 Red. masses --      7.2866                 5.2074                 2.1026
 Frc consts  --      8.0665                 5.8355                 2.6755
 IR Inten    --     13.0634                12.5092                17.2595

                     52                     53                     54
                      A                      A                      A
 Frequencies --   1486.3034              1503.3833              1540.2627
 Red. masses --      2.5377                 2.8546                 3.4783
 Frc consts  --      3.3030                 3.8013                 4.8619
 IR Inten    --     50.8079                18.5836                92.7189

                     55                     56                     57
                      A                      A                      A
 Frequencies --   1559.6480              1589.3082              1646.2423
 Red. masses --      2.0872                 5.3174                 6.8128
 Frc consts  --      2.9913                 7.9135                10.8784
 IR Inten    --    187.2075               133.5790                 4.4206

                     58                     59                     60
                      A                      A                      A
 Frequencies --   1675.4872              1680.1354              1706.4271
 Red. masses --      5.2441                 5.5249                 4.7887
 Frc consts  --      8.6737                 9.1889                 8.2157
 IR Inten    --     83.7853                71.1313               124.7037

                     61                     62                     63
                      A                      A                      A
 Frequencies --   3173.8751              3208.3176              3208.9642
 Red. masses --      1.0703                 1.0860                 1.0859
 Frc consts  --      6.3525                 6.5863                 6.5883
 IR Inten    --    879.4775                 1.0981                 4.0909

                     64                     65                     66
                      A                      A                      A
 Frequencies --   3214.6939              3218.3612              3227.8140
 Red. masses --      1.0902                 1.0903                 1.0959
 Frc consts  --      6.6383                 6.6537                 6.7275
 IR Inten    --     11.7915                 2.3675                10.2106

                     67                     68                     69
                      A                      A                      A
 Frequencies --   3228.9264              3235.0856              3239.5709
 Red. masses --      1.0945                 1.1000                 1.0993
 Frc consts  --      6.7234                 6.7827                 6.7972
 IR Inten    --     12.9845                15.3201                11.7485

 - Thermochemistry -
 -------------------
 Temperature   298.150 Kelvin.  Pressure   1.00000 Atm.
 Atom     1 has atomic number  6 and mass  12.00000

 Molecular mass:   227.04049 amu.
 Principal axes and moments of inertia in atomic units:
                           1         2         3
     Eigenvalues --  1277.780996334.769377612.55035
           X           -0.69980   0.71434   0.00000
           Y            0.71434   0.69980  -0.00001
           Z            0.00001   0.00000   1.00000
 This molecule is an asymmetric top.
 Rotational symmetry number  1.
 Warning -- assumption of classical behavior for rotation
           may cause significant error
 Rotational temperatures (Kelvin)      0.06778     0.01367     0.01138
 Rotational constants (GHZ):           1.41240     0.28489     0.23707
    1 imaginary frequencies ignored.
 Zero-point vibrational energy     499453.7 (Joules/Mol)
                                  119.37231 (Kcal/Mol)
 Warning -- explicit consideration of  17 degrees of freedom as
           vibrations may cause significant error
 Vibrational temperatures:     92.04   182.38   217.02   283.90   354.33
          (Kelvin)            397.13   443.67   476.23   605.08   629.99
                              672.28   743.31   747.70   771.33   796.97
                              830.65   848.80   930.84   975.10  1059.81
                             1079.31  1089.29  1099.06  1113.35  1132.59
                             1223.11  1237.31  1268.40  1273.68  1277.36
                             1391.47  1404.10  1444.90  1455.04  1461.06
                             1513.09  1540.54  1597.14  1663.41  1669.77
                             1694.49  1705.22  1803.89  1832.84  1851.58
                             1887.42  1941.50  1972.19  1984.24  2114.42
                             2138.46  2163.03  2216.09  2243.99  2286.66
                             2368.58  2410.65  2417.34  2455.17  4566.50
                             4616.05  4616.98  4625.23  4630.50  4644.10
                             4645.70  4654.57  4661.02

 Zero-point correction=                           0.190232 (Hartree/Particle)
 Thermal correction to Energy=                    0.201014
 Thermal correction to Enthalpy=                  0.201958
 Thermal correction to Gibbs Free Energy=         0.153220
 Sum of electronic and zero-point Energies=          -1028.636355
 Sum of electronic and thermal Energies=             -1028.625573
 Sum of electronic and thermal Enthalpies=           -1028.624629
 Sum of electronic and thermal Free Energies=        -1028.673367

                     E (Thermal)             CV                S
                      KCal/Mol        Cal/Mol-Kelvin    Cal/Mol-Kelvin
 Total                  126.138             45.436            102.579
 Electronic               0.000              0.000              0.000
 Translational            0.889              2.981             42.162
 Rotational               0.889              2.981             32.488
 Vibrational            124.361             39.474             27.928
 Vibration     1          0.597              1.971              4.331
 Vibration     2          0.611              1.926              2.995
 Vibration     3          0.618              1.902              2.662
 Vibration     4          0.637              1.844              2.158
 Vibration     5          0.661              1.769              1.757
 Vibration     6          0.678              1.718              1.558
 Vibration     7          0.698              1.658              1.371
 Vibration     8          0.713              1.614              1.255
 Vibration     9          0.783              1.426              0.890
 Vibration    10          0.798              1.388              0.833
 Vibration    11          0.825              1.323              0.745
 Vibration    12          0.872              1.213              0.618
 Vibration    13          0.875              1.206              0.611
 Vibration    14          0.891              1.170              0.574
 Vibration    15          0.909              1.131              0.536
 Vibration    16          0.934              1.080              0.490
 Vibration    17          0.947              1.053              0.467

 Optimization completed.
    -- Stationary point found.
 Normal termination of Gaussian 16 at Wed Oct 28 01:45:32 2020.
