 Gaussian 16, Revision C.01,
 Gaussian 16:  ES64L-G16RevC.01  3-Jul-2019

 ----------------------------------------------------------------------
 #p opt=addgic freq wb97xd/cc-pvdz nosymm int=ultrafine scrf=(solvent=C
 arbonTetraChloride)
 ----------------------------------------------------------------------

 ------------------------------------------------
 NM 2D-scan of HBT TD-WB97XD pVDZ in CTC Relaxed.
 ------------------------------------------------
 Symbolic Z-matrix:
 Charge =  0 Multiplicity = 1

 SCF Done:  E(RwB97XD) =  -1028.69288066     A.U. after   16 cycles
 SCF Done:  E(RwB97XD) =  -1028.78137304     A.U. after   14 cycles
 SCF Done:  E(RwB97XD) =  -1028.79562389     A.U. after   14 cycles
 SCF Done:  E(RwB97XD) =  -1028.80300894     A.U. after   13 cycles
 SCF Done:  E(RwB97XD) =  -1028.80334533     A.U. after   12 cycles
 SCF Done:  E(RwB97XD) =  -1028.80340465     A.U. after   10 cycles
 SCF Done:  E(RwB97XD) =  -1028.80340571     A.U. after    9 cycles
 Optimization completed.
    -- Stationary point found.
 Normal termination of Gaussian 16 at Tue Oct 27 22:57:11 2020.

 --------------------------------------------------------------------
 #P Geom=AllCheck Guess=TCheck SCRF=Check GenChk RwB97XD/CC-pVDZ Freq
 --------------------------------------------------------------------

 Structure from the checkpoint file:  "config_11_10.chk"
 ------------------------------------------------
 NM 2D-scan of HBT TD-WB97XD pVDZ in CTC Relaxed.
 ------------------------------------------------
 Charge =  0 Multiplicity = 1

                          Input orientation:
 ---------------------------------------------------------------------
 Center     Atomic      Atomic             Coordinates (Angstroms)
 Number     Number       Type             X           Y           Z
 ---------------------------------------------------------------------
      1          6           0        1.646510   -3.277965   -0.000021
      2          6           0        1.007735   -2.043153   -0.000012
      3          6           0        1.743498   -0.869548   -0.000012
      4          6           0        3.137271   -0.870016   -0.000016
      5          6           0        3.775275   -2.107632   -0.000022
      6          6           0        3.039398   -3.297228   -0.000026
      7          1           0        1.074506   -4.205606   -0.000025
      8          1           0        3.699762    0.064227   -0.000014
      9          1           0        4.865232   -2.145771   -0.000025
     10          1           0        3.560589   -4.254930   -0.000033
     11          7           0        0.901941    0.224252   -0.000014
     12         16           0       -0.726717   -1.674518   -0.000003
     13          6           0       -1.375817    1.095069    0.000006
     14          6           0       -2.771572    0.841426    0.000001
     15          6           0       -0.849421    2.461986    0.000031
     16          6           0       -3.688240    1.865202    0.000025
     17          1           0       -3.123374   -0.194697   -0.000021
     18          6           0       -1.881565    3.498620    0.000056
     19          6           0       -3.220748    3.207934    0.000054
     20          1           0       -4.757251    1.651321    0.000021
     21          1           0       -1.530971    4.532663    0.000075
     22          1           0       -3.949942    4.022421    0.000073
     23          6           0       -0.429465    0.041984   -0.000006
     24          8           0        0.371220    2.697979    0.000020
     25          1           0        1.343317    1.115440   -0.000027
 ---------------------------------------------------------------------

 SCF Done:  E(RwB97XD) =  -1028.80340571     A.U. after    1 cycles

 Alpha  occ. eigenvalues --  -89.09988 -19.21259 -14.51846 -10.41609 -10.36955
 Alpha  occ. eigenvalues --  -10.36054 -10.35862 -10.33322 -10.33051 -10.32631
 Alpha  occ. eigenvalues --  -10.32308 -10.31124 -10.30645 -10.30493 -10.29079
 Alpha  occ. eigenvalues --  -10.28553  -8.12018  -6.06907  -6.06514  -6.06022
 Alpha  occ. eigenvalues --   -1.13254  -1.10123  -0.98640  -0.95307  -0.93262
 Alpha  occ. eigenvalues --   -0.89243  -0.86603  -0.83979  -0.81664  -0.75592
 Alpha  occ. eigenvalues --   -0.73915  -0.71823  -0.69404  -0.67856  -0.64573
 Alpha  occ. eigenvalues --   -0.60913  -0.59785  -0.56649  -0.56025  -0.55965
 Alpha  occ. eigenvalues --   -0.55027  -0.53660  -0.52985  -0.50330  -0.49467
 Alpha  occ. eigenvalues --   -0.49021  -0.48258  -0.46727  -0.45642  -0.44728
 Alpha  occ. eigenvalues --   -0.44544  -0.42933  -0.41808  -0.40414  -0.36897
 Alpha  occ. eigenvalues --   -0.33599  -0.31680  -0.31411  -0.26178
 Alpha virt. eigenvalues --   -0.01294   0.03749   0.05994   0.06854   0.09495
 Alpha virt. eigenvalues --    0.11240   0.13315   0.14633   0.15981   0.17037
 Alpha virt. eigenvalues --    0.18453   0.19857   0.21085   0.21620   0.23062

 Mulliken charges:
               1
     1  C    0.012951
     2  C   -0.243904
     3  C    0.231444
     4  C   -0.011208
     5  C    0.011713
     6  C    0.003218
     7  H    0.024583
     8  H    0.031419
     9  H    0.027571
    10  H    0.026043
    11  N   -0.097027
    12  S    0.179650
    13  C   -0.112811
    14  C   -0.009982
    15  C    0.106845
    16  C   -0.034406
    17  H    0.005149
    18  C   -0.036211
    19  C    0.028308
    20  H    0.002319
    21  H    0.001155
    22  H    0.013596
    23  C    0.094056
    24  O   -0.372763
    25  H    0.118290
 Sum of Mulliken charges =  -0.00000

 Dipole moment (field-independent basis, Debye):
    X=              2.0494    Y=             -5.2406    Z=             -0.0001  Tot=              5.6270
 Quadrupole moment (field-independent basis, Debye-Ang):
   XX=            -81.6250   YY=            -95.2694   ZZ=           -104.0041
   XY=             -6.6683   XZ=             -0.0002   YZ=              0.0001

  Exact polarizability:     289.835     -89.941     287.864      -0.002       0.002      62.930
 Approx polarizability:     267.607     -34.933     255.281      -0.001       0.002      81.937

                      1                      2                      3
                      A                      A                      A
 Frequencies --     31.0043                64.7822               109.9165
 Red. masses --      4.6602                 6.5526                 5.6675
 Frc consts  --      0.0026                 0.0162                 0.0403
 IR Inten    --      1.1943                 1.9854                 0.8845

                      4                      5                      6
                      A                      A                      A
 Frequencies --    118.1184               192.6682               228.6448
 Red. masses --      5.3007                 5.9060                 5.8600
 Frc consts  --      0.0436                 0.1292                 0.1805
 IR Inten    --      0.3057                 0.0462                 1.3868

                      7                      8                      9
                      A                      A                      A
 Frequencies --    267.5990               305.2064               310.1900
 Red. masses --      7.5591                 4.9885                 6.9914
 Frc consts  --      0.3189                 0.2738                 0.3963
 IR Inten    --      4.2678                 3.0175                 4.1162

                     10                     11                     12
                      A                      A                      A
 Frequencies --    389.0415               425.1695               443.7448
 Red. masses --      8.3754                 3.2329                 3.5093
 Frc consts  --      0.7469                 0.3443                 0.4071
 IR Inten    --      5.2241                 2.2949                11.1407

                     13                     14                     15
                      A                      A                      A
 Frequencies --    503.3668               518.3678               536.1880
 Red. masses --      7.9601                 2.0463                 8.1754
 Frc consts  --      1.1883                 0.3240                 1.3848
 IR Inten    --      9.5860                33.7817                 9.2952

                     16                     17                     18
                      A                      A                      A
 Frequencies --    542.6304               549.1995               561.9900
 Red. masses --      1.2971                 6.7108                 3.7894
 Frc consts  --      0.2250                 1.1926                 0.7051
 IR Inten    --     35.2070                 4.1981                 0.0338

                     19                     20                     21
                      A                      A                      A
 Frequencies --    582.4383               638.3389               659.3115
 Red. masses --      7.2887                 6.0276                 6.0109
 Frc consts  --      1.4568                 1.4471                 1.5395
 IR Inten    --     38.0149                 5.8079                 4.6162

                     22                     23                     24
                      A                      A                      A
 Frequencies --    704.9674               740.1793               751.7958
 Red. masses --      5.7888                 7.5495                 2.7494
 Frc consts  --      1.6950                 2.4369                 0.9156
 IR Inten    --     50.7085                47.9400                 9.6802

                     25                     26                     27
                      A                      A                      A
 Frequencies --    759.9767               775.9294               780.1368
 Red. masses --      1.4292                 1.5323                 2.4350
 Frc consts  --      0.4864                 0.5436                 0.8731
 IR Inten    --     47.2750                46.7702                26.8574

                     28                     29                     30
                      A                      A                      A
 Frequencies --    830.7899               876.5380               882.4463
 Red. masses --      6.2377                 2.0181                 1.3728
 Frc consts  --      2.5366                 0.9136                 0.6299
 IR Inten    --     22.5346                15.2926                 1.0105

                     31                     32                     33
                      A                      A                      A
 Frequencies --    894.7972               963.6777               967.8308
 Red. masses --      4.9650                 3.9599                 1.3217
 Frc consts  --      2.3422                 2.1667                 0.7294
 IR Inten    --      0.8192                34.2031                 0.1456

                     34                     35                     36
                      A                      A                      A
 Frequencies --    971.1598              1014.6285              1016.8510
 Red. masses --      1.3579                 1.3019                 1.3058
 Frc consts  --      0.7546                 0.7897                 0.7955
 IR Inten    --      1.4737                 0.0106                 0.3467

                     37                     38                     39
                      A                      A                      A
 Frequencies --   1043.5283              1057.2489              1088.1488
 Red. masses --      2.1259                 2.0760                 3.1443
 Frc consts  --      1.3640                 1.3672                 2.1936
 IR Inten    --      9.7796                12.8767                28.6190

                     40                     41                     42
                      A                      A                      A
 Frequencies --   1110.2420              1156.4272              1158.9956
 Red. masses --      2.1860                 1.3393                 1.2209
 Frc consts  --      1.5876                 1.0553                 0.9662
 IR Inten    --     52.3905                 0.4441                63.5744

                     43                     44                     45
                      A                      A                      A
 Frequencies --   1182.5887              1192.3082              1238.2285
 Red. masses --      1.1518                 1.1945                 2.1702
 Frc consts  --      0.9491                 1.0005                 1.9604
 IR Inten    --     29.0191                 9.7744                22.6454

                     46                     47                     48
                      A                      A                      A
 Frequencies --   1286.9963              1299.4440              1362.7815
 Red. masses --      1.9649                 1.9565                 2.5913
 Frc consts  --      1.9175                 1.9465                 2.8354
 IR Inten    --     76.5754               135.2988                44.7683

                     49                     50                     51
                      A                      A                      A
 Frequencies --   1387.8875              1393.6199              1414.2526
 Red. masses --      7.2844                 5.7429                 2.1932
 Frc consts  --      8.2671                 6.5716                 2.5845
 IR Inten    --     53.4206                97.0380                 6.2940

                     52                     53                     54
                      A                      A                      A
 Frequencies --   1491.0572              1506.6059              1530.8727
 Red. masses --      2.9060                 3.0212                 3.0504
 Frc consts  --      3.8066                 4.0404                 4.2119
 IR Inten    --    186.2377               720.5686               226.0882

                     55                     56                     57
                      A                      A                      A
 Frequencies --   1544.5430              1594.9156              1650.8204
 Red. masses --      4.5963                 6.8878                 6.3861
 Frc consts  --      6.4604                10.3231                10.2538
 IR Inten    --   1287.6918                84.4411                71.5452

                     58                     59                     60
                      A                      A                      A
 Frequencies --   1681.5860              1696.0086              1728.6888
 Red. masses --      7.2200                 7.7724                 8.4994
 Frc consts  --     12.0289                13.1723                14.9648
 IR Inten    --     59.9175                47.1688               426.0555

                     61                     62                     63
                      A                      A                      A
 Frequencies --   3180.1593              3192.7187              3218.3408
 Red. masses --      1.0892                 1.0878                 1.0935
 Frc consts  --      6.4902                 6.5329                 6.6729
 IR Inten    --      4.9316                14.5046                26.5281

                     64                     65                     66
                      A                      A                      A
 Frequencies --   3218.4053              3229.0301              3231.8395
 Red. masses --      1.0874                 1.0907                 1.0970
 Frc consts  --      6.6364                 6.7006                 6.7507
 IR Inten    --      5.4678                 2.2056                19.8197

                     67                     68                     69
                      A                      A                      A
 Frequencies --   3237.3083              3244.6002              3815.9462
 Red. masses --      1.0963                 1.0997                 1.0794
 Frc consts  --      6.7694                 6.8209                 9.2610
 IR Inten    --      4.1677                11.9237               131.2317

 - Thermochemistry -
 -------------------
 Temperature   298.150 Kelvin.  Pressure   1.00000 Atm.
 Atom     1 has atomic number  6 and mass  12.00000

 Molecular mass:   227.04049 amu.
 Principal axes and moments of inertia in atomic units:
                           1         2         3
     Eigenvalues --  1286.642246387.695367674.33761
           X           -0.70574   0.70847   0.00000
           Y            0.70847   0.70574  -0.00001
           Z            0.00001   0.00000   1.00000
 This molecule is an asymmetric top.
 Rotational symmetry number  1.
 Warning -- assumption of classical behavior for rotation
           may cause significant error
 Rotational temperatures (Kelvin)      0.06732     0.01356     0.01129
 Rotational constants (GHZ):           1.40268     0.28253     0.23517
 Zero-point vibrational energy     498099.7 (Joules/Mol)
                                  119.04868 (Kcal/Mol)
 Warning -- explicit consideration of  19 degrees of freedom as
           vibrations may cause significant error
 Vibrational temperatures:     44.61    93.21   158.15   169.95   277.21
          (Kelvin)            328.97   385.02   439.12   446.29   559.74
                              611.72   638.45   724.23   745.82   771.45
                              780.72   790.18   808.58   838.00   918.43
                              948.60  1014.29  1064.95  1081.67  1093.44
                             1116.39  1122.44  1195.32  1261.14  1269.64
                             1287.41  1386.52  1392.49  1397.28  1459.82
                             1463.02  1501.40  1521.15  1565.60  1597.39
                             1663.84  1667.54  1701.48  1715.47  1781.53
                             1851.70  1869.61  1960.74  1996.86  2005.11
                             2034.79  2145.30  2167.67  2202.58  2222.25
                             2294.73  2375.16  2419.43  2440.18  2487.20
                             4575.54  4593.61  4630.47  4630.57  4645.85
                             4649.90  4657.76  4668.26  5490.30

 Zero-point correction=                           0.189716 (Hartree/Particle)
 Thermal correction to Energy=                    0.201814
 Thermal correction to Enthalpy=                  0.202758
 Thermal correction to Gibbs Free Energy=         0.150344
 Sum of electronic and zero-point Energies=          -1028.613690
 Sum of electronic and thermal Energies=             -1028.601592
 Sum of electronic and thermal Enthalpies=           -1028.600648
 Sum of electronic and thermal Free Energies=        -1028.653062

                     E (Thermal)             CV                S
                      KCal/Mol        Cal/Mol-Kelvin    Cal/Mol-Kelvin
 Total                  126.640             48.786            110.315
 Electronic               0.000              0.000              0.000
 Translational            0.889              2.981             42.162
 Rotational               0.889              2.981             32.511
 Vibrational            124.863             42.825             35.641
 Vibration     1          0.594              1.984              5.764
 Vibration     2          0.597              1.971              4.306
 Vibration     3          0.606              1.941              3.270
 Vibration     4          0.608              1.934              3.131
 Vibration     5          0.635              1.850              2.202
 Vibration     6          0.651              1.797              1.890
 Vibration     7          0.673              1.733              1.612
 Vibration     8          0.696              1.664              1.388
 Vibration     9          0.699              1.654              1.361
 Vibration    10          0.757              1.494              1.004
 Vibration    11          0.787              1.415              0.875
 Vibration    12          0.803              1.375              0.815
 Vibration    13          0.859              1.243              0.650
 Vibration    14          0.873              1.209              0.614
 Vibration    15          0.891              1.170              0.574
 Vibration    16          0.898              1.156              0.560
 Vibration    17          0.904              1.141              0.546
 Vibration    18          0.918              1.114              0.520
 Vibration    19          0.939              1.069              0.481

 Optimization completed.
    -- Stationary point found.
 Normal termination of Gaussian 16 at Tue Oct 27 23:03:07 2020.
