 Gaussian 16, Revision C.01,
 Gaussian 16:  ES64L-G16RevC.01  3-Jul-2019

 ----------------------------------------------------------------------
 #p opt=addgic freq wb97xd/cc-pvdz nosymm int=ultrafine scrf=(solvent=C
 arbonTetraChloride)
 ----------------------------------------------------------------------

 ------------------------------------------------
 NM 2D-scan of HBT TD-WB97XD pVDZ in CTC Relaxed.
 ------------------------------------------------
 Symbolic Z-matrix:
 Charge =  0 Multiplicity = 1

 SCF Done:  E(RwB97XD) =  -1028.64571244     A.U. after   15 cycles
 SCF Done:  E(RwB97XD) =  -1028.79124735     A.U. after   13 cycles
 SCF Done:  E(RwB97XD) =  -1028.80479477     A.U. after   15 cycles
 SCF Done:  E(RwB97XD) =  -1028.82234348     A.U. after   13 cycles
 SCF Done:  E(RwB97XD) =  -1028.82353565     A.U. after   12 cycles
 SCF Done:  E(RwB97XD) =  -1028.82367561     A.U. after   11 cycles
 SCF Done:  E(RwB97XD) =  -1028.82369058     A.U. after    9 cycles
 Optimization completed.
    -- Stationary point found.
 Normal termination of Gaussian 16 at Tue Oct 27 21:39:13 2020.

 --------------------------------------------------------------------
 #P Geom=AllCheck Guess=TCheck SCRF=Check GenChk RwB97XD/CC-pVDZ Freq
 --------------------------------------------------------------------

 Structure from the checkpoint file:  "config_2_5.chk"
 ------------------------------------------------
 NM 2D-scan of HBT TD-WB97XD pVDZ in CTC Relaxed.
 ------------------------------------------------
 Charge =  0 Multiplicity = 1

                          Input orientation:
 ---------------------------------------------------------------------
 Center     Atomic      Atomic             Coordinates (Angstroms)
 Number     Number       Type             X           Y           Z
 ---------------------------------------------------------------------
      1          6           0        1.718963   -3.320593   -0.000028
      2          6           0        0.972551   -2.132114   -0.000012
      3          6           0        1.647872   -0.897418   -0.000005
      4          6           0        3.043416   -0.814881   -0.000008
      5          6           0        3.775102   -1.985794   -0.000023
      6          6           0        3.110771   -3.225520   -0.000034
      7          1           0        1.235122   -4.297894   -0.000034
      8          1           0        3.513305    0.169123   -0.000001
      9          1           0        4.865381   -1.953342   -0.000027
     10          1           0        3.698908   -4.144811   -0.000046
     11          7           0        0.860031    0.220483    0.000002
     12         16           0       -0.765303   -1.818336    0.000006
     13          6           0       -1.373162    1.074517    0.000004
     14          6           0       -2.775182    0.895775   -0.000009
     15          6           0       -0.892793    2.421476    0.000027
     16          6           0       -3.652552    1.968212    0.000017
     17          1           0       -3.176394   -0.120918   -0.000036
     18          6           0       -1.792486    3.494285    0.000064
     19          6           0       -3.153034    3.279294    0.000060
     20          1           0       -4.728030    1.790281    0.000007
     21          1           0       -1.364274    4.497007    0.000089
     22          1           0       -3.836316    4.130378    0.000088
     23          6           0       -0.409882   -0.043040   -0.000000
     24          8           0        0.391334    2.820466    0.000012
     25          1           0        0.956051    2.031338   -0.000010
 ---------------------------------------------------------------------

 SCF Done:  E(RwB97XD) =  -1028.82369058     A.U. after    1 cycles

 Alpha  occ. eigenvalues --  -89.08842 -19.28460 -14.46576 -10.39592 -10.37540
 Alpha  occ. eigenvalues --  -10.35029 -10.34501 -10.32948 -10.32483 -10.31914
 Alpha  occ. eigenvalues --  -10.31611 -10.31398 -10.31341 -10.31278 -10.30263
 Alpha  occ. eigenvalues --  -10.29934  -8.10723  -6.05596  -6.05241  -6.04760
 Alpha  occ. eigenvalues --   -1.16616  -1.08892  -0.97154  -0.96022  -0.91058
 Alpha  occ. eigenvalues --   -0.88483  -0.85225  -0.84464  -0.82894  -0.75454
 Alpha  occ. eigenvalues --   -0.71270  -0.70646  -0.69495  -0.68034  -0.62966
 Alpha  occ. eigenvalues --   -0.60193  -0.58574  -0.58340  -0.56348  -0.54452
 Alpha  occ. eigenvalues --   -0.53749  -0.53095  -0.52437  -0.50907  -0.50330
 Alpha  occ. eigenvalues --   -0.49218  -0.47829  -0.45756  -0.45253  -0.44896
 Alpha  occ. eigenvalues --   -0.43727  -0.42917  -0.42555  -0.39636  -0.37271
 Alpha  occ. eigenvalues --   -0.36115  -0.32081  -0.31689  -0.29066
 Alpha virt. eigenvalues --   -0.00409   0.04850   0.06798   0.07184   0.07354
 Alpha virt. eigenvalues --    0.11576   0.12904   0.15116   0.15853   0.17627
 Alpha virt. eigenvalues --    0.18966   0.20344   0.21707   0.22451   0.22827

 Mulliken charges:
               1
     1  C   -0.001586
     2  C   -0.211823
     3  C    0.229336
     4  C   -0.012528
     5  C    0.008064
     6  C   -0.002462
     7  H    0.020893
     8  H    0.015930
     9  H    0.018942
    10  H    0.021369
    11  N   -0.321610
    12  S    0.134099
    13  C   -0.068298
    14  C   -0.016155
    15  C    0.065078
    16  C   -0.007319
    17  H    0.010251
    18  C    0.019279
    19  C    0.019045
    20  H    0.010468
    21  H    0.016880
    22  H    0.018069
    23  C    0.071436
    24  O   -0.189484
    25  H    0.152126
 Sum of Mulliken charges =  -0.00000

 Dipole moment (field-independent basis, Debye):
    X=              0.1732    Y=             -2.0419    Z=             -0.0000  Tot=              2.0493
 Quadrupole moment (field-independent basis, Debye-Ang):
   XX=            -82.6517   YY=            -89.7535   ZZ=           -104.2796
   XY=             -6.8423   XZ=             -0.0001   YZ=              0.0003

  Exact polarizability:     275.306     -65.169     256.723      -0.001       0.003      63.154
 Approx polarizability:     263.603     -22.173     243.766      -0.001       0.002      82.309

                      1                      2                      3
                      A                      A                      A
 Frequencies --     47.3662                51.6386               111.1076
 Red. masses --      6.2015                 5.2617                 5.6611
 Frc consts  --      0.0082                 0.0083                 0.0412
 IR Inten    --      0.5671                 0.5874                 0.9391

                      4                      5                      6
                      A                      A                      A
 Frequencies --    149.9639               199.6650               244.8113
 Red. masses --      4.8480                 5.6915                 5.8360
 Frc consts  --      0.0642                 0.1337                 0.2061
 IR Inten    --      0.0011                 0.3246                 0.1152

                      7                      8                      9
                      A                      A                      A
 Frequencies --    258.9627               290.8090               324.5596
 Red. masses --      8.2949                 6.2355                 5.0086
 Frc consts  --      0.3277                 0.3107                 0.3109
 IR Inten    --      2.6960                 5.1679                 0.6014

                     10                     11                     12
                      A                      A                      A
 Frequencies --    397.1304               440.0154               469.8198
 Red. masses --      8.6027                 3.1683                 3.7525
 Frc consts  --      0.7994                 0.3614                 0.4880
 IR Inten    --      0.2728                 1.9370                 9.2963

                     13                     14                     15
                      A                      A                      A
 Frequencies --    495.0542               512.7253               538.9555
 Red. masses --      4.6344                 8.8791                 3.4522
 Frc consts  --      0.6692                 1.3753                 0.5908
 IR Inten    --      3.6771                 0.3305                 4.0699

                     16                     17                     18
                      A                      A                      A
 Frequencies --    545.6402               573.0661               595.2683
 Red. masses --      8.6712                 3.7025                 7.7039
 Frc consts  --      1.5210                 0.7164                 1.6084
 IR Inten    --      2.8382                 0.0167                 6.4853

                     19                     20                     21
                      A                      A                      A
 Frequencies --    623.4986               666.3879               676.4709
 Red. masses --      1.7248                 1.9670                 6.4984
 Frc consts  --      0.3951                 0.5147                 1.7521
 IR Inten    --     40.0163                47.8443                18.2808

                     22                     23                     24
                      A                      A                      A
 Frequencies --    683.9029               717.9567               754.6317
 Red. masses --      8.9266                 7.3421                 1.9493
 Frc consts  --      2.4599                 2.2298                 0.6540
 IR Inten    --     38.9284                 1.6704                21.9645

                     25                     26                     27
                      A                      A                      A
 Frequencies --    767.7734               778.2735               788.0750
 Red. masses --      3.6188                 1.3193                 1.9087
 Frc consts  --      1.2568                 0.4708                 0.6984
 IR Inten    --     11.8120                54.5587                37.3117

                     28                     29                     30
                      A                      A                      A
 Frequencies --    837.1101               885.6776               886.9174
 Red. masses --      6.1071                 1.5201                 1.4480
 Frc consts  --      2.5215                 0.7025                 0.6711
 IR Inten    --     27.3320                 4.7509                 0.2669

                     31                     32                     33
                      A                      A                      A
 Frequencies --    894.2955               971.7966               973.1105
 Red. masses --      6.3885                 7.6153                 1.3555
 Frc consts  --      3.0103                 4.2373                 0.7563
 IR Inten    --      1.2447                73.6777                 1.2529

                     34                     35                     36
                      A                      A                      A
 Frequencies --    975.6660              1011.6706              1014.7948
 Red. masses --      1.3642                 1.3004                 1.3054
 Frc consts  --      0.7651                 0.7841                 0.7920
 IR Inten    --      1.3479                 0.3054                 0.0079

                     37                     38                     39
                      A                      A                      A
 Frequencies --   1049.8618              1068.9396              1090.5915
 Red. masses --      2.0345                 2.0457                 4.7395
 Frc consts  --      1.3212                 1.3772                 3.3213
 IR Inten    --      7.8927                15.6262                 5.9167

                     40                     41                     42
                      A                      A                      A
 Frequencies --   1143.2379              1149.4092              1175.2946
 Red. masses --      1.5844                 1.2682                 1.1123
 Frc consts  --      1.2200                 0.9872                 0.9052
 IR Inten    --      9.3346                 6.4927                47.9825

                     43                     44                     45
                      A                      A                      A
 Frequencies --   1183.2043              1228.1324              1273.1923
 Red. masses --      1.1863                 1.6031                 2.1824
 Frc consts  --      0.9785                 1.4246                 2.0844
 IR Inten    --      0.2640               177.9806                73.5020

                     46                     47                     48
                      A                      A                      A
 Frequencies --   1280.7635              1298.0499              1353.4950
 Red. masses --      1.5869                 5.1442                 2.9814
 Frc consts  --      1.5337                 5.1069                 3.2180
 IR Inten    --      1.3764                26.9466                14.0337

                     49                     50                     51
                      A                      A                      A
 Frequencies --   1366.4527              1375.5477              1407.9444
 Red. masses --      6.0505                 2.7819                 1.9436
 Frc consts  --      6.6562                 3.1013                 2.2700
 IR Inten    --     15.5770                 2.3720                89.8400

                     52                     53                     54
                      A                      A                      A
 Frequencies --   1489.7201              1496.9162              1516.0475
 Red. masses --      2.6383                 3.0889                 3.3636
 Frc consts  --      3.4497                 4.0781                 4.5549
 IR Inten    --     24.5273                15.6598               123.5515

                     55                     56                     57
                      A                      A                      A
 Frequencies --   1532.0435              1606.1201              1641.4155
 Red. masses --      2.8520                 8.7291                 6.2950
 Frc consts  --      3.9440                13.2671                 9.9927
 IR Inten    --     29.5197               195.2271                22.7910

                     58                     59                     60
                      A                      A                      A
 Frequencies --   1648.2674              1685.0579              1709.1653
 Red. masses --      6.0244                 6.9279                 6.5751
 Frc consts  --      9.6432                11.5899                11.3167
 IR Inten    --     89.9663                 3.2122                83.9885

                     61                     62                     63
                      A                      A                      A
 Frequencies --   3192.9895              3209.3933              3210.8372
 Red. masses --      1.0895                 1.0882                 1.0860
 Frc consts  --      6.5444                 6.6042                 6.5965
 IR Inten    --      4.0914                 5.7262                 0.6751

                     64                     65                     66
                      A                      A                      A
 Frequencies --   3221.2483              3229.6409              3230.5026
 Red. masses --      1.0901                 1.0940                 1.0959
 Frc consts  --      6.6646                 6.7232                 6.7385
 IR Inten    --      3.6552                10.0882                13.0514

                     67                     68                     69
                      A                      A                      A
 Frequencies --   3237.0400              3238.0040              3650.2422
 Red. masses --      1.0993                 1.1001                 1.0663
 Frc consts  --      6.7870                 6.7959                 8.3713
 IR Inten    --     19.5291                12.6725               548.3186

 - Thermochemistry -
 -------------------
 Temperature   298.150 Kelvin.  Pressure   1.00000 Atm.
 Atom     1 has atomic number  6 and mass  12.00000

 Molecular mass:   227.04049 amu.
 Principal axes and moments of inertia in atomic units:
                           1         2         3
     Eigenvalues --  1355.152646382.338167737.49080
           X           -0.69308   0.72086   0.00000
           Y            0.72086   0.69308  -0.00001
           Z            0.00001   0.00000   1.00000
 This molecule is an asymmetric top.
 Rotational symmetry number  1.
 Warning -- assumption of classical behavior for rotation
           may cause significant error
 Rotational temperatures (Kelvin)      0.06391     0.01357     0.01119
 Rotational constants (GHZ):           1.33176     0.28277     0.23325
 Zero-point vibrational energy     498503.9 (Joules/Mol)
                                  119.14528 (Kcal/Mol)
 Warning -- explicit consideration of  18 degrees of freedom as
           vibrations may cause significant error
 Vibrational temperatures:     68.15    74.30   159.86   215.76   287.27
          (Kelvin)            352.23   372.59   418.41   466.97   571.38
                              633.08   675.97   712.27   737.70   775.44
                              785.05   824.51   856.46   897.08   958.78
                              973.29   983.98  1032.98  1085.75  1104.65
                             1119.76  1133.86  1204.41  1274.29  1276.08
                             1286.69  1398.20  1400.09  1403.77  1455.57
                             1460.06  1510.52  1537.97  1569.12  1644.86
                             1653.74  1690.99  1702.37  1767.01  1831.84
                             1842.73  1867.60  1947.38  1966.02  1979.11
                             2025.72  2143.37  2153.73  2181.25  2204.27
                             2310.85  2361.63  2371.49  2424.42  2459.11
                             4594.00  4617.60  4619.68  4634.66  4646.73
                             4647.97  4657.38  4658.77  5251.88

 Zero-point correction=                           0.189870 (Hartree/Particle)
 Thermal correction to Energy=                    0.201762
 Thermal correction to Enthalpy=                  0.202706
 Thermal correction to Gibbs Free Energy=         0.150918
 Sum of electronic and zero-point Energies=          -1028.633820
 Sum of electronic and thermal Energies=             -1028.621929
 Sum of electronic and thermal Enthalpies=           -1028.620985
 Sum of electronic and thermal Free Energies=        -1028.672773

                     E (Thermal)             CV                S
                      KCal/Mol        Cal/Mol-Kelvin    Cal/Mol-Kelvin
 Total                  126.607             48.291            108.997
 Electronic               0.000              0.000              0.000
 Translational            0.889              2.981             42.162
 Rotational               0.889              2.981             32.570
 Vibrational            124.830             42.330             34.265
 Vibration     1          0.595              1.979              4.924
 Vibration     2          0.596              1.977              4.754
 Vibration     3          0.607              1.940              3.249
 Vibration     4          0.618              1.903              2.673
 Vibration     5          0.638              1.840              2.136
 Vibration     6          0.660              1.771              1.768
 Vibration     7          0.668              1.748              1.669
 Vibration     8          0.687              1.691              1.469
 Vibration     9          0.709              1.626              1.287
 Vibration    10          0.764              1.476              0.973
 Vibration    11          0.800              1.383              0.827
 Vibration    12          0.827              1.317              0.738
 Vibration    13          0.851              1.261              0.671
 Vibration    14          0.868              1.222              0.627
 Vibration    15          0.894              1.164              0.568
 Vibration    16          0.901              1.149              0.553
 Vibration    17          0.929              1.090              0.498
 Vibration    18          0.953              1.042              0.458

 Optimization completed.
    -- Stationary point found.
 Normal termination of Gaussian 16 at Tue Oct 27 21:45:06 2020.
