 Gaussian 16, Revision C.01,
 Gaussian 16:  ES64L-G16RevC.01  3-Jul-2019

 ----------------------------------------------------------------------
 #p opt=addgic freq wb97xd/cc-pvdz nosymm int=ultrafine scrf=(solvent=C
 arbonTetraChloride)
 ----------------------------------------------------------------------

 ------------------------------------------------
 NM 2D-scan of HBT TD-WB97XD pVDZ in CTC Relaxed.
 ------------------------------------------------
 Symbolic Z-matrix:
 Charge =  0 Multiplicity = 1

 SCF Done:  E(RwB97XD) =  -1028.81568774     A.U. after   15 cycles
 SCF Done:  E(RwB97XD) =  -1028.82736062     A.U. after   13 cycles
 SCF Done:  E(RwB97XD) =  -1028.82836966     A.U. after   12 cycles
 SCF Done:  E(RwB97XD) =  -1028.82876483     A.U. after   11 cycles
 SCF Done:  E(RwB97XD) =  -1028.82881038     A.U. after   10 cycles
 SCF Done:  E(RwB97XD) =  -1028.82881294     A.U. after    9 cycles
 SCF Done:  E(RwB97XD) =  -1028.82881315     A.U. after    8 cycles
 SCF Done:  E(RwB97XD) =  -1028.82881310     A.U. after    7 cycles
 SCF Done:  E(RwB97XD) =  -1028.82881317     A.U. after    6 cycles
 Optimization completed.
    -- Stationary point found.
 Normal termination of Gaussian 16 at Tue Oct 27 22:44:58 2020.

 --------------------------------------------------------------------
 #P Geom=AllCheck Guess=TCheck SCRF=Check GenChk RwB97XD/CC-pVDZ Freq
 --------------------------------------------------------------------

 Structure from the checkpoint file:  "config_4_8.chk"
 ------------------------------------------------
 NM 2D-scan of HBT TD-WB97XD pVDZ in CTC Relaxed.
 ------------------------------------------------
 Charge =  0 Multiplicity = 1

                          Input orientation:
 ---------------------------------------------------------------------
 Center     Atomic      Atomic             Coordinates (Angstroms)
 Number     Number       Type             X           Y           Z
 ---------------------------------------------------------------------
      1          6           0        1.666927   -3.286714   -0.000033
      2          6           0        0.988972   -2.064840   -0.000017
      3          6           0        1.694249   -0.850744   -0.000005
      4          6           0        3.093374   -0.836802   -0.000007
      5          6           0        3.765923   -2.048835   -0.000023
      6          6           0        3.057859   -3.261902   -0.000037
      7          1           0        1.125935   -4.233334   -0.000044
      8          1           0        3.623423    0.116106    0.000003
      9          1           0        4.856728   -2.062223   -0.000026
     10          1           0        3.606712   -4.204776   -0.000050
     11          7           0        0.893226    0.268746    0.000007
     12         16           0       -0.737553   -1.734294   -0.000011
     13          6           0       -1.368606    1.077018    0.000014
     14          6           0       -2.755376    0.851823    0.000012
     15          6           0       -0.884901    2.417024    0.000027
     16          6           0       -3.656812    1.905478    0.000027
     17          1           0       -3.127951   -0.175748    0.000000
     18          6           0       -1.812337    3.473535    0.000043
     19          6           0       -3.173680    3.221071    0.000044
     20          1           0       -4.729113    1.709549    0.000025
     21          1           0       -1.420752    4.491434    0.000055
     22          1           0       -3.874526    4.058188    0.000057
     23          6           0       -0.383003   -0.004027    0.000005
     24          8           0        0.408745    2.718751    0.000022
     25          1           0        0.909231    1.844381    0.000014
 ---------------------------------------------------------------------

 SCF Done:  E(RwB97XD) =  -1028.82881317     A.U. after    1 cycles

 Alpha  occ. eigenvalues --  -89.08902 -19.27414 -14.46932 -10.39598 -10.37240
 Alpha  occ. eigenvalues --  -10.34975 -10.34927 -10.32459 -10.32273 -10.31829
 Alpha  occ. eigenvalues --  -10.31699 -10.31671 -10.31550 -10.31312 -10.30139
 Alpha  occ. eigenvalues --  -10.29942  -8.10898  -6.05758  -6.05398  -6.04944
 Alpha  occ. eigenvalues --   -1.16161  -1.09140  -0.97299  -0.96069  -0.91607
 Alpha  occ. eigenvalues --   -0.88605  -0.85368  -0.84426  -0.83020  -0.75529
 Alpha  occ. eigenvalues --   -0.71368  -0.70538  -0.69410  -0.68250  -0.63127
 Alpha  occ. eigenvalues --   -0.60595  -0.58842  -0.58311  -0.56302  -0.54490
 Alpha  occ. eigenvalues --   -0.54179  -0.53268  -0.52613  -0.50976  -0.50226
 Alpha  occ. eigenvalues --   -0.49470  -0.47581  -0.45965  -0.45358  -0.45002
 Alpha  occ. eigenvalues --   -0.43860  -0.42808  -0.42753  -0.39851  -0.36852
 Alpha  occ. eigenvalues --   -0.36207  -0.32250  -0.31642  -0.28936
 Alpha virt. eigenvalues --   -0.00492   0.04750   0.06884   0.07286   0.07603
 Alpha virt. eigenvalues --    0.11367   0.13880   0.15123   0.16263   0.17913
 Alpha virt. eigenvalues --    0.18994   0.20845   0.21743   0.22577   0.22697

 Mulliken charges:
               1
     1  C    0.007744
     2  C   -0.221439
     3  C    0.241218
     4  C   -0.013255
     5  C    0.006827
     6  C    0.000267
     7  H    0.019877
     8  H    0.019506
     9  H    0.020389
    10  H    0.021916
    11  N   -0.344702
    12  S    0.149511
    13  C   -0.071388
    14  C   -0.020273
    15  C    0.075376
    16  C   -0.009588
    17  H    0.011330
    18  C    0.006988
    19  C    0.020769
    20  H    0.009384
    21  H    0.015106
    22  H    0.018026
    23  C    0.084210
    24  O   -0.215233
    25  H    0.167434
 Sum of Mulliken charges =  -0.00000

 Dipole moment (field-independent basis, Debye):
    X=              0.1385    Y=             -2.6455    Z=             -0.0000  Tot=              2.6491
 Quadrupole moment (field-independent basis, Debye-Ang):
   XX=            -82.7350   YY=            -90.1683   ZZ=           -104.1097
   XY=             -7.1688   XZ=             -0.0001   YZ=              0.0002

  Exact polarizability:     275.245     -67.166     256.225      -0.001       0.002      62.985
 Approx polarizability:     262.909     -23.286     242.867      -0.001       0.002      82.207

                      1                      2                      3
                      A                      A                      A
 Frequencies --     42.8032                60.8059               123.9971
 Red. masses --      5.4807                 5.9113                 5.6562
 Frc consts  --      0.0059                 0.0129                 0.0512
 IR Inten    --      0.0284                 1.2989                 1.4715

                      4                      5                      6
                      A                      A                      A
 Frequencies --    153.5110               198.8956               245.2425
 Red. masses --      4.9807                 5.9029                 5.7511
 Frc consts  --      0.0692                 0.1376                 0.2038
 IR Inten    --      0.0502                 0.5741                 0.0503

                      7                      8                      9
                      A                      A                      A
 Frequencies --    273.0942               325.1777               327.6246
 Red. masses --      7.5251                 6.4465                 5.1320
 Frc consts  --      0.3307                 0.4016                 0.3246
 IR Inten    --      0.8955                 7.3852                 0.2756

                     10                     11                     12
                      A                      A                      A
 Frequencies --    409.5272               437.9996               465.9699
 Red. masses --      9.7989                 3.1417                 3.6892
 Frc consts  --      0.9683                 0.3551                 0.4720
 IR Inten    --      0.1592                 2.1138                 8.0107

                     13                     14                     15
                      A                      A                      A
 Frequencies --    515.6527               525.4001               539.1605
 Red. masses --      8.6543                 5.1580                 3.4723
 Frc consts  --      1.3558                 0.8389                 0.5947
 IR Inten    --      0.1922                11.3204                 3.6430

                     16                     17                     18
                      A                      A                      A
 Frequencies --    551.2689               574.6909               593.2929
 Red. masses --      7.9021                 3.7080                 7.6627
 Frc consts  --      1.4149                 0.7215                 1.5892
 IR Inten    --      2.9856                 0.0488                 4.9582

                     19                     20                     21
                      A                      A                      A
 Frequencies --    647.7421               683.2401               715.9557
 Red. masses --      6.1981                 6.4227                 6.8824
 Frc consts  --      1.5322                 1.7665                 2.0785
 IR Inten    --      0.0022                 7.5773                26.8599

                     22                     23                     24
                      A                      A                      A
 Frequencies --    742.0679               755.7990               765.9174
 Red. masses --     10.0874                 2.0394                 3.1101
 Frc consts  --      3.2728                 0.6864                 1.0750
 IR Inten    --     12.0031                26.2950                 1.4608

                     25                     26                     27
                      A                      A                      A
 Frequencies --    776.5948               786.6710               847.4295
 Red. masses --      1.3520                 1.8757                 5.9783
 Frc consts  --      0.4804                 0.6839                 2.5295
 IR Inten    --     64.1193                35.9824                18.8486

                     28                     29                     30
                      A                      A                      A
 Frequencies --    884.3576               887.1868               902.2389
 Red. masses --      1.5610                 1.4068                 6.5931
 Frc consts  --      0.7193                 0.6524                 3.1621
 IR Inten    --      5.6202                 0.0423                 1.4399

                     31                     32                     33
                      A                      A                      A
 Frequencies --    919.8625               971.5265               976.5061
 Red. masses --      1.0918                 1.3557                 1.3629
 Frc consts  --      0.5443                 0.7539                 0.7657
 IR Inten    --     75.6198                 0.9702                 2.1608

                     34                     35                     36
                      A                      A                      A
 Frequencies --    994.7504              1010.9757              1016.1141
 Red. masses --      7.5555                 1.3007                 1.3045
 Frc consts  --      4.4050                 0.7833                 0.7936
 IR Inten    --     58.2389                 0.4134                 0.0289

                     37                     38                     39
                      A                      A                      A
 Frequencies --   1052.9930              1068.9176              1098.5654
 Red. masses --      2.0114                 1.9528                 4.2419
 Frc consts  --      1.3140                 1.3146                 3.0162
 IR Inten    --      8.4421                 9.8496                 5.7421

                     40                     41                     42
                      A                      A                      A
 Frequencies --   1149.0404              1153.1639              1175.0880
 Red. masses --      1.4779                 1.3006                 1.1285
 Frc consts  --      1.1497                 1.0190                 0.9181
 IR Inten    --      8.8943                 3.3910                46.3836

                     43                     44                     45
                      A                      A                      A
 Frequencies --   1185.2308              1256.2904              1286.9643
 Red. masses --      1.1920                 1.8883                 1.5496
 Frc consts  --      0.9866                 1.7559                 1.5121
 IR Inten    --      0.3245               112.4570                 0.2374

                     46                     47                     48
                      A                      A                      A
 Frequencies --   1295.5675              1341.1776              1348.6510
 Red. masses --      2.5761                 4.7705                 3.4286
 Frc consts  --      2.5476                 5.0557                 3.6742
 IR Inten    --    161.1995                22.7915                 5.0015

                     49                     50                     51
                      A                      A                      A
 Frequencies --   1375.5980              1379.3198              1483.7324
 Red. masses --      7.6998                 3.4213                 2.2157
 Frc consts  --      8.5844                 3.8351                 2.8738
 IR Inten    --     13.5834                18.3896                11.3081

                     52                     53                     54
                      A                      A                      A
 Frequencies --   1493.2526              1501.1056              1522.4410
 Red. masses --      2.6291                 3.0644                 3.9965
 Frc consts  --      3.4541                 4.0684                 5.4577
 IR Inten    --     34.1700                12.9242               126.1218

                     55                     56                     57
                      A                      A                      A
 Frequencies --   1571.1367              1591.8205              1650.9547
 Red. masses --      2.5906                 4.5839                 6.7729
 Frc consts  --      3.7677                 6.8434                10.8766
 IR Inten    --    171.6208               139.3425                 6.3579

                     58                     59                     60
                      A                      A                      A
 Frequencies --   1674.9540              1680.7043              1709.5501
 Red. masses --      3.1059                 6.5882                 4.8645
 Frc consts  --      5.1338                10.9648                 8.3764
 IR Inten    --    178.3623                29.2758               149.5926

                     61                     62                     63
                      A                      A                      A
 Frequencies --   2966.1108              3195.8942              3207.1856
 Red. masses --      1.0725                 1.0891                 1.0885
 Frc consts  --      5.5595                 6.5540                 6.5968
 IR Inten    --   1212.8219                 4.9117                 5.0503

                     64                     65                     66
                      A                      A                      A
 Frequencies --   3212.3333              3223.6396              3227.9409
 Red. masses --      1.0863                 1.0907                 1.0941
 Frc consts  --      6.6044                 6.6778                 6.7169
 IR Inten    --      1.8510                 4.0400                11.6443

                     67                     68                     69
                      A                      A                      A
 Frequencies --   3234.3707              3236.7997              3240.0794
 Red. masses --      1.0960                 1.0986                 1.0996
 Frc consts  --      6.7550                 6.7814                 6.8016
 IR Inten    --      9.5705                17.4168                12.8282

 - Thermochemistry -
 -------------------
 Temperature   298.150 Kelvin.  Pressure   1.00000 Atm.
 Atom     1 has atomic number  6 and mass  12.00000

 Molecular mass:   227.04049 amu.
 Principal axes and moments of inertia in atomic units:
                           1         2         3
     Eigenvalues --  1312.755776313.958887626.71465
           X           -0.70072   0.71344   0.00000
           Y            0.71344   0.70072  -0.00001
           Z            0.00001   0.00001   1.00000
 This molecule is an asymmetric top.
 Rotational symmetry number  1.
 Warning -- assumption of classical behavior for rotation
           may cause significant error
 Rotational temperatures (Kelvin)      0.06598     0.01372     0.01136
 Rotational constants (GHZ):           1.37477     0.28583     0.23663
 Zero-point vibrational energy     499079.8 (Joules/Mol)
                                  119.28293 (Kcal/Mol)
 Warning -- explicit consideration of  18 degrees of freedom as
           vibrations may cause significant error
 Vibrational temperatures:     61.58    87.49   178.40   220.87   286.17
          (Kelvin)            352.85   392.92   467.86   471.38   589.22
                              630.18   670.43   741.91   755.93   775.73
                              793.15   826.85   853.62   931.96   983.03
                             1030.10  1067.67  1087.43  1101.98  1117.35
                             1131.84  1219.26  1272.39  1276.46  1298.12
                             1323.48  1397.81  1404.97  1431.22  1454.57
                             1461.96  1515.02  1537.93  1580.59  1653.21
                             1659.15  1690.69  1705.28  1807.52  1851.65
                             1864.03  1929.66  1940.41  1979.18  1984.53
                             2134.76  2148.46  2159.76  2190.45  2260.52
                             2290.27  2375.36  2409.89  2418.16  2459.66
                             4267.57  4598.18  4614.42  4621.83  4638.10
                             4644.29  4653.54  4657.03  4661.75

 Zero-point correction=                           0.190089 (Hartree/Particle)
 Thermal correction to Energy=                    0.201713
 Thermal correction to Enthalpy=                  0.202657
 Thermal correction to Gibbs Free Energy=         0.151446
 Sum of electronic and zero-point Energies=          -1028.638724
 Sum of electronic and thermal Energies=             -1028.627100
 Sum of electronic and thermal Enthalpies=           -1028.626156
 Sum of electronic and thermal Free Energies=        -1028.677367

                     E (Thermal)             CV                S
                      KCal/Mol        Cal/Mol-Kelvin    Cal/Mol-Kelvin
 Total                  126.577             47.333            107.783
 Electronic               0.000              0.000              0.000
 Translational            0.889              2.981             42.162
 Rotational               0.889              2.981             32.514
 Vibrational            124.799             41.371             33.107
 Vibration     1          0.595              1.980              5.125
 Vibration     2          0.597              1.973              4.431
 Vibration     3          0.610              1.929              3.037
 Vibration     4          0.619              1.899              2.628
 Vibration     5          0.637              1.841              2.143
 Vibration     6          0.660              1.771              1.765
 Vibration     7          0.676              1.723              1.577
 Vibration     8          0.709              1.625              1.284
 Vibration     9          0.711              1.620              1.272
 Vibration    10          0.774              1.450              0.928
 Vibration    11          0.798              1.387              0.833
 Vibration    12          0.823              1.326              0.749
 Vibration    13          0.871              1.215              0.620
 Vibration    14          0.880              1.194              0.598
 Vibration    15          0.894              1.163              0.567
 Vibration    16          0.907              1.137              0.542
 Vibration    17          0.931              1.086              0.495
 Vibration    18          0.951              1.046              0.461

 Optimization completed.
    -- Stationary point found.
 Normal termination of Gaussian 16 at Tue Oct 27 22:52:44 2020.
