 Gaussian 16, Revision C.01,
 Gaussian 16:  ES64L-G16RevC.01  3-Jul-2019

 ----------------------------------------------------------------------
 #p opt=addgic freq wb97xd/cc-pvdz nosymm int=ultrafine scrf=(solvent=C
 arbonTetraChloride)
 ----------------------------------------------------------------------

 ------------------------------------------------
 NM 2D-scan of HBT TD-WB97XD pVDZ in CTC Relaxed.
 ------------------------------------------------
 Symbolic Z-matrix:
 Charge =  0 Multiplicity = 1

 SCF Done:  E(RwB97XD) =  -1028.81476595     A.U. after   15 cycles
 SCF Done:  E(RwB97XD) =  -1028.82227852     A.U. after   13 cycles
 SCF Done:  E(RwB97XD) =  -1028.82324065     A.U. after   12 cycles
 SCF Done:  E(RwB97XD) =  -1028.82389940     A.U. after   11 cycles
 SCF Done:  E(RwB97XD) =  -1028.82391508     A.U. after    9 cycles
 SCF Done:  E(RwB97XD) =  -1028.82391679     A.U. after    9 cycles
 SCF Done:  E(RwB97XD) =  -1028.82391677     A.U. after    7 cycles
 SCF Done:  E(RwB97XD) =  -1028.82391689     A.U. after    7 cycles
 Optimization completed.
    -- Stationary point found.
 Normal termination of Gaussian 16 at Tue Oct 27 21:14:50 2020.

 --------------------------------------------------------------------
 #P Geom=AllCheck Guess=TCheck SCRF=Check GenChk RwB97XD/CC-pVDZ Freq
 --------------------------------------------------------------------

 Structure from the checkpoint file:  "config_5_3.chk"
 ------------------------------------------------
 NM 2D-scan of HBT TD-WB97XD pVDZ in CTC Relaxed.
 ------------------------------------------------
 Charge =  0 Multiplicity = 1

                          Input orientation:
 ---------------------------------------------------------------------
 Center     Atomic      Atomic             Coordinates (Angstroms)
 Number     Number       Type             X           Y           Z
 ---------------------------------------------------------------------
      1          6           0        1.736801   -3.282230   -0.000044
      2          6           0        0.994315   -2.095933   -0.000051
      3          6           0        1.654925   -0.859680   -0.000007
      4          6           0        3.050074   -0.769718    0.000046
      5          6           0        3.781817   -1.944331    0.000051
      6          6           0        3.126790   -3.187179    0.000006
      7          1           0        1.248882   -4.257229   -0.000077
      8          1           0        3.525575    0.211477    0.000080
      9          1           0        4.871991   -1.907361    0.000090
     10          1           0        3.718481   -4.103859    0.000011
     11          7           0        0.819447    0.224389   -0.000021
     12         16           0       -0.750945   -1.815148   -0.000105
     13          6           0       -1.408559    1.052395   -0.000051
     14          6           0       -2.807020    0.904573   -0.000019
     15          6           0       -0.862314    2.376334   -0.000025
     16          6           0       -3.653308    2.005377    0.000075
     17          1           0       -3.234220   -0.101522   -0.000046
     18          6           0       -1.737407    3.477209    0.000086
     19          6           0       -3.107939    3.296842    0.000138
     20          1           0       -4.734124    1.862848    0.000110
     21          1           0       -1.289873    4.471744    0.000110
     22          1           0       -3.766306    4.167786    0.000218
     23          6           0       -0.452040   -0.063170   -0.000081
     24          8           0        0.437088    2.635387   -0.000138
     25          1           0        0.900333    1.730738   -0.000268
 ---------------------------------------------------------------------

 SCF Done:  E(RwB97XD) =  -1028.82391689     A.U. after    1 cycles

 Alpha  occ. eigenvalues --  -89.09166 -19.26882 -14.46867 -10.39853 -10.37134
 Alpha  occ. eigenvalues --  -10.35151 -10.34927 -10.32626 -10.32422 -10.31786
 Alpha  occ. eigenvalues --  -10.31769 -10.31740 -10.31631 -10.31188 -10.30023
 Alpha  occ. eigenvalues --  -10.29733  -8.11100  -6.05970  -6.05606  -6.05140
 Alpha  occ. eigenvalues --   -1.15934  -1.09342  -0.97336  -0.95893  -0.91519
 Alpha  occ. eigenvalues --   -0.88621  -0.85305  -0.84303  -0.83058  -0.75569
 Alpha  occ. eigenvalues --   -0.71345  -0.70464  -0.69337  -0.68346  -0.63047
 Alpha  occ. eigenvalues --   -0.60647  -0.58865  -0.58189  -0.56189  -0.54457
 Alpha  occ. eigenvalues --   -0.54276  -0.53322  -0.52394  -0.51099  -0.50091
 Alpha  occ. eigenvalues --   -0.49602  -0.47596  -0.46001  -0.45303  -0.45003
 Alpha  occ. eigenvalues --   -0.43755  -0.42854  -0.42652  -0.39908  -0.36425
 Alpha  occ. eigenvalues --   -0.36202  -0.32405  -0.31570  -0.28758
 Alpha virt. eigenvalues --   -0.00535   0.04644   0.06937   0.07403   0.07414
 Alpha virt. eigenvalues --    0.11283   0.13178   0.15064   0.15984   0.17834
 Alpha virt. eigenvalues --    0.19047   0.20745   0.21752   0.22564   0.22621

 Mulliken charges:
               1
     1  C    0.004087
     2  C   -0.228258
     3  C    0.258176
     4  C   -0.012143
     5  C    0.008432
     6  C   -0.000470
     7  H    0.021218
     8  H    0.021078
     9  H    0.020986
    10  H    0.022495
    11  N   -0.335326
    12  S    0.150606
    13  C   -0.090198
    14  C   -0.014798
    15  C    0.083356
    16  C   -0.012944
    17  H    0.007343
    18  C    0.006670
    19  C    0.021120
    20  H    0.009083
    21  H    0.013773
    22  H    0.017238
    23  C    0.082434
    24  O   -0.223753
    25  H    0.169794
 Sum of Mulliken charges =  -0.00000

 Dipole moment (field-independent basis, Debye):
    X=              0.3632    Y=             -2.7363    Z=             -0.0001  Tot=              2.7603
 Quadrupole moment (field-independent basis, Debye-Ang):
   XX=            -82.7328   YY=            -90.2436   ZZ=           -104.1504
   XY=             -7.1359   XZ=             -0.0002   YZ=              0.0006

  Exact polarizability:     276.207     -67.215     257.804      -0.001       0.004      63.052
 Approx polarizability:     263.820     -23.497     243.796       0.000       0.004      82.271

                      1                      2                      3
                      A                      A                      A
 Frequencies --     20.5594                58.9607               122.8816
 Red. masses --      5.5726                 5.9709                 5.6612
 Frc consts  --      0.0014                 0.0122                 0.0504
 IR Inten    --      0.0256                 1.4076                 1.3198

                      4                      5                      6
                      A                      A                      A
 Frequencies --    151.4885               198.0995               244.6912
 Red. masses --      4.9159                 5.7444                 5.7902
 Frc consts  --      0.0665                 0.1328                 0.2043
 IR Inten    --      0.0607                 0.4472                 0.0915

                      7                      8                      9
                      A                      A                      A
 Frequencies --    270.8340               325.2410               333.5367
 Red. masses --      7.4540                 5.1260                 6.3923
 Frc consts  --      0.3221                 0.3195                 0.4190
 IR Inten    --      0.7966                 0.4062                 8.0057

                     10                     11                     12
                      A                      A                      A
 Frequencies --    404.2737               437.5768               464.0485
 Red. masses --      9.8481                 3.1366                 3.6835
 Frc consts  --      0.9483                 0.3539                 0.4673
 IR Inten    --      0.2750                 2.1352                 8.4434

                     13                     14                     15
                      A                      A                      A
 Frequencies --    515.1328               528.4534               539.4243
 Red. masses --      8.7131                 5.0647                 3.4746
 Frc consts  --      1.3623                 0.8333                 0.5957
 IR Inten    --      0.1710                14.7610                 3.7375

                     16                     17                     18
                      A                      A                      A
 Frequencies --    550.5897               573.4973               593.9567
 Red. masses --      7.9610                 3.6779                 7.6435
 Frc consts  --      1.4219                 0.7127                 1.5887
 IR Inten    --      3.8237                 0.0742                 4.5783

                     19                     20                     21
                      A                      A                      A
 Frequencies --    647.3916               683.8335               707.1912
 Red. masses --      6.2586                 6.3717                 6.9385
 Frc consts  --      1.5455                 1.7555                 2.0445
 IR Inten    --      0.0004                14.6215                26.0014

                     22                     23                     24
                      A                      A                      A
 Frequencies --    741.2103               754.2647               765.9340
 Red. masses --     10.0133                 2.0458                 3.1547
 Frc consts  --      3.2412                 0.6858                 1.0904
 IR Inten    --     10.5520                24.8485                 0.8714

                     25                     26                     27
                      A                      A                      A
 Frequencies --    775.3841               784.9636               845.4063
 Red. masses --      1.3468                 1.8661                 5.9773
 Frc consts  --      0.4771                 0.6775                 2.5170
 IR Inten    --     66.0730                33.7995                19.1723

                     28                     29                     30
                      A                      A                      A
 Frequencies --    883.7156               885.0964               907.8744
 Red. masses --      1.5527                 1.4282                 6.5998
 Frc consts  --      0.7144                 0.6592                 3.2050
 IR Inten    --      5.3970                 0.0088                 0.2607

                     31                     32                     33
                      A                      A                      A
 Frequencies --    961.7767               970.2404               975.6320
 Red. masses --      1.0928                 1.3541                 1.3509
 Frc consts  --      0.5956                 0.7510                 0.7576
 IR Inten    --     68.2651                 0.2169                 8.0138

                     34                     35                     36
                      A                      A                      A
 Frequencies --    991.1842              1010.7541              1015.4706
 Red. masses --      7.4806                 1.2997                 1.3053
 Frc consts  --      4.3301                 0.7823                 0.7930
 IR Inten    --     63.7436                 0.5005                 0.0729

                     37                     38                     39
                      A                      A                      A
 Frequencies --   1051.7812              1067.5004              1092.8458
 Red. masses --      2.0315                 1.9679                 4.4433
 Frc consts  --      1.3241                 1.3213                 3.1266
 IR Inten    --      8.3600                10.7202                 5.3949

                     40                     41                     42
                      A                      A                      A
 Frequencies --   1145.7757              1151.5834              1173.0559
 Red. masses --      1.5026                 1.2788                 1.1231
 Frc consts  --      1.1623                 0.9992                 0.9106
 IR Inten    --     13.0950                 3.8240                48.8505

                     43                     44                     45
                      A                      A                      A
 Frequencies --   1183.7854              1252.6063              1285.5472
 Red. masses --      1.1767                 1.9304                 1.5418
 Frc consts  --      0.9715                 1.7845                 1.5013
 IR Inten    --      0.1632               132.3367                 0.8613

                     46                     47                     48
                      A                      A                      A
 Frequencies --   1294.0751              1333.2074              1352.1423
 Red. masses --      2.4682                 6.1635                 3.3455
 Frc consts  --      2.4352                 6.4547                 3.6038
 IR Inten    --    153.4651                 5.9010                20.2864

                     49                     50                     51
                      A                      A                      A
 Frequencies --   1375.7679              1381.5178              1479.0908
 Red. masses --      7.9972                 2.8491                 2.2329
 Frc consts  --      8.9183                 3.2039                 2.8782
 IR Inten    --     15.0962                15.1750                 9.1337

                     52                     53                     54
                      A                      A                      A
 Frequencies --   1492.3254              1495.3508              1524.8789
 Red. masses --      2.9712                 2.7969                 4.0759
 Frc consts  --      3.8986                 3.6848                 5.5840
 IR Inten    --      1.5851                45.9169               109.9183

                     55                     56                     57
                      A                      A                      A
 Frequencies --   1576.7818              1592.1786              1651.9064
 Red. masses --      2.7695                 5.0229                 6.5880
 Frc consts  --      4.0569                 7.5023                10.5919
 IR Inten    --    136.5490               174.3785                 9.5323

                     58                     59                     60
                      A                      A                      A
 Frequencies --   1674.2283              1682.9613              1707.1283
 Red. masses --      3.3847                 4.5692                 4.9472
 Frc consts  --      5.5898                 7.6250                 8.4946
 IR Inten    --    170.8194                92.1897               158.7636

                     61                     62                     63
                      A                      A                      A
 Frequencies --   2791.7809              3191.4939              3205.5268
 Red. masses --      1.0749                 1.0894                 1.0884
 Frc consts  --      4.9363                 6.5380                 6.5893
 IR Inten    --   1391.3744                 4.6178                 5.2554

                     64                     65                     66
                      A                      A                      A
 Frequencies --   3212.7070              3222.8873              3226.8498
 Red. masses --      1.0861                 1.0904                 1.0937
 Frc consts  --      6.6045                 6.6730                 6.7095
 IR Inten    --      1.0843                 3.0396                12.4139

                     67                     68                     69
                      A                      A                      A
 Frequencies --   3232.3920              3234.0304              3239.2151
 Red. masses --      1.0961                 1.0990                 1.1000
 Frc consts  --      6.7473                 6.7722                 6.8004
 IR Inten    --     10.1045                18.2156                14.0798

 - Thermochemistry -
 -------------------
 Temperature   298.150 Kelvin.  Pressure   1.00000 Atm.
 Atom     1 has atomic number  6 and mass  12.00000

 Molecular mass:   227.04049 amu.
 Principal axes and moments of inertia in atomic units:
                           1         2         3
     Eigenvalues --  1329.143596299.032417628.17599
           X           -0.70091   0.71325  -0.00000
           Y            0.71325   0.70091  -0.00001
           Z            0.00001   0.00001   1.00000
 This molecule is an asymmetric top.
 Rotational symmetry number  1.
 Warning -- assumption of classical behavior for rotation
           may cause significant error
 Rotational temperatures (Kelvin)      0.06517     0.01375     0.01135
 Rotational constants (GHZ):           1.35782     0.28651     0.23659
 Zero-point vibrational energy     497739.1 (Joules/Mol)
                                  118.96249 (Kcal/Mol)
 Warning -- explicit consideration of  18 degrees of freedom as
           vibrations may cause significant error
 Vibrational temperatures:     29.58    84.83   176.80   217.96   285.02
          (Kelvin)            352.06   389.67   467.95   479.88   581.66
                              629.58   667.66   741.16   760.33   776.11
                              792.18   825.13   854.57   931.45   983.88
                             1017.49  1066.44  1085.22  1102.01  1115.60
                             1129.39  1216.35  1271.47  1273.46  1306.23
                             1383.78  1395.96  1403.72  1426.09  1454.25
                             1461.04  1513.28  1535.89  1572.36  1648.52
                             1656.87  1687.77  1703.20  1802.22  1849.62
                             1861.89  1918.19  1945.43  1979.42  1987.70
                             2128.08  2147.12  2151.48  2193.96  2268.64
                             2290.79  2376.72  2408.84  2421.41  2456.18
                             4016.75  4591.85  4612.04  4622.37  4637.02
                             4642.72  4650.69  4653.05  4660.51

 Zero-point correction=                           0.189579 (Hartree/Particle)
 Thermal correction to Energy=                    0.201264
 Thermal correction to Enthalpy=                  0.202208
 Thermal correction to Gibbs Free Energy=         0.150242
 Sum of electronic and zero-point Energies=          -1028.634338
 Sum of electronic and thermal Energies=             -1028.622653
 Sum of electronic and thermal Enthalpies=           -1028.621708
 Sum of electronic and thermal Free Energies=        -1028.673675

                     E (Thermal)             CV                S
                      KCal/Mol        Cal/Mol-Kelvin    Cal/Mol-Kelvin
 Total                  126.295             47.349            109.372
 Electronic               0.000              0.000              0.000
 Translational            0.889              2.981             42.162
 Rotational               0.889              2.981             32.524
 Vibrational            124.518             41.387             34.686
 Vibration     1          0.593              1.986              6.579
 Vibration     2          0.596              1.974              4.492
 Vibration     3          0.610              1.930              3.055
 Vibration     4          0.619              1.901              2.653
 Vibration     5          0.637              1.843              2.151
 Vibration     6          0.660              1.772              1.769
 Vibration     7          0.675              1.727              1.591
 Vibration     8          0.709              1.625              1.284
 Vibration     9          0.715              1.609              1.243
 Vibration    10          0.769              1.461              0.947
 Vibration    11          0.798              1.388              0.834
 Vibration    12          0.822              1.330              0.754
 Vibration    13          0.870              1.216              0.621
 Vibration    14          0.883              1.187              0.591
 Vibration    15          0.894              1.163              0.567
 Vibration    16          0.906              1.138              0.543
 Vibration    17          0.930              1.089              0.498
 Vibration    18          0.952              1.045              0.460

 Optimization completed.
    -- Stationary point found.
 Normal termination of Gaussian 16 at Tue Oct 27 21:21:45 2020.
