 Gaussian 16, Revision C.01,
 Gaussian 16:  ES64L-G16RevC.01  3-Jul-2019

 ----------------------------------------------------------------------
 #p opt=addgic freq wb97xd/cc-pvdz nosymm int=ultrafine scrf=(solvent=C
 arbonTetraChloride)
 ----------------------------------------------------------------------

 ------------------------------------------------
 NM 2D-scan of HBT TD-WB97XD pVDZ in CTC Relaxed.
 ------------------------------------------------
 Symbolic Z-matrix:
 Charge =  0 Multiplicity = 1

 SCF Done:  E(RwB97XD) =  -1028.60062066     A.U. after   16 cycles
 SCF Done:  E(RwB97XD) =  -1028.74778758     A.U. after   14 cycles
 SCF Done:  E(RwB97XD) =  -1028.77426260     A.U. after   14 cycles
 SCF Done:  E(RwB97XD) =  -1028.79100750     A.U. after   14 cycles
 SCF Done:  E(RwB97XD) =  -1028.79182520     A.U. after   12 cycles
 SCF Done:  E(RwB97XD) =  -1028.79218263     A.U. after   12 cycles
 SCF Done:  E(RwB97XD) =  -1028.79221361     A.U. after   10 cycles
 SCF Done:  E(RwB97XD) =  -1028.79221626     A.U. after    9 cycles
 Optimization completed.
    -- Stationary point found.
 Normal termination of Gaussian 16 at Tue Oct 27 22:09:41 2020.

 --------------------------------------------------------------------
 #P Geom=AllCheck Guess=TCheck SCRF=Check GenChk RwB97XD/CC-pVDZ Freq
 --------------------------------------------------------------------

 Structure from the checkpoint file:  "config_12_6.chk"
 ------------------------------------------------
 NM 2D-scan of HBT TD-WB97XD pVDZ in CTC Relaxed.
 ------------------------------------------------
 Charge =  0 Multiplicity = 1

                          Input orientation:
 ---------------------------------------------------------------------
 Center     Atomic      Atomic             Coordinates (Angstroms)
 Number     Number       Type             X           Y           Z
 ---------------------------------------------------------------------
      1          6           0        1.707653   -3.280198    0.000103
      2          6           0        1.016815   -2.072680    0.000045
      3          6           0        1.716455   -0.886096   -0.000067
      4          6           0        3.107973   -0.820329   -0.000099
      5          6           0        3.795117   -2.029724   -0.000031
      6          6           0        3.101582   -3.243797    0.000063
      7          1           0        1.177365   -4.232025    0.000171
      8          1           0        3.629388    0.137754   -0.000177
      9          1           0        4.885688   -2.026688   -0.000054
     10          1           0        3.657749   -4.181564    0.000105
     11          7           0        0.844011    0.178876   -0.000155
     12         16           0       -0.735256   -1.729697    0.000067
     13          6           0       -1.415106    1.080027   -0.000077
     14          6           0       -2.817795    0.890239   -0.000135
     15          6           0       -0.831774    2.429969    0.000063
     16          6           0       -3.696576    1.953331   -0.000041
     17          1           0       -3.212607   -0.130455   -0.000265
     18          6           0       -1.827320    3.506892    0.000209
     19          6           0       -3.179004    3.274606    0.000154
     20          1           0       -4.772745    1.778535   -0.000097
     21          1           0       -1.435060    4.525892    0.000357
     22          1           0       -3.874271    4.118318    0.000257
     23          6           0       -0.487844   -0.000955   -0.000088
     24          8           0        0.392519    2.612690    0.000080
     25          1           0        1.356576    1.018881   -0.000314
 ---------------------------------------------------------------------

 SCF Done:  E(RwB97XD) =  -1028.79221626     A.U. after    1 cycles

 Alpha  occ. eigenvalues --  -89.10135 -19.21139 -14.51623 -10.41891 -10.36740
 Alpha  occ. eigenvalues --  -10.36053 -10.35901 -10.33431 -10.33096 -10.32707
 Alpha  occ. eigenvalues --  -10.32359 -10.31104 -10.30648 -10.30574 -10.29029
 Alpha  occ. eigenvalues --  -10.28492  -8.12124  -6.07022  -6.06620  -6.06125
 Alpha  occ. eigenvalues --   -1.13452  -1.10292  -0.98689  -0.95175  -0.93251
 Alpha  occ. eigenvalues --   -0.89281  -0.86518  -0.84100  -0.81522  -0.75690
 Alpha  occ. eigenvalues --   -0.74270  -0.71556  -0.69560  -0.67748  -0.64350
 Alpha  occ. eigenvalues --   -0.60898  -0.59830  -0.56625  -0.56068  -0.55989
 Alpha  occ. eigenvalues --   -0.55033  -0.53540  -0.52867  -0.50432  -0.49384
 Alpha  occ. eigenvalues --   -0.49026  -0.48180  -0.46678  -0.45656  -0.44719
 Alpha  occ. eigenvalues --   -0.44534  -0.42882  -0.41717  -0.40401  -0.36937
 Alpha  occ. eigenvalues --   -0.33646  -0.31711  -0.31208  -0.26084
 Alpha virt. eigenvalues --   -0.01354   0.03684   0.06087   0.06769   0.09611
 Alpha virt. eigenvalues --    0.11194   0.12479   0.14565   0.15903   0.16883
 Alpha virt. eigenvalues --    0.18455   0.19803   0.21110   0.21637   0.23021

 Mulliken charges:
               1
     1  C    0.009015
     2  C   -0.250027
     3  C    0.223692
     4  C   -0.013740
     5  C    0.012897
     6  C    0.002782
     7  H    0.025331
     8  H    0.033624
     9  H    0.028062
    10  H    0.026307
    11  N   -0.076225
    12  S    0.177049
    13  C   -0.125882
    14  C   -0.005213
    15  C    0.112198
    16  C   -0.036400
    17  H    0.001689
    18  C   -0.041020
    19  C    0.028927
    20  H    0.002523
    21  H    0.000478
    22  H    0.013321
    23  C    0.103585
    24  O   -0.366599
    25  H    0.113626
 Sum of Mulliken charges =  -0.00000

 Dipole moment (field-independent basis, Debye):
    X=              2.2065    Y=             -5.1843    Z=             -0.0004  Tot=              5.6344
 Quadrupole moment (field-independent basis, Debye-Ang):
   XX=            -81.5805   YY=            -94.8335   ZZ=           -104.0411
   XY=             -6.7126   XZ=             -0.0008   YZ=             -0.0007

  Exact polarizability:     291.744     -91.362     289.748      -0.002       0.003      62.994
 Approx polarizability:     269.266     -36.500     255.862      -0.002       0.002      82.000

 ******    1 imaginary frequencies (negative Signs) ******

                      1                      2                      3
                      A                      A                      A
 Frequencies --    -67.0253                46.7497                76.5576
 Red. masses --      3.3894                 5.5297                 5.5500
 Frc consts  --      0.0090                 0.0071                 0.0192
 IR Inten    --      6.4285                 0.0318                 2.9184

                      4                      5                      6
                      A                      A                      A
 Frequencies --    108.5381               184.7928               220.5835
 Red. masses --      5.6423                 4.8451                 5.0440
 Frc consts  --      0.0392                 0.0975                 0.1446
 IR Inten    --      0.6184                 2.1876                 9.2819

                      7                      8                      9
                      A                      A                      A
 Frequencies --    264.3129               282.1811               319.5397
 Red. masses --      7.3657                 2.7406                 7.1999
 Frc consts  --      0.3032                 0.1286                 0.4331
 IR Inten    --      3.3007                21.0873                 5.3517

                     10                     11                     12
                      A                      A                      A
 Frequencies --    361.6060               380.9213               434.0817
 Red. masses --      1.8879                 8.1672                 2.8264
 Frc consts  --      0.1454                 0.6982                 0.3138
 IR Inten    --     37.4867                 5.7529                 6.1198

                     13                     14                     15
                      A                      A                      A
 Frequencies --    441.7126               498.8946               525.0574
 Red. masses --      3.4984                 7.7536                 2.7142
 Frc consts  --      0.4022                 1.1370                 0.4409
 IR Inten    --      5.4698                 8.3335                 2.7215

                     16                     17                     18
                      A                      A                      A
 Frequencies --    537.1299               548.0405               562.0838
 Red. masses --      8.6635                 6.6108                 3.7573
 Frc consts  --      1.4727                 1.1699                 0.6994
 IR Inten    --      9.8584                 2.5884                 0.0579

                     19                     20                     21
                      A                      A                      A
 Frequencies --    582.8357               632.3791               662.4953
 Red. masses --      7.3897                 6.9441                 6.0922
 Frc consts  --      1.4790                 1.6361                 1.5754
 IR Inten    --     40.4708                 1.4089                 3.6596

                     22                     23                     24
                      A                      A                      A
 Frequencies --    693.1849               738.1340               750.1817
 Red. masses --      5.8274                 7.4417                 2.7287
 Frc consts  --      1.6498                 2.3889                 0.9048
 IR Inten    --     44.5321                38.5632                 8.2980

                     25                     26                     27
                      A                      A                      A
 Frequencies --    759.6698               775.7678               778.9895
 Red. masses --      1.4260                 1.5368                 2.4309
 Frc consts  --      0.4849                 0.5449                 0.8691
 IR Inten    --     47.8667                49.9814                25.6181

                     28                     29                     30
                      A                      A                      A
 Frequencies --    825.8465               875.6789               879.6426
 Red. masses --      6.1717                 2.0035                 1.3746
 Frc consts  --      2.4800                 0.9052                 0.6267
 IR Inten    --     27.8902                14.6414                 1.0010

                     31                     32                     33
                      A                      A                      A
 Frequencies --    905.9893               968.4965               969.0610
 Red. masses --      5.9901                 1.3229                 4.0410
 Frc consts  --      2.8969                 0.7311                 2.2359
 IR Inten    --      4.5790                 0.1916                29.0972

                     34                     35                     36
                      A                      A                      A
 Frequencies --    971.3086              1014.8544              1016.0937
 Red. masses --      1.3563                 1.3017                 1.3036
 Frc consts  --      0.7539                 0.7899                 0.7930
 IR Inten    --      1.3499                 0.0020                 0.3347

                     37                     38                     39
                      A                      A                      A
 Frequencies --   1044.6576              1060.0886              1087.7447
 Red. masses --      2.0889                 2.2139                 2.5550
 Frc consts  --      1.3431                 1.4659                 1.7811
 IR Inten    --      6.8806                11.7960                42.0580

                     40                     41                     42
                      A                      A                      A
 Frequencies --   1096.0424              1155.1821              1157.1065
 Red. masses --      2.4244                 1.2631                 1.3344
 Frc consts  --      1.7160                 0.9931                 1.0526
 IR Inten    --     46.5923                43.2951                 4.4344

                     43                     44                     45
                      A                      A                      A
 Frequencies --   1179.7647              1187.4952              1225.6444
 Red. masses --      1.1573                 1.1460                 2.2752
 Frc consts  --      0.9490                 0.9521                 2.0137
 IR Inten    --     53.0395                 3.0523                59.3697

                     46                     47                     48
                      A                      A                      A
 Frequencies --   1283.0930              1304.1028              1366.0487
 Red. masses --      2.1831                 1.6475                 2.5161
 Frc consts  --      2.1176                 1.6508                 2.7664
 IR Inten    --    128.9663               110.0397                74.6401

                     49                     50                     51
                      A                      A                      A
 Frequencies --   1374.5568              1397.5144              1413.5572
 Red. masses --      6.3556                 6.1743                 2.2357
 Frc consts  --      7.0751                 7.1048                 2.6320
 IR Inten    --     27.7565               106.3227                 7.5687

                     52                     53                     54
                      A                      A                      A
 Frequencies --   1483.6201              1502.8520              1533.2298
 Red. masses --      3.0934                 3.1590                 3.2234
 Frc consts  --      4.0118                 4.2038                 4.4645
 IR Inten    --    630.5056               817.2602               754.8002

                     55                     56                     57
                      A                      A                      A
 Frequencies --   1545.1926              1587.6527              1651.9317
 Red. masses --      3.8470                 6.6530                 6.1087
 Frc consts  --      5.4117                 9.8805                 9.8216
 IR Inten    --    232.6357                64.8167                51.1797

                     58                     59                     60
                      A                      A                      A
 Frequencies --   1679.5942              1712.0546              1740.0769
 Red. masses --      7.0892                 8.0677                 9.2205
 Frc consts  --     11.7830                13.9328                16.4490
 IR Inten    --     46.8493                45.8749               421.9933

                     61                     62                     63
                      A                      A                      A
 Frequencies --   3175.1085              3188.8161              3214.4210
 Red. masses --      1.0896                 1.0877                 1.0945
 Frc consts  --      6.4718                 6.5166                 6.6630
 IR Inten    --      6.0227                14.5005                29.2451

                     64                     65                     66
                      A                      A                      A
 Frequencies --   3217.7364              3228.6820              3230.6431
 Red. masses --      1.0868                 1.0910                 1.0965
 Frc consts  --      6.6298                 6.7010                 6.7426
 IR Inten    --      2.3658                 1.3531                19.5109

                     67                     68                     69
                      A                      A                      A
 Frequencies --   3236.3574              3245.4938              3956.9282
 Red. masses --      1.0965                 1.0991                 1.0781
 Frc consts  --      6.7668                 6.8210                 9.9454
 IR Inten    --      3.7526                12.4984               122.9891

 - Thermochemistry -
 -------------------
 Temperature   298.150 Kelvin.  Pressure   1.00000 Atm.
 Atom     1 has atomic number  6 and mass  12.00000

 Molecular mass:   227.04049 amu.
 Principal axes and moments of inertia in atomic units:
                           1         2         3
     Eigenvalues --  1290.745806402.938197693.68397
           X           -0.70703   0.70718   0.00000
           Y            0.70718   0.70703  -0.00001
           Z            0.00001   0.00000   1.00000
 This molecule is an asymmetric top.
 Rotational symmetry number  1.
 Warning -- assumption of classical behavior for rotation
           may cause significant error
 Rotational temperatures (Kelvin)      0.06710     0.01353     0.01126
 Rotational constants (GHZ):           1.39822     0.28186     0.23457
    1 imaginary frequencies ignored.
 Zero-point vibrational energy     496787.5 (Joules/Mol)
                                  118.73506 (Kcal/Mol)
 Warning -- explicit consideration of  18 degrees of freedom as
           vibrations may cause significant error
 Vibrational temperatures:     67.26   110.15   156.16   265.88   317.37
          (Kelvin)            380.29   406.00   459.75   520.27   548.06
                              624.55   635.53   717.80   755.44   772.81
                              788.51   808.71   838.57   909.85   953.18
                              997.34  1062.01  1079.34  1093.00  1116.16
                             1120.79  1188.21  1259.91  1265.61  1303.52
                             1393.45  1394.26  1397.50  1460.15  1461.93
                             1503.03  1525.23  1565.02  1576.96  1662.05
                             1664.82  1697.42  1708.54  1763.43  1846.08
                             1876.31  1965.44  1977.68  2010.71  2033.79
                             2134.60  2162.27  2205.98  2223.19  2284.28
                             2376.76  2416.56  2463.26  2503.58  4568.27
                             4588.00  4624.83  4629.60  4645.35  4648.17
                             4656.40  4669.54  5693.14

 Zero-point correction=                           0.189216 (Hartree/Particle)
 Thermal correction to Energy=                    0.200770
 Thermal correction to Enthalpy=                  0.201714
 Thermal correction to Gibbs Free Energy=         0.150919
 Sum of electronic and zero-point Energies=          -1028.603000
 Sum of electronic and thermal Energies=             -1028.591446
 Sum of electronic and thermal Enthalpies=           -1028.590502
 Sum of electronic and thermal Free Energies=        -1028.641298

                     E (Thermal)             CV                S
                      KCal/Mol        Cal/Mol-Kelvin    Cal/Mol-Kelvin
 Total                  125.985             47.343            106.908
 Electronic               0.000              0.000              0.000
 Translational            0.889              2.981             42.162
 Rotational               0.889              2.981             32.519
 Vibrational            124.208             41.381             32.227
 Vibration     1          0.595              1.979              4.950
 Vibration     2          0.599              1.965              3.977
 Vibration     3          0.606              1.942              3.295
 Vibration     4          0.631              1.861              2.279
 Vibration     5          0.647              1.810              1.954
 Vibration     6          0.671              1.738              1.633
 Vibration     7          0.681              1.707              1.520
 Vibration     8          0.705              1.636              1.312
 Vibration     9          0.736              1.551              1.115
 Vibration    10          0.751              1.511              1.036
 Vibration    11          0.795              1.396              0.845
 Vibration    12          0.801              1.379              0.821
 Vibration    13          0.854              1.252              0.661
 Vibration    14          0.880              1.195              0.598
 Vibration    15          0.892              1.168              0.571
 Vibration    16          0.903              1.144              0.548
 Vibration    17          0.918              1.113              0.520
 Vibration    18          0.940              1.068              0.480

 Optimization completed.
    -- Stationary point found.
 Normal termination of Gaussian 16 at Tue Oct 27 22:15:47 2020.
