 Gaussian 16, Revision C.01,
 Gaussian 16:  ES64L-G16RevC.01  3-Jul-2019

 ----------------------------------------------------------------------
 #p opt=addgic freq wb97xd/cc-pvdz nosymm int=ultrafine scrf=(solvent=C
 arbonTetraChloride)
 ----------------------------------------------------------------------

 ------------------------------------------------
 NM 2D-scan of HBT TD-WB97XD pVDZ in CTC Relaxed.
 ------------------------------------------------
 Symbolic Z-matrix:
 Charge =  0 Multiplicity = 1

 SCF Done:  E(RwB97XD) =  -1028.80730163     A.U. after   15 cycles
 SCF Done:  E(RwB97XD) =  -1028.81426728     A.U. after   13 cycles
 SCF Done:  E(RwB97XD) =  -1028.81592677     A.U. after   13 cycles
 SCF Done:  E(RwB97XD) =  -1028.81630446     A.U. after   12 cycles
 SCF Done:  E(RwB97XD) =  -1028.81641524     A.U. after   11 cycles
 SCF Done:  E(RwB97XD) =  -1028.81643432     A.U. after   10 cycles
 Optimization completed.
    -- Stationary point found.
 Normal termination of Gaussian 16 at Tue Oct 27 20:31:27 2020.

 --------------------------------------------------------------------
 #P Geom=AllCheck Guess=TCheck SCRF=Check GenChk RwB97XD/CC-pVDZ Freq
 --------------------------------------------------------------------

 Structure from the checkpoint file:  "config_7_1.chk"
 ------------------------------------------------
 NM 2D-scan of HBT TD-WB97XD pVDZ in CTC Relaxed.
 ------------------------------------------------
 Charge =  0 Multiplicity = 1

                          Input orientation:
 ---------------------------------------------------------------------
 Center     Atomic      Atomic             Coordinates (Angstroms)
 Number     Number       Type             X           Y           Z
 ---------------------------------------------------------------------
      1          6           0        1.760164   -3.261267   -0.000050
      2          6           0        1.007348   -2.083663   -0.000005
      3          6           0        1.652433   -0.843974    0.000017
      4          6           0        3.045318   -0.733375    0.000006
      5          6           0        3.788233   -1.903029   -0.000035
      6          6           0        3.148778   -3.152691   -0.000064
      7          1           0        1.280548   -4.240244   -0.000064
      8          1           0        3.512883    0.251471    0.000023
      9          1           0        4.877867   -1.853866   -0.000046
     10          1           0        3.750187   -4.062868   -0.000094
     11          7           0        0.780523    0.210558    0.000031
     12         16           0       -0.746694   -1.831464    0.000050
     13          6           0       -1.432173    1.038962    0.000015
     14          6           0       -2.832024    0.921397    0.000002
     15          6           0       -0.834491    2.348960    0.000025
     16          6           0       -3.652931    2.041356    0.000005
     17          1           0       -3.280156   -0.075758   -0.000011
     18          6           0       -1.697965    3.469873    0.000042
     19          6           0       -3.072155    3.319025    0.000031
     20          1           0       -4.737039    1.926645   -0.000007
     21          1           0       -1.232762    4.456533    0.000063
     22          1           0       -3.710561    4.205152    0.000041
     23          6           0       -0.494281   -0.085729    0.000023
     24          8           0        0.460194    2.534716    0.000042
     25          1           0        0.885536    1.526540    0.000039
 ---------------------------------------------------------------------

 SCF Done:  E(RwB97XD) =  -1028.81643432     A.U. after    1 cycles

 Alpha  occ. eigenvalues --  -89.09537 -19.25185 -14.47540 -10.40285 -10.36808
 Alpha  occ. eigenvalues --  -10.35433 -10.35378 -10.32846 -10.32083 -10.32036
 Alpha  occ. eigenvalues --  -10.31964 -10.31904 -10.31614 -10.31006 -10.29716
 Alpha  occ. eigenvalues --  -10.29382  -8.11483  -6.06356  -6.05984  -6.05519
 Alpha  occ. eigenvalues --   -1.14923  -1.09776  -0.97632  -0.95577  -0.91932
 Alpha  occ. eigenvalues --   -0.88784  -0.85536  -0.84112  -0.82903  -0.75698
 Alpha  occ. eigenvalues --   -0.71582  -0.70411  -0.69025  -0.68656  -0.63296
 Alpha  occ. eigenvalues --   -0.60783  -0.59170  -0.57817  -0.56018  -0.54768
 Alpha  occ. eigenvalues --   -0.54489  -0.53504  -0.52246  -0.51168  -0.49877
 Alpha  occ. eigenvalues --   -0.49758  -0.47422  -0.46238  -0.45212  -0.45151
 Alpha  occ. eigenvalues --   -0.43892  -0.42993  -0.42239  -0.40191  -0.36298
 Alpha  occ. eigenvalues --   -0.35142  -0.32742  -0.31509  -0.28210
 Alpha virt. eigenvalues --   -0.00705   0.04394   0.06863   0.07264   0.07843
 Alpha virt. eigenvalues --    0.11060   0.13010   0.14965   0.16000   0.17792
 Alpha virt. eigenvalues --    0.19147   0.20712   0.21720   0.22352   0.22665

 Mulliken charges:
               1
     1  C    0.006793
     2  C   -0.238458
     3  C    0.277088
     4  C   -0.010761
     5  C    0.009621
     6  C    0.000684
     7  H    0.022446
     8  H    0.025557
     9  H    0.023050
    10  H    0.023789
    11  N   -0.299662
    12  S    0.161743
    13  C   -0.109965
    14  C   -0.010604
    15  C    0.099412
    16  C   -0.019127
    17  H    0.004596
    18  C   -0.003087
    19  C    0.022818
    20  H    0.007245
    21  H    0.010085
    22  H    0.015882
    23  C    0.078299
    24  O   -0.281000
    25  H    0.183554
 Sum of Mulliken charges =  -0.00000

 Dipole moment (field-independent basis, Debye):
    X=              0.7298    Y=             -3.4152    Z=             -0.0000  Tot=              3.4923
 Quadrupole moment (field-independent basis, Debye-Ang):
   XX=            -82.7479   YY=            -91.0534   ZZ=           -104.0925
   XY=             -7.1107   XZ=             -0.0002   YZ=              0.0002

  Exact polarizability:     278.298     -70.320     262.244      -0.001       0.002      63.030
 Approx polarizability:     264.855     -25.247     246.183      -0.001       0.002      82.261

 ******    1 imaginary frequencies (negative Signs) ******

                      1                      2                      3
                      A                      A                      A
 Frequencies --    -24.3335                62.1219               118.8255
 Red. masses --      5.5219                 6.0796                 5.4511
 Frc consts  --      0.0019                 0.0138                 0.0453
 IR Inten    --      0.0533                 1.6054                 7.3555

                      4                      5                      6
                      A                      A                      A
 Frequencies --    150.8417               196.6139               243.4192
 Red. masses --      4.9710                 5.7408                 5.8356
 Frc consts  --      0.0666                 0.1308                 0.2037
 IR Inten    --      0.2595                 0.2844                 0.2120

                      7                      8                      9
                      A                      A                      A
 Frequencies --    269.1253               322.9488               329.5420
 Red. masses --      7.2101                 5.1958                 4.7604
 Frc consts  --      0.3077                 0.3193                 0.3046
 IR Inten    --      4.8206                 0.5425                78.9545

                     10                     11                     12
                      A                      A                      A
 Frequencies --    405.0754               435.3349               459.5790
 Red. masses --      9.4897                 3.1244                 3.6559
 Frc consts  --      0.9174                 0.3489                 0.4550
 IR Inten    --      3.1176                 2.1546                 8.6835

                     13                     14                     15
                      A                      A                      A
 Frequencies --    489.7737               515.8546               539.9125
 Red. masses --      4.0496                 8.6141                 3.4207
 Frc consts  --      0.5723                 1.3506                 0.5875
 IR Inten    --    114.5334                 5.7105                 3.8357

                     16                     17                     18
                      A                      A                      A
 Frequencies --    557.4097               572.1143               590.1300
 Red. masses --      7.4044                 3.6359                 7.7883
 Frc consts  --      1.3555                 0.7012                 1.5980
 IR Inten    --     13.8558                 0.1362                 2.5449

                     19                     20                     21
                      A                      A                      A
 Frequencies --    648.3521               685.9604               708.2482
 Red. masses --      6.4773                 6.2975                 6.6803
 Frc consts  --      1.6042                 1.7459                 1.9743
 IR Inten    --      0.0205                31.7138                22.9737

                     22                     23                     24
                      A                      A                      A
 Frequencies --    753.2556               766.3187               767.8010
 Red. masses --      2.1469                 9.5053                 2.2991
 Frc consts  --      0.7177                 3.2888                 0.7986
 IR Inten    --     21.0955                10.8861                11.2278

                     25                     26                     27
                      A                      A                      A
 Frequencies --    774.5921               782.3531               846.7341
 Red. masses --      1.6115                 1.7975                 5.9790
 Frc consts  --      0.5697                 0.6482                 2.5257
 IR Inten    --     57.8950                34.9386                15.6925

                     28                     29                     30
                      A                      A                      A
 Frequencies --    881.8168               883.5826               914.6991
 Red. masses --      1.5878                 1.4236                 6.0082
 Frc consts  --      0.7274                 0.6548                 2.9618
 IR Inten    --      6.5450                 0.0239                18.9053

                     31                     32                     33
                      A                      A                      A
 Frequencies --    969.0616               974.0914               993.1827
 Red. masses --      1.3509                 1.3610                 5.7521
 Frc consts  --      0.7475                 0.7608                 3.3430
 IR Inten    --      1.0395                 0.8629               184.1984

                     34                     35                     36
                      A                      A                      A
 Frequencies --   1010.6105              1015.6301              1051.9135
 Red. masses --      1.2993                 1.3059                 2.0888
 Frc consts  --      0.7818                 0.7937                 1.3618
 IR Inten    --      0.2152                 0.0074                22.8497

                     37                     38                     39
                      A                      A                      A
 Frequencies --   1061.5190              1080.9776              1094.7692
 Red. masses --      2.0005                 2.7337                 3.3066
 Frc consts  --      1.3282                 1.8820                 2.3349
 IR Inten    --     24.4203               236.9731                63.0678

                     40                     41                     42
                      A                      A                      A
 Frequencies --   1129.0767              1148.0280              1154.7106
 Red. masses --      1.0639                 1.4787                 1.3248
 Frc consts  --      0.7991                 1.1482                 1.0408
 IR Inten    --     67.4218                 5.6976                 0.7317

                     43                     44                     45
                      A                      A                      A
 Frequencies --   1180.9086              1184.8914              1256.5948
 Red. masses --      1.1094                 1.1466                 2.0860
 Frc consts  --      0.9115                 0.9485                 1.9407
 IR Inten    --    128.5351                61.4284               108.0996

                     46                     47                     48
                      A                      A                      A
 Frequencies --   1287.5938              1310.2690              1342.3551
 Red. masses --      1.5236                 2.5653                 7.3080
 Frc consts  --      1.4882                 2.5948                 7.7586
 IR Inten    --      2.6509               315.4112                 0.9139

                     49                     50                     51
                      A                      A                      A
 Frequencies --   1379.7692              1387.9804              1412.1065
 Red. masses --      7.0637                 2.5825                 2.3581
 Frc consts  --      7.9231                 2.9312                 2.7704
 IR Inten    --     10.7182                16.0568                29.9748

                     52                     53                     54
                      A                      A                      A
 Frequencies --   1495.1757              1501.2305              1533.2541
 Red. masses --      2.6922                 2.8987                 4.4006
 Frc consts  --      3.5460                 3.8490                 6.0952
 IR Inten    --     14.4199                32.8331                31.2130

                     55                     56                     57
                      A                      A                      A
 Frequencies --   1581.6832              1594.2773              1629.2437
 Red. masses --      7.3201                 3.3406                 4.7825
 Frc consts  --     10.7896                 5.0027                 7.4796
 IR Inten    --    402.7421               324.4297               844.0481

                     58                     59                     60
                      A                      A                      A
 Frequencies --   1660.0291              1690.3303              1711.3235
 Red. masses --      7.0809                 6.5150                 4.3554
 Frc consts  --     11.4966                10.9675                 7.5152
 IR Inten    --     12.3677                99.7630               265.8599

                     61                     62                     63
                      A                      A                      A
 Frequencies --   1939.6016              3188.7669              3202.2483
 Red. masses --      1.1192                 1.0895                 1.0883
 Frc consts  --      2.4807                 6.5270                 6.5752
 IR Inten    --    418.5304                 4.5533                 7.2358

                     64                     65                     66
                      A                      A                      A
 Frequencies --   3214.0229              3224.2508              3224.6899
 Red. masses --      1.0862                 1.0905                 1.0936
 Frc consts  --      6.6106                 6.6796                 6.6999
 IR Inten    --      1.0246                 3.1428                13.3471

                     67                     68                     69
                      A                      A                      A
 Frequencies --   3232.3475              3233.5552              3240.3887
 Red. masses --      1.0986                 1.0961                 1.1000
 Frc consts  --      6.7627                 6.7524                 6.8052
 IR Inten    --     20.4422                 8.9478                12.3803

 - Thermochemistry -
 -------------------
 Temperature   298.150 Kelvin.  Pressure   1.00000 Atm.
 Atom     1 has atomic number  6 and mass  12.00000

 Molecular mass:   227.04049 amu.
 Principal axes and moments of inertia in atomic units:
                           1         2         3
     Eigenvalues --  1321.982506258.643767580.62626
           X           -0.70453   0.70967   0.00000
           Y            0.70967   0.70453  -0.00001
           Z            0.00001   0.00000   1.00000
 This molecule is an asymmetric top.
 Rotational symmetry number  1.
 Warning -- assumption of classical behavior for rotation
           may cause significant error
 Rotational temperatures (Kelvin)      0.06552     0.01384     0.01143
 Rotational constants (GHZ):           1.36518     0.28836     0.23807
    1 imaginary frequencies ignored.
 Zero-point vibrational energy     491634.1 (Joules/Mol)
                                  117.50336 (Kcal/Mol)
 Warning -- explicit consideration of  17 degrees of freedom as
           vibrations may cause significant error
 Vibrational temperatures:     89.38   170.96   217.03   282.88   350.23
          (Kelvin)            387.21   464.65   474.14   582.81   626.35
                              661.23   704.68   742.20   776.81   801.99
                              823.14   849.07   932.83   986.94  1019.01
                             1083.77  1102.56  1104.69  1114.47  1125.63
                             1218.26  1268.74  1271.28  1316.05  1394.26
                             1401.50  1428.97  1454.04  1461.27  1513.47
                             1527.29  1555.29  1575.13  1624.49  1651.76
                             1661.37  1699.06  1704.79  1807.96  1852.56
                             1885.18  1931.35  1985.18  1996.99  2031.71
                             2151.22  2159.94  2206.01  2275.69  2293.81
                             2344.12  2388.41  2432.01  2462.21  2790.65
                             4587.92  4607.32  4624.26  4638.98  4639.61
                             4650.63  4652.36  4662.20

 Zero-point correction=                           0.187254 (Hartree/Particle)
 Thermal correction to Energy=                    0.198074
 Thermal correction to Enthalpy=                  0.199019
 Thermal correction to Gibbs Free Energy=         0.150139
 Sum of electronic and zero-point Energies=          -1028.629181
 Sum of electronic and thermal Energies=             -1028.618360
 Sum of electronic and thermal Enthalpies=           -1028.617416
 Sum of electronic and thermal Free Energies=        -1028.666295

                     E (Thermal)             CV                S
                      KCal/Mol        Cal/Mol-Kelvin    Cal/Mol-Kelvin
 Total                  124.294             45.440            102.875
 Electronic               0.000              0.000              0.000
 Translational            0.889              2.981             42.162
 Rotational               0.889              2.981             32.506
 Vibrational            122.516             39.478             28.207
 Vibration     1          0.597              1.972              4.389
 Vibration     2          0.609              1.934              3.119
 Vibration     3          0.618              1.902              2.662
 Vibration     4          0.636              1.845              2.165
 Vibration     5          0.659              1.774              1.778
 Vibration     6          0.674              1.730              1.602
 Vibration     7          0.708              1.630              1.295
 Vibration     8          0.712              1.616              1.262
 Vibration     9          0.770              1.459              0.944
 Vibration    10          0.796              1.393              0.841
 Vibration    11          0.818              1.340              0.767
 Vibration    12          0.846              1.273              0.684
 Vibration    13          0.871              1.215              0.620
 Vibration    14          0.895              1.162              0.565
 Vibration    15          0.913              1.123              0.529
 Vibration    16          0.928              1.092              0.500
 Vibration    17          0.947              1.053              0.467

                           ! Non-Optimized Parameters !
 Normal termination of Gaussian 16 at Tue Oct 27 20:37:35 2020.
