 Gaussian 16, Revision C.01,
 Gaussian 16:  ES64L-G16RevC.01  3-Jul-2019

 ----------------------------------------------------------------------
 #p opt=addgic freq wb97xd/cc-pvdz nosymm int=ultrafine scrf=(solvent=C
 arbonTetraChloride)
 ----------------------------------------------------------------------

 ------------------------------------------------
 NM 2D-scan of HBT TD-WB97XD pVDZ in CTC Relaxed.
 ------------------------------------------------
 Symbolic Z-matrix:
 Charge =  0 Multiplicity = 1

 SCF Done:  E(RwB97XD) =  -1028.66443749     A.U. after   15 cycles
 SCF Done:  E(RwB97XD) =  -1028.79722494     A.U. after   13 cycles
 SCF Done:  E(RwB97XD) =  -1028.80488633     A.U. after   15 cycles
 SCF Done:  E(RwB97XD) =  -1028.82396751     A.U. after   13 cycles
 SCF Done:  E(RwB97XD) =  -1028.82509120     A.U. after   12 cycles
 SCF Done:  E(RwB97XD) =  -1028.82523003     A.U. after   11 cycles
 SCF Done:  E(RwB97XD) =  -1028.82524558     A.U. after    9 cycles
 Optimization completed.
    -- Stationary point found.
 Normal termination of Gaussian 16 at Tue Oct 27 21:55:15 2020.

 --------------------------------------------------------------------
 #P Geom=AllCheck Guess=TCheck SCRF=Check GenChk RwB97XD/CC-pVDZ Freq
 --------------------------------------------------------------------

 Structure from the checkpoint file:  "config_2_6.chk"
 ------------------------------------------------
 NM 2D-scan of HBT TD-WB97XD pVDZ in CTC Relaxed.
 ------------------------------------------------
 Charge =  0 Multiplicity = 1

                          Input orientation:
 ---------------------------------------------------------------------
 Center     Atomic      Atomic             Coordinates (Angstroms)
 Number     Number       Type             X           Y           Z
 ---------------------------------------------------------------------
      1          6           0        1.704217   -3.318987   -0.000028
      2          6           0        0.972782   -2.122239   -0.000011
      3          6           0        1.657281   -0.892606   -0.000005
      4          6           0        3.053885   -0.826610   -0.000009
      5          6           0        3.772194   -2.006594   -0.000024
      6          6           0        3.096387   -3.239878   -0.000034
      7          1           0        1.207800   -4.289935   -0.000033
      8          1           0        3.536704    0.151125   -0.000002
      9          1           0        4.862772   -1.985350   -0.000028
     10          1           0        3.675156   -4.165041   -0.000046
     11          7           0        0.873914    0.230441    0.000003
     12         16           0       -0.761242   -1.798804    0.000007
     13          6           0       -1.366358    1.078613    0.000005
     14          6           0       -2.765456    0.884596   -0.000007
     15          6           0       -0.895667    2.427444    0.000027
     16          6           0       -3.653190    1.948168    0.000017
     17          1           0       -3.155961   -0.136287   -0.000032
     18          6           0       -1.805489    3.492025    0.000061
     19          6           0       -3.164593    3.263143    0.000058
     20          1           0       -4.727001    1.760605    0.000008
     21          1           0       -1.388415    4.499477    0.000085
     22          1           0       -3.855762    4.107864    0.000083
     23          6           0       -0.397257   -0.031119    0.000001
     24          8           0        0.387619    2.825612    0.000014
     25          1           0        0.951671    2.033787   -0.000007
 ---------------------------------------------------------------------

 SCF Done:  E(RwB97XD) =  -1028.82524558     A.U. after    1 cycles

 Alpha  occ. eigenvalues --  -89.08810 -19.28455 -14.46612 -10.39557 -10.37530
 Alpha  occ. eigenvalues --  -10.34994 -10.34535 -10.32872 -10.32456 -10.31914
 Alpha  occ. eigenvalues --  -10.31601 -10.31408 -10.31350 -10.31299 -10.30269
 Alpha  occ. eigenvalues --  -10.29963  -8.10710  -6.05580  -6.05225  -6.04749
 Alpha  occ. eigenvalues --   -1.16625  -1.08886  -0.97168  -0.96045  -0.91117
 Alpha  occ. eigenvalues --   -0.88496  -0.85243  -0.84487  -0.82895  -0.75456
 Alpha  occ. eigenvalues --   -0.71291  -0.70639  -0.69487  -0.68065  -0.62991
 Alpha  occ. eigenvalues --   -0.60220  -0.58592  -0.58358  -0.56367  -0.54462
 Alpha  occ. eigenvalues --   -0.53774  -0.53103  -0.52482  -0.50894  -0.50345
 Alpha  occ. eigenvalues --   -0.49223  -0.47832  -0.45770  -0.45271  -0.44909
 Alpha  occ. eigenvalues --   -0.43753  -0.42931  -0.42551  -0.39646  -0.37291
 Alpha  occ. eigenvalues --   -0.36126  -0.32074  -0.31699  -0.29078
 Alpha virt. eigenvalues --   -0.00411   0.04857   0.06799   0.07180   0.07415
 Alpha virt. eigenvalues --    0.11572   0.13101   0.15125   0.15918   0.17679
 Alpha virt. eigenvalues --    0.18958   0.20389   0.21704   0.22468   0.22831

 Mulliken charges:
               1
     1  C   -0.000294
     2  C   -0.211839
     3  C    0.227766
     4  C   -0.012689
     5  C    0.007784
     6  C   -0.002153
     7  H    0.020585
     8  H    0.016004
     9  H    0.018967
    10  H    0.021325
    11  N   -0.324416
    12  S    0.135166
    13  C   -0.065786
    14  C   -0.017262
    15  C    0.064068
    16  C   -0.006962
    17  H    0.010837
    18  C    0.018508
    19  C    0.019230
    20  H    0.010412
    21  H    0.016901
    22  H    0.018173
    23  C    0.072995
    24  O   -0.190226
    25  H    0.152908
 Sum of Mulliken charges =  -0.00000

 Dipole moment (field-independent basis, Debye):
    X=              0.1362    Y=             -2.0769    Z=             -0.0000  Tot=              2.0814
 Quadrupole moment (field-independent basis, Debye-Ang):
   XX=            -82.6677   YY=            -89.7680   ZZ=           -104.2576
   XY=             -6.8710   XZ=             -0.0001   YZ=              0.0002

  Exact polarizability:     275.158     -65.388     256.497      -0.001       0.002      63.127
 Approx polarizability:     263.394     -22.272     243.554      -0.001       0.002      82.287

                      1                      2                      3
                      A                      A                      A
 Frequencies --     48.5636                53.2910               111.7589
 Red. masses --      6.2695                 5.1880                 5.6604
 Frc consts  --      0.0087                 0.0087                 0.0417
 IR Inten    --      0.6350                 0.5169                 1.0289

                      4                      5                      6
                      A                      A                      A
 Frequencies --    150.3524               199.6277               245.0735
 Red. masses --      4.8692                 5.7332                 5.8230
 Frc consts  --      0.0649                 0.1346                 0.2061
 IR Inten    --      0.0006                 0.3746                 0.0910

                      7                      8                      9
                      A                      A                      A
 Frequencies --    259.7990               291.4958               325.1237
 Red. masses --      8.2658                 6.2323                 5.0270
 Frc consts  --      0.3287                 0.3120                 0.3131
 IR Inten    --      2.8720                 5.2969                 0.5168

                     10                     11                     12
                      A                      A                      A
 Frequencies --    398.7688               439.8568               469.7654
 Red. masses --      8.6272                 3.1661                 3.7540
 Frc consts  --      0.8083                 0.3609                 0.4881
 IR Inten    --      0.2670                 1.9728                 8.9781

                     13                     14                     15
                      A                      A                      A
 Frequencies --    495.7502               513.2892               538.8779
 Red. masses --      4.6567                 8.8396                 3.4522
 Frc consts  --      0.6743                 1.3722                 0.5906
 IR Inten    --      4.2199                 0.2351                 4.0199

                     16                     17                     18
                      A                      A                      A
 Frequencies --    545.9702               573.3540               594.9589
 Red. masses --      8.6556                 3.7119                 7.7017
 Frc consts  --      1.5201                 0.7189                 1.6062
 IR Inten    --      2.7619                 0.0008                 6.4778

                     19                     20                     21
                      A                      A                      A
 Frequencies --    631.3723               675.3687               677.0900
 Red. masses --      2.2872                 1.5426                 6.4607
 Frc consts  --      0.5372                 0.4146                 1.7451
 IR Inten    --     24.2597                63.2343                10.4374

                     22                     23                     24
                      A                      A                      A
 Frequencies --    688.5255               719.6662               754.9575
 Red. masses --      8.9800                 7.4034                 1.9504
 Frc consts  --      2.5082                 2.2591                 0.6550
 IR Inten    --     44.5279                 1.5239                21.7757

                     25                     26                     27
                      A                      A                      A
 Frequencies --    768.5495               778.3998               788.3712
 Red. masses --      3.5478                 1.3210                 1.9098
 Frc consts  --      1.2347                 0.4716                 0.6994
 IR Inten    --     13.3332                52.5587                38.6954

                     28                     29                     30
                      A                      A                      A
 Frequencies --    838.3949               885.6570               887.2640
 Red. masses --      6.1067                 1.5279                 1.4402
 Frc consts  --      2.5290                 0.7061                 0.6680
 IR Inten    --     26.3326                 4.4190                 0.5052

                     31                     32                     33
                      A                      A                      A
 Frequencies --    894.1559               973.1310               974.0842
 Red. masses --      6.4067                 1.3556                 7.6171
 Frc consts  --      3.0179                 0.7563                 4.2582
 IR Inten    --      1.5297                 1.2490                71.9016

                     34                     35                     36
                      A                      A                      A
 Frequencies --    975.9231              1011.6020              1015.0123
 Red. masses --      1.3642                 1.3006                 1.3051
 Frc consts  --      0.7655                 0.7842                 0.7922
 IR Inten    --      1.3856                 0.3081                 0.0083

                     37                     38                     39
                      A                      A                      A
 Frequencies --   1050.3564              1069.9065              1092.1789
 Red. masses --      2.0299                 2.0412                 4.6785
 Frc consts  --      1.3194                 1.3766                 3.2881
 IR Inten    --      7.9308                14.5919                 6.0852

                     40                     41                     42
                      A                      A                      A
 Frequencies --   1144.4701              1149.6707              1175.9705
 Red. masses --      1.5664                 1.2721                 1.1179
 Frc consts  --      1.2088                 0.9906                 0.9108
 IR Inten    --      7.4494                 6.0254                48.6367

                     43                     44                     45
                      A                      A                      A
 Frequencies --   1183.7004              1231.1466              1276.4584
 Red. masses --      1.1887                 1.6394                 2.1702
 Frc consts  --      0.9813                 1.4640                 2.0834
 IR Inten    --      0.2273               175.4811                75.4493

                     46                     47                     48
                      A                      A                      A
 Frequencies --   1281.7334              1303.5030              1353.5556
 Red. masses --      1.5772                 5.2599                 2.9974
 Frc consts  --      1.5267                 5.2657                 3.2355
 IR Inten    --      3.1102                26.1608                13.5684

                     49                     50                     51
                      A                      A                      A
 Frequencies --   1367.7900              1375.4949              1413.7116
 Red. masses --      6.9472                 2.8125                 1.8460
 Frc consts  --      7.6577                 3.1351                 2.1737
 IR Inten    --     15.9303                 4.0612                87.3446

                     52                     53                     54
                      A                      A                      A
 Frequencies --   1490.1969              1498.2456              1517.3867
 Red. masses --      2.6394                 3.0786                 3.4663
 Frc consts  --      3.4534                 4.0717                 4.7023
 IR Inten    --     25.2131                13.0589               121.0079

                     55                     56                     57
                      A                      A                      A
 Frequencies --   1533.1016              1604.5029              1642.3651
 Red. masses --      2.7581                 8.6922                 6.4045
 Frc consts  --      3.8195                13.1845                10.1783
 IR Inten    --     40.4388               198.6034                18.2561

                     58                     59                     60
                      A                      A                      A
 Frequencies --   1649.5746              1684.8205              1709.3630
 Red. masses --      5.7961                 6.9253                 6.5282
 Frc consts  --      9.2924                11.5824                11.2386
 IR Inten    --     95.9633                 3.7401                88.2424

                     61                     62                     63
                      A                      A                      A
 Frequencies --   3192.7228              3209.4454              3211.0959
 Red. masses --      1.0896                 1.0882                 1.0860
 Frc consts  --      6.5440                 6.6040                 6.5976
 IR Inten    --      4.1430                 5.7604                 0.9382

                     64                     65                     66
                      A                      A                      A
 Frequencies --   3221.6228              3229.5283              3231.3280
 Red. masses --      1.0902                 1.0941                 1.0959
 Frc consts  --      6.6668                 6.7234                 6.7421
 IR Inten    --      4.0071                 9.7439                12.2424

                     67                     68                     69
                      A                      A                      A
 Frequencies --   3237.2695              3238.1842              3617.1839
 Red. masses --      1.0992                 1.1000                 1.0666
 Frc consts  --      6.7871                 6.7960                 8.2223
 IR Inten    --     19.8351                12.6540               570.5228

 - Thermochemistry -
 -------------------
 Temperature   298.150 Kelvin.  Pressure   1.00000 Atm.
 Atom     1 has atomic number  6 and mass  12.00000

 Molecular mass:   227.04049 amu.
 Principal axes and moments of inertia in atomic units:
                           1         2         3
     Eigenvalues --  1348.961736379.497107728.45883
           X           -0.69365   0.72031   0.00000
           Y            0.72031   0.69365  -0.00001
           Z            0.00001   0.00000   1.00000
 This molecule is an asymmetric top.
 Rotational symmetry number  1.
 Warning -- assumption of classical behavior for rotation
           may cause significant error
 Rotational temperatures (Kelvin)      0.06421     0.01358     0.01121
 Rotational constants (GHZ):           1.33787     0.28290     0.23352
 Zero-point vibrational energy     498727.9 (Joules/Mol)
                                  119.19882 (Kcal/Mol)
 Warning -- explicit consideration of  18 degrees of freedom as
           vibrations may cause significant error
 Vibrational temperatures:     69.87    76.67   160.80   216.32   287.22
          (Kelvin)            352.61   373.79   419.40   467.78   573.74
                              632.86   675.89   713.27   738.51   775.33
                              785.53   824.93   856.01   908.40   971.70
                              974.18   990.63  1035.44  1086.22  1105.77
                             1119.94  1134.29  1206.26  1274.26  1276.57
                             1286.49  1400.12  1401.49  1404.14  1455.47
                             1460.38  1511.23  1539.36  1571.40  1646.64
                             1654.12  1691.96  1703.08  1771.35  1836.54
                             1844.13  1875.45  1947.46  1967.94  1979.03
                             2034.02  2144.06  2155.64  2183.18  2205.79
                             2308.52  2363.00  2373.37  2424.08  2459.39
                             4593.62  4617.68  4620.05  4635.20  4646.57
                             4649.16  4657.71  4659.02  5204.32

 Zero-point correction=                           0.189955 (Hartree/Particle)
 Thermal correction to Energy=                    0.201820
 Thermal correction to Enthalpy=                  0.202764
 Thermal correction to Gibbs Free Energy=         0.151069
 Sum of electronic and zero-point Energies=          -1028.635290
 Sum of electronic and thermal Energies=             -1028.623426
 Sum of electronic and thermal Enthalpies=           -1028.622481
 Sum of electronic and thermal Free Energies=        -1028.674176

                     E (Thermal)             CV                S
                      KCal/Mol        Cal/Mol-Kelvin    Cal/Mol-Kelvin
 Total                  126.644             48.208            108.800
 Electronic               0.000              0.000              0.000
 Translational            0.889              2.981             42.162
 Rotational               0.889              2.981             32.564
 Vibrational            124.866             42.247             34.074
 Vibration     1          0.595              1.978              4.875
 Vibration     2          0.596              1.976              4.691
 Vibration     3          0.607              1.940              3.238
 Vibration     4          0.618              1.902              2.668
 Vibration     5          0.638              1.840              2.137
 Vibration     6          0.660              1.771              1.766
 Vibration     7          0.668              1.746              1.663
 Vibration     8          0.687              1.690              1.465
 Vibration     9          0.709              1.625              1.284
 Vibration    10          0.765              1.473              0.967
 Vibration    11          0.800              1.383              0.827
 Vibration    12          0.827              1.317              0.738
 Vibration    13          0.851              1.259              0.669
 Vibration    14          0.868              1.221              0.626
 Vibration    15          0.894              1.164              0.568
 Vibration    16          0.901              1.149              0.553
 Vibration    17          0.930              1.089              0.498
 Vibration    18          0.953              1.043              0.458

 Optimization completed.
    -- Stationary point found.
 Normal termination of Gaussian 16 at Tue Oct 27 22:01:14 2020.
