 Gaussian 16, Revision C.01,
 Gaussian 16:  ES64L-G16RevC.01  3-Jul-2019

 ----------------------------------------------------------------------
 #p opt=addgic freq wb97xd/cc-pvdz nosymm int=ultrafine scrf=(solvent=C
 arbonTetraChloride)
 ----------------------------------------------------------------------

 ------------------------------------------------
 NM 2D-scan of HBT TD-WB97XD pVDZ in CTC Relaxed.
 ------------------------------------------------
 Symbolic Z-matrix:
 Charge =  0 Multiplicity = 1

 SCF Done:  E(RwB97XD) =  -1028.81716263     A.U. after   15 cycles
 SCF Done:  E(RwB97XD) =  -1028.82780365     A.U. after   13 cycles
 SCF Done:  E(RwB97XD) =  -1028.82870209     A.U. after   12 cycles
 SCF Done:  E(RwB97XD) =  -1028.82906999     A.U. after   11 cycles
 SCF Done:  E(RwB97XD) =  -1028.82912180     A.U. after   10 cycles
 SCF Done:  E(RwB97XD) =  -1028.82912422     A.U. after    9 cycles
 SCF Done:  E(RwB97XD) =  -1028.82912441     A.U. after    8 cycles
 SCF Done:  E(RwB97XD) =  -1028.82912434     A.U. after    7 cycles
 SCF Done:  E(RwB97XD) =  -1028.82912445     A.U. after    7 cycles
 Optimization completed.
    -- Stationary point found.
 Normal termination of Gaussian 16 at Tue Oct 27 23:06:09 2020.

 --------------------------------------------------------------------
 #P Geom=AllCheck Guess=TCheck SCRF=Check GenChk RwB97XD/CC-pVDZ Freq
 --------------------------------------------------------------------

 Structure from the checkpoint file:  "config_4_9.chk"
 ------------------------------------------------
 NM 2D-scan of HBT TD-WB97XD pVDZ in CTC Relaxed.
 ------------------------------------------------
 Charge =  0 Multiplicity = 1

                          Input orientation:
 ---------------------------------------------------------------------
 Center     Atomic      Atomic             Coordinates (Angstroms)
 Number     Number       Type             X           Y           Z
 ---------------------------------------------------------------------
      1          6           0        1.652290   -3.284303   -0.000036
      2          6           0        0.989856   -2.054829   -0.000018
      3          6           0        1.704149   -0.845964   -0.000004
      4          6           0        3.103688   -0.849091   -0.000005
      5          6           0        3.762252   -2.069735   -0.000022
      6          6           0        3.042790   -3.275842   -0.000038
      7          1           0        1.098802   -4.223658   -0.000048
      8          1           0        3.646698    0.096501    0.000006
      9          1           0        4.852878   -2.094427   -0.000024
     10          1           0        3.581794   -4.224345   -0.000052
     11          7           0        0.906849    0.278727    0.000009
     12         16           0       -0.732861   -1.715991   -0.000012
     13          6           0       -1.362084    1.081268    0.000017
     14          6           0       -2.745490    0.840701    0.000017
     15          6           0       -0.887621    2.423034    0.000026
     16          6           0       -3.657316    1.885090    0.000029
     17          1           0       -3.107527   -0.190581    0.000008
     18          6           0       -1.825749    3.470994    0.000039
     19          6           0       -3.185316    3.204517    0.000041
     20          1           0       -4.727743    1.679304    0.000030
     21          1           0       -1.446055    4.493422    0.000047
     22          1           0       -3.893899    4.035134    0.000052
     23          6           0       -0.370599    0.007921    0.000006
     24          8           0        0.405308    2.724373    0.000021
     25          1           0        0.908198    1.848120    0.000013
 ---------------------------------------------------------------------

 SCF Done:  E(RwB97XD) =  -1028.82912445     A.U. after    1 cycles

 Alpha  occ. eigenvalues --  -89.08865 -19.27393 -14.46982 -10.39567 -10.37234
 Alpha  occ. eigenvalues --  -10.35002 -10.34914 -10.32435 -10.32202 -10.31824
 Alpha  occ. eigenvalues --  -10.31726 -10.31665 -10.31557 -10.31328 -10.30142
 Alpha  occ. eigenvalues --  -10.29972  -8.10880  -6.05737  -6.05378  -6.04927
 Alpha  occ. eigenvalues --   -1.16139  -1.09132  -0.97311  -0.96094  -0.91665
 Alpha  occ. eigenvalues --   -0.88612  -0.85398  -0.84433  -0.83017  -0.75530
 Alpha  occ. eigenvalues --   -0.71389  -0.70547  -0.69411  -0.68242  -0.63159
 Alpha  occ. eigenvalues --   -0.60612  -0.58864  -0.58318  -0.56314  -0.54499
 Alpha  occ. eigenvalues --   -0.54201  -0.53276  -0.52654  -0.50961  -0.50232
 Alpha  occ. eigenvalues --   -0.49462  -0.47543  -0.45979  -0.45371  -0.45012
 Alpha  occ. eigenvalues --   -0.43889  -0.42815  -0.42749  -0.39860  -0.36852
 Alpha  occ. eigenvalues --   -0.36214  -0.32241  -0.31649  -0.28946
 Alpha virt. eigenvalues --   -0.00494   0.04754   0.06872   0.07286   0.07648
 Alpha virt. eigenvalues --    0.11363   0.14024   0.15132   0.16355   0.17935
 Alpha virt. eigenvalues --    0.18988   0.20882   0.21740   0.22584   0.22693

 Mulliken charges:
               1
     1  C    0.009062
     2  C   -0.220922
     3  C    0.239577
     4  C   -0.013628
     5  C    0.006464
     6  C    0.000620
     7  H    0.019634
     8  H    0.019633
     9  H    0.020447
    10  H    0.021894
    11  N   -0.346254
    12  S    0.150313
    13  C   -0.068637
    14  C   -0.021523
    15  C    0.075374
    16  C   -0.009338
    17  H    0.012138
    18  C    0.005827
    19  C    0.020846
    20  H    0.009318
    21  H    0.015136
    22  H    0.018113
    23  C    0.084601
    24  O   -0.217151
    25  H    0.168455
 Sum of Mulliken charges =  -0.00000

 Dipole moment (field-independent basis, Debye):
    X=              0.1116    Y=             -2.6844    Z=             -0.0000  Tot=              2.6868
 Quadrupole moment (field-independent basis, Debye-Ang):
   XX=            -82.7330   YY=            -90.2107   ZZ=           -104.0918
   XY=             -7.1871   XZ=             -0.0001   YZ=              0.0002

  Exact polarizability:     275.099     -67.331     256.008      -0.001       0.002      62.964
 Approx polarizability:     262.743     -23.336     242.716      -0.001       0.002      82.192

                      1                      2                      3
                      A                      A                      A
 Frequencies --     41.8067                61.4802               124.0539
 Red. masses --      5.4617                 5.9173                 5.6496
 Frc consts  --      0.0056                 0.0132                 0.0512
 IR Inten    --      0.0271                 1.2953                 1.4950

                      4                      5                      6
                      A                      A                      A
 Frequencies --    153.4401               198.6594               245.1339
 Red. masses --      4.9987                 5.9294                 5.7324
 Frc consts  --      0.0693                 0.1379                 0.2030
 IR Inten    --      0.0608                 0.5943                 0.0485

                      7                      8                      9
                      A                      A                      A
 Frequencies --    273.6261               326.1516               327.9730
 Red. masses --      7.4988                 6.4286                 5.1332
 Frc consts  --      0.3308                 0.4029                 0.3253
 IR Inten    --      0.8348                 7.6143                 0.2466

                     10                     11                     12
                      A                      A                      A
 Frequencies --    410.9949               437.7265               465.7426
 Red. masses --      9.8871                 3.1370                 3.6802
 Frc consts  --      0.9840                 0.3541                 0.4703
 IR Inten    --      0.1381                 2.0921                 7.9704

                     13                     14                     15
                      A                      A                      A
 Frequencies --    516.0834               526.0327               538.9661
 Red. masses --      8.6372                 5.2588                 3.4707
 Frc consts  --      1.3554                 0.8574                 0.5940
 IR Inten    --      0.1254                11.9322                 3.6122

                     16                     17                     18
                      A                      A                      A
 Frequencies --    552.0437               574.9098               592.7102
 Red. masses --      7.7452                 3.7107                 7.6554
 Frc consts  --      1.3907                 0.7226                 1.5845
 IR Inten    --      3.1730                 0.0471                 4.7713

                     19                     20                     21
                      A                      A                      A
 Frequencies --    647.8599               683.2537               718.3783
 Red. masses --      6.2188                 6.4364                 6.7967
 Frc consts  --      1.5379                 1.7703                 2.0666
 IR Inten    --      0.0005                 7.0538                25.2320

                     22                     23                     24
                      A                      A                      A
 Frequencies --    744.7517               755.9739               766.3394
 Red. masses --     10.2052                 2.0331                 3.1256
 Frc consts  --      3.3350                 0.6846                 1.0815
 IR Inten    --     13.3202                26.4076                 1.5316

                     25                     26                     27
                      A                      A                      A
 Frequencies --    776.4314               786.6141               848.2727
 Red. masses --      1.3554                 1.8823                 5.9665
 Frc consts  --      0.4814                 0.6862                 2.5295
 IR Inten    --     63.2449                36.8273                18.4446

                     28                     29                     30
                      A                      A                      A
 Frequencies --    884.1580               887.3562               901.9782
 Red. masses --      1.5598                 1.4101                 6.6031
 Frc consts  --      0.7184                 0.6542                 3.1651
 IR Inten    --      5.3957                 0.0051                 1.7442

                     31                     32                     33
                      A                      A                      A
 Frequencies --    930.2644               971.1108               976.4680
 Red. masses --      1.0856                 1.3563                 1.3632
 Frc consts  --      0.5535                 0.7536                 0.7658
 IR Inten    --     75.6669                 0.8847                 2.3112

                     34                     35                     36
                      A                      A                      A
 Frequencies --    996.6626              1010.9472              1016.1281
 Red. masses --      7.5535                 1.3011                 1.3045
 Frc consts  --      4.4208                 0.7834                 0.7936
 IR Inten    --     56.3217                 0.4478                 0.0351

                     37                     38                     39
                      A                      A                      A
 Frequencies --   1052.9231              1068.6814              1099.2520
 Red. masses --      2.0040                 1.9435                 4.1672
 Frc consts  --      1.3090                 1.3078                 2.9668
 IR Inten    --      8.5419                10.0390                 5.7505

                     40                     41                     42
                      A                      A                      A
 Frequencies --   1149.4633              1153.7357              1174.8361
 Red. masses --      1.4734                 1.3083                 1.1269
 Frc consts  --      1.1470                 1.0261                 0.9164
 IR Inten    --      9.2357                 3.2320                45.0045

                     43                     44                     45
                      A                      A                      A
 Frequencies --   1185.3659              1257.2636              1286.8967
 Red. masses --      1.1954                 1.8851                 1.5556
 Frc consts  --      0.9896                 1.7557                 1.5179
 IR Inten    --      0.3673               105.1232                 0.3345

                     46                     47                     48
                      A                      A                      A
 Frequencies --   1296.3820              1341.1620              1348.7529
 Red. masses --      2.6580                 3.7378                 4.1332
 Frc consts  --      2.6319                 3.9613                 4.4300
 IR Inten    --    169.6270                28.2281                 0.8026

                     49                     50                     51
                      A                      A                      A
 Frequencies --   1376.1434              1379.2099              1485.2305
 Red. masses --      7.6015                 3.5325                 2.3505
 Frc consts  --      8.4816                 3.9591                 3.0549
 IR Inten    --     13.0112                19.0393                 5.4432

                     52                     53                     54
                      A                      A                      A
 Frequencies --   1493.1622              1502.1074              1522.7330
 Red. masses --      2.6030                 3.0021                 4.0135
 Frc consts  --      3.4193                 3.9910                 5.4830
 IR Inten    --     40.4856                 9.1909               127.5273

                     55                     56                     57
                      A                      A                      A
 Frequencies --   1573.9806              1592.4620              1651.4993
 Red. masses --      2.9825                 3.7920                 6.8082
 Frc consts  --      4.3535                 5.6657                10.9405
 IR Inten    --    208.2128               101.0724                 6.0373

                     58                     59                     60
                      A                      A                      A
 Frequencies --   1678.5350              1680.4297              1710.1971
 Red. masses --      3.5596                 4.9539                 4.3922
 Frc consts  --      5.9091                 8.2420                 7.5688
 IR Inten    --    140.5884                73.8146               157.6154

                     61                     62                     63
                      A                      A                      A
 Frequencies --   2918.4706              3196.4598              3207.5846
 Red. masses --      1.0736                 1.0891                 1.0885
 Frc consts  --      5.3876                 6.5561                 6.5986
 IR Inten    --   1248.3887                 4.9062                 5.3195

                     64                     65                     66
                      A                      A                      A
 Frequencies --   3212.5580              3223.8345              3228.2840
 Red. masses --      1.0863                 1.0907                 1.0941
 Frc consts  --      6.6052                 6.6787                 6.7179
 IR Inten    --      1.8469                 4.1178                11.8753

                     67                     68                     69
                      A                      A                      A
 Frequencies --   3234.6113              3237.0329              3240.3052
 Red. masses --      1.0960                 1.0986                 1.0996
 Frc consts  --      6.7561                 6.7826                 6.8023
 IR Inten    --      9.6282                17.4041                12.7536

 - Thermochemistry -
 -------------------
 Temperature   298.150 Kelvin.  Pressure   1.00000 Atm.
 Atom     1 has atomic number  6 and mass  12.00000

 Molecular mass:   227.04049 amu.
 Principal axes and moments of inertia in atomic units:
                           1         2         3
     Eigenvalues --  1307.483896311.163907618.64779
           X           -0.70121   0.71296   0.00000
           Y            0.71296   0.70121  -0.00001
           Z            0.00001   0.00001   1.00000
 This molecule is an asymmetric top.
 Rotational symmetry number  1.
 Warning -- assumption of classical behavior for rotation
           may cause significant error
 Rotational temperatures (Kelvin)      0.06624     0.01372     0.01137
 Rotational constants (GHZ):           1.38032     0.28596     0.23688
 Zero-point vibrational energy     499022.4 (Joules/Mol)
                                  119.26921 (Kcal/Mol)
 Warning -- explicit consideration of  18 degrees of freedom as
           vibrations may cause significant error
 Vibrational temperatures:     60.15    88.46   178.49   220.77   285.83
          (Kelvin)            352.69   393.69   469.26   471.88   591.33
                              629.79   670.10   742.53   756.84   775.45
                              794.27   827.17   852.78   932.13   983.05
                             1033.59  1071.53  1087.68  1102.59  1117.11
                             1131.76  1220.48  1272.11  1276.71  1297.75
                             1338.44  1397.21  1404.92  1433.98  1454.53
                             1461.98  1514.92  1537.59  1581.58  1653.82
                             1659.97  1690.33  1705.48  1808.92  1851.56
                             1865.20  1929.63  1940.55  1979.96  1984.38
                             2136.92  2148.33  2161.20  2190.87  2264.61
                             2291.20  2376.14  2415.04  2417.76  2460.59
                             4199.03  4598.99  4615.00  4622.15  4638.38
                             4644.78  4653.88  4657.37  4662.08

 Zero-point correction=                           0.190068 (Hartree/Particle)
 Thermal correction to Energy=                    0.201683
 Thermal correction to Enthalpy=                  0.202628
 Thermal correction to Gibbs Free Energy=         0.151420
 Sum of electronic and zero-point Energies=          -1028.639057
 Sum of electronic and thermal Energies=             -1028.627441
 Sum of electronic and thermal Enthalpies=           -1028.626497
 Sum of electronic and thermal Free Energies=        -1028.677705

                     E (Thermal)             CV                S
                      KCal/Mol        Cal/Mol-Kelvin    Cal/Mol-Kelvin
 Total                  126.558             47.295            107.776
 Electronic               0.000              0.000              0.000
 Translational            0.889              2.981             42.162
 Rotational               0.889              2.981             32.508
 Vibrational            124.781             41.333             33.105
 Vibration     1          0.594              1.980              5.172
 Vibration     2          0.597              1.973              4.409
 Vibration     3          0.610              1.929              3.036
 Vibration     4          0.619              1.899              2.629
 Vibration     5          0.637              1.842              2.145
 Vibration     6          0.660              1.771              1.765
 Vibration     7          0.676              1.722              1.573
 Vibration     8          0.710              1.623              1.279
 Vibration     9          0.711              1.620              1.270
 Vibration    10          0.775              1.446              0.923
 Vibration    11          0.798              1.388              0.834
 Vibration    12          0.823              1.326              0.750
 Vibration    13          0.871              1.214              0.619
 Vibration    14          0.881              1.192              0.596
 Vibration    15          0.894              1.164              0.568
 Vibration    16          0.907              1.135              0.540
 Vibration    17          0.931              1.086              0.495
 Vibration    18          0.950              1.047              0.462

 Optimization completed.
    -- Stationary point found.
 Normal termination of Gaussian 16 at Tue Oct 27 23:12:24 2020.
