 Gaussian 16, Revision C.01,
 Gaussian 16:  ES64L-G16RevC.01  3-Jul-2019

 ----------------------------------------------------------------------
 #p opt=addgic freq wb97xd/cc-pvdz nosymm int=ultrafine scrf=(solvent=C
 arbonTetraChloride)
 ----------------------------------------------------------------------

 ------------------------------------------------
 NM 2D-scan of HBT TD-WB97XD pVDZ in CTC Relaxed.
 ------------------------------------------------
 Symbolic Z-matrix:
 Charge =  0 Multiplicity = 1

 SCF Done:  E(RwB97XD) =  -1028.80250225     A.U. after   16 cycles
 SCF Done:  E(RwB97XD) =  -1028.81151250     A.U. after   13 cycles
 SCF Done:  E(RwB97XD) =  -1028.81168847     A.U. after   13 cycles
 SCF Done:  E(RwB97XD) =  -1028.81269634     A.U. after   12 cycles
 SCF Done:  E(RwB97XD) =  -1028.81274639     A.U. after   11 cycles
 SCF Done:  E(RwB97XD) =  -1028.81274782     A.U. after    9 cycles
 Optimization completed.
    -- Stationary point found.
 Normal termination of Gaussian 16 at Tue Oct 27 21:53:11 2020.

 --------------------------------------------------------------------
 #P Geom=AllCheck Guess=TCheck SCRF=Check GenChk RwB97XD/CC-pVDZ Freq
 --------------------------------------------------------------------

 Structure from the checkpoint file:  "config_9_6.chk"
 ------------------------------------------------
 NM 2D-scan of HBT TD-WB97XD pVDZ in CTC Relaxed.
 ------------------------------------------------
 Charge =  0 Multiplicity = 1

                          Input orientation:
 ---------------------------------------------------------------------
 Center     Atomic      Atomic             Coordinates (Angstroms)
 Number     Number       Type             X           Y           Z
 ---------------------------------------------------------------------
      1          6           0        1.690108   -3.264457   -0.000027
      2          6           0        1.001359   -2.052259   -0.000016
      3          6           0        1.698878   -0.840380   -0.000011
      4          6           0        3.093133   -0.799620   -0.000015
      5          6           0        3.776161   -2.008910   -0.000026
      6          6           0        3.082736   -3.227082   -0.000032
      7          1           0        1.157210   -4.215474   -0.000032
      8          1           0        3.616545    0.156595   -0.000011
      9          1           0        4.866811   -2.009113   -0.000029
     10          1           0        3.640197   -4.164447   -0.000040
     11          7           0        0.847447    0.240749   -0.000005
     12         16           0       -0.742532   -1.748824   -0.000010
     13          6           0       -1.389359    1.059788    0.000010
     14          6           0       -2.794453    0.864868    0.000004
     15          6           0       -0.827276    2.406084    0.000032
     16          6           0       -3.661431    1.930439    0.000020
     17          1           0       -3.188976   -0.155450   -0.000017
     18          6           0       -1.784335    3.481176    0.000053
     19          6           0       -3.135361    3.248980    0.000047
     20          1           0       -4.739237    1.768001    0.000014
     21          1           0       -1.379034    4.494299    0.000074
     22          1           0       -3.824519    4.097112    0.000063
     23          6           0       -0.457527   -0.017253   -0.000001
     24          8           0        0.420775    2.639969    0.000038
     25          1           0        1.049954    1.292304   -0.000001
 ---------------------------------------------------------------------

 SCF Done:  E(RwB97XD) =  -1028.81274782     A.U. after    1 cycles

 Alpha  occ. eigenvalues --  -89.10096 -19.22138 -14.50735 -10.41187 -10.36840
 Alpha  occ. eigenvalues --  -10.36305 -10.35974 -10.33263 -10.32704 -10.32407
 Alpha  occ. eigenvalues --  -10.32246 -10.31318 -10.30932 -10.30759 -10.29231
 Alpha  occ. eigenvalues --  -10.28698  -8.12080  -6.06961  -6.06584  -6.06095
 Alpha  occ. eigenvalues --   -1.13231  -1.09983  -0.98386  -0.95173  -0.93019
 Alpha  occ. eigenvalues --   -0.89246  -0.86345  -0.83962  -0.82067  -0.75785
 Alpha  occ. eigenvalues --   -0.72489  -0.71639  -0.69021  -0.68078  -0.64487
 Alpha  occ. eigenvalues --   -0.60860  -0.59686  -0.56876  -0.55747  -0.55707
 Alpha  occ. eigenvalues --   -0.54900  -0.53617  -0.52861  -0.50641  -0.49891
 Alpha  occ. eigenvalues --   -0.49154  -0.48076  -0.46655  -0.45502  -0.44868
 Alpha  occ. eigenvalues --   -0.44441  -0.43083  -0.41782  -0.40558  -0.36704
 Alpha  occ. eigenvalues --   -0.33412  -0.32628  -0.31606  -0.26761
 Alpha virt. eigenvalues --   -0.01189   0.03889   0.06188   0.06710   0.08914
 Alpha virt. eigenvalues --    0.11006   0.13233   0.14723   0.16073   0.17483
 Alpha virt. eigenvalues --    0.19093   0.20308   0.21304   0.21693   0.23036

 Mulliken charges:
               1
     1  C    0.012149
     2  C   -0.242325
     3  C    0.270620
     4  C   -0.009538
     5  C    0.011427
     6  C    0.001823
     7  H    0.025046
     8  H    0.031083
     9  H    0.026357
    10  H    0.025670
    11  N   -0.158936
    12  S    0.182573
    13  C   -0.128907
    14  C   -0.006828
    15  C    0.116119
    16  C   -0.029626
    17  H    0.003974
    18  C   -0.013949
    19  C    0.025966
    20  H    0.003377
    21  H    0.003321
    22  H    0.013799
    23  C    0.072666
    24  O   -0.398938
    25  H    0.163077
 Sum of Mulliken charges =  -0.00000

 Dipole moment (field-independent basis, Debye):
    X=              1.4429    Y=             -4.8622    Z=             -0.0001  Tot=              5.0718
 Quadrupole moment (field-independent basis, Debye-Ang):
   XX=            -82.4622   YY=            -93.8957   ZZ=           -104.0410
   XY=             -7.0536   XZ=             -0.0001   YZ=              0.0001

  Exact polarizability:     285.207     -83.066     280.913      -0.001       0.003      62.963
 Approx polarizability:     266.378     -31.191     255.287      -0.001       0.002      82.069

                      1                      2                      3
                      A                      A                      A
 Frequencies --     55.6235                74.1655               110.2106
 Red. masses --      5.4254                 5.3046                 5.6076
 Frc consts  --      0.0099                 0.0172                 0.0401
 IR Inten    --      0.6227                 1.6354                 4.5515

                      4                      5                      6
                      A                      A                      A
 Frequencies --    143.6899               199.9897               237.4530
 Red. masses --      5.2399                 6.0988                 6.2081
 Frc consts  --      0.0637                 0.1437                 0.2062
 IR Inten    --      1.1285                 0.0217                 0.7153

                      7                      8                      9
                      A                      A                      A
 Frequencies --    265.0714               310.1308               311.0403
 Red. masses --      7.3605                 5.7590                 5.3634
 Frc consts  --      0.3047                 0.3264                 0.3057
 IR Inten    --     13.1211                13.8336                 0.9166

                     10                     11                     12
                      A                      A                      A
 Frequencies --    409.9127               431.3768               451.6310
 Red. masses --     10.9957                 3.2166                 3.6215
 Frc consts  --      1.0886                 0.3527                 0.4352
 IR Inten    --      3.2102                 0.6463                10.2247

                     13                     14                     15
                      A                      A                      A
 Frequencies --    511.8755               534.1779               540.5379
 Red. masses --      8.7930                 2.9357                 6.4142
 Frc consts  --      1.3574                 0.4936                 1.1042
 IR Inten    --      7.0610                 5.1431                 6.4351

                     16                     17                     18
                      A                      A                      A
 Frequencies --    553.1093               563.6164               584.3171
 Red. masses --      6.4820                 3.7210                 6.6018
 Frc consts  --      1.1684                 0.6964                 1.3280
 IR Inten    --     10.9220                 0.0349                38.4334

                     19                     20                     21
                      A                      A                      A
 Frequencies --    637.9712               642.1713               713.9153
 Red. masses --      5.2849                 6.2414                 6.6149
 Frc consts  --      1.2673                 1.5165                 1.9864
 IR Inten    --      2.7611                 0.0303                30.8581

                     22                     23                     24
                      A                      A                      A
 Frequencies --    725.0374               751.7340               763.3840
 Red. masses --      7.1157                 2.6121                 1.4869
 Frc consts  --      2.2039                 0.8697                 0.5105
 IR Inten    --     53.3869                10.2036                49.3949

                     25                     26                     27
                      A                      A                      A
 Frequencies --    778.1240               778.5340               825.2818
 Red. masses --      2.3559                 1.5881                 4.0031
 Frc consts  --      0.8404                 0.5671                 1.6064
 IR Inten    --     10.8126                51.8636                21.2186

                     28                     29                     30
                      A                      A                      A
 Frequencies --    856.5182               878.7116               883.9967
 Red. masses --      4.5812                 1.8134                 1.3846
 Frc consts  --      1.9802                 0.8250                 0.6375
 IR Inten    --     13.0850                 8.3689                 0.2093

                     31                     32                     33
                      A                      A                      A
 Frequencies --    954.0524               969.6047               972.9701
 Red. masses --      5.2255                 1.3251                 1.3579
 Frc consts  --      2.8024                 0.7340                 0.7574
 IR Inten    --     36.1774                 0.4477                 0.9580

                     34                     35                     36
                      A                      A                      A
 Frequencies --   1003.2902              1015.8202              1016.1055
 Red. masses --      1.0919                 1.3035                 1.2976
 Frc consts  --      0.6476                 0.7925                 0.7893
 IR Inten    --     73.2273                 0.0106                 3.5471

                     37                     38                     39
                      A                      A                      A
 Frequencies --   1042.7957              1056.9387              1068.9300
 Red. masses --      2.3078                 2.1315                 3.2709
 Frc consts  --      1.4786                 1.4029                 2.2020
 IR Inten    --     14.6950                10.1636                29.1279

                     40                     41                     42
                      A                      A                      A
 Frequencies --   1115.3592              1158.1353              1160.2175
 Red. masses --      2.6633                 1.3786                 1.2360
 Frc consts  --      1.9521                 1.0895                 0.9803
 IR Inten    --     58.6885                15.2927                25.9832

                     43                     44                     45
                      A                      A                      A
 Frequencies --   1182.3942              1191.0949              1259.0296
 Red. masses --      1.1408                 1.2204                 1.8516
 Frc consts  --      0.9397                 1.0201                 1.7293
 IR Inten    --     19.0955                 4.5044                 7.5218

                     46                     47                     48
                      A                      A                      A
 Frequencies --   1291.0852              1325.9325              1368.7028
 Red. masses --      1.5270                 2.8667                 3.7408
 Frc consts  --      1.4997                 2.9695                 4.1289
 IR Inten    --     18.5299               138.0226                17.8716

                     49                     50                     51
                      A                      A                      A
 Frequencies --   1383.1085              1393.3110              1418.2493
 Red. masses --      4.3208                 6.4645                 2.6006
 Frc consts  --      4.8699                 7.3940                 3.0820
 IR Inten    --     77.8287                10.8858                11.9073

                     52                     53                     54
                      A                      A                      A
 Frequencies --   1494.1850              1506.2872              1523.7103
 Red. masses --      2.6938                 2.7405                 3.3816
 Frc consts  --      3.5435                 3.6634                 4.6257
 IR Inten    --     18.0831               125.9086               111.9943

                     55                     56                     57
                      A                      A                      A
 Frequencies --   1577.8365              1606.4210              1613.6531
 Red. masses --      4.6054                 4.8392                 6.0474
 Frc consts  --      6.7553                 7.3576                 9.2776
 IR Inten    --   1222.8506               163.9096               731.7549

                     58                     59                     60
                      A                      A                      A
 Frequencies --   1668.1972              1683.1349              1712.3494
 Red. masses --      7.0439                 6.9798                 6.1751
 Frc consts  --     11.5494                11.6502                10.6679
 IR Inten    --     58.4329                90.6036               163.2942

                     61                     62                     63
                      A                      A                      A
 Frequencies --   2673.8923              3181.3050              3193.9658
 Red. masses --      1.1109                 1.0895                 1.0882
 Frc consts  --      4.6797                 6.4966                 6.5407
 IR Inten    --    581.8910                 4.2636                14.0603

                     64                     65                     66
                      A                      A                      A
 Frequencies --   3216.5703              3222.0627              3227.2807
 Red. masses --      1.0866                 1.0944                 1.0909
 Frc consts  --      6.6236                 6.6940                 6.6942
 IR Inten    --      1.8082                20.8335                 2.9490

                     67                     68                     69
                      A                      A                      A
 Frequencies --   3233.1043              3237.0275              3242.9548
 Red. masses --      1.0971                 1.0961                 1.0999
 Frc consts  --      6.7569                 6.7673                 6.8155
 IR Inten    --     19.2813                 5.6946                10.4359

 - Thermochemistry -
 -------------------
 Temperature   298.150 Kelvin.  Pressure   1.00000 Atm.
 Atom     1 has atomic number  6 and mass  12.00000

 Molecular mass:   227.04049 amu.
 Principal axes and moments of inertia in atomic units:
                           1         2         3
     Eigenvalues --  1311.694726283.472557595.16726
           X           -0.70458   0.70962   0.00000
           Y            0.70962   0.70458  -0.00001
           Z            0.00001   0.00001   1.00000
 This molecule is an asymmetric top.
 Rotational symmetry number  1.
 Warning -- assumption of classical behavior for rotation
           may cause significant error
 Rotational temperatures (Kelvin)      0.06603     0.01378     0.01140
 Rotational constants (GHZ):           1.37589     0.28722     0.23762
 Zero-point vibrational energy     494562.4 (Joules/Mol)
                                  118.20325 (Kcal/Mol)
 Warning -- explicit consideration of  18 degrees of freedom as
           vibrations may cause significant error
 Vibrational temperatures:     80.03   106.71   158.57   206.74   287.74
          (Kelvin)            341.64   381.38   446.21   447.52   589.77
                              620.66   649.80   736.47   768.56   777.71
                              795.80   810.92   840.70   917.90   923.94
                             1027.16  1043.17  1081.58  1098.34  1119.55
                             1120.14  1187.40  1232.34  1264.27  1271.87
                             1372.67  1395.04  1399.89  1443.51  1461.54
                             1461.95  1500.35  1520.70  1537.95  1604.75
                             1666.30  1669.29  1701.20  1713.72  1811.46
                             1857.58  1907.72  1969.26  1989.98  2004.66
                             2040.54  2149.80  2167.21  2192.28  2270.15
                             2311.28  2321.69  2400.16  2421.66  2463.69
                             3847.13  4577.19  4595.40  4627.93  4635.83
                             4643.34  4651.72  4657.36  4665.89

 Zero-point correction=                           0.188369 (Hartree/Particle)
 Thermal correction to Energy=                    0.200124
 Thermal correction to Enthalpy=                  0.201068
 Thermal correction to Gibbs Free Energy=         0.149880
 Sum of electronic and zero-point Energies=          -1028.624379
 Sum of electronic and thermal Energies=             -1028.612624
 Sum of electronic and thermal Enthalpies=           -1028.611680
 Sum of electronic and thermal Free Energies=        -1028.662868

                     E (Thermal)             CV                S
                      KCal/Mol        Cal/Mol-Kelvin    Cal/Mol-Kelvin
 Total                  125.580             47.873            107.734
 Electronic               0.000              0.000              0.000
 Translational            0.889              2.981             42.162
 Rotational               0.889              2.981             32.504
 Vibrational            123.802             41.912             33.068
 Vibration     1          0.596              1.975              4.607
 Vibration     2          0.599              1.966              4.040
 Vibration     3          0.606              1.941              3.265
 Vibration     4          0.616              1.909              2.754
 Vibration     5          0.638              1.840              2.133
 Vibration     6          0.656              1.783              1.822
 Vibration     7          0.671              1.737              1.628
 Vibration     8          0.699              1.654              1.362
 Vibration     9          0.700              1.653              1.357
 Vibration    10          0.774              1.449              0.927
 Vibration    11          0.792              1.402              0.854
 Vibration    12          0.810              1.357              0.791
 Vibration    13          0.867              1.224              0.629
 Vibration    14          0.889              1.174              0.578
 Vibration    15          0.896              1.160              0.564
 Vibration    16          0.908              1.133              0.538
 Vibration    17          0.919              1.110              0.517
 Vibration    18          0.941              1.065              0.477

 Optimization completed.
    -- Stationary point found.
 Normal termination of Gaussian 16 at Tue Oct 27 21:59:30 2020.
