 Gaussian 16, Revision C.01,
 Gaussian 16:  ES64L-G16RevC.01  3-Jul-2019

 ----------------------------------------------------------------------
 #p opt=addgic freq wb97xd/cc-pvdz nosymm int=ultrafine scrf=(solvent=C
 arbonTetraChloride)
 ----------------------------------------------------------------------

 ------------------------------------------------
 NM 2D-scan of HBT TD-WB97XD pVDZ in CTC Relaxed.
 ------------------------------------------------
 Symbolic Z-matrix:
 Charge =  0 Multiplicity = 1

 SCF Done:  E(RwB97XD) =  -1028.77197835     A.U. after   16 cycles
 SCF Done:  E(RwB97XD) =  -1028.80219597     A.U. after   14 cycles
 SCF Done:  E(RwB97XD) =  -1028.80755139     A.U. after   13 cycles
 SCF Done:  E(RwB97XD) =  -1028.80824181     A.U. after   12 cycles
 SCF Done:  E(RwB97XD) =  -1028.80830192     A.U. after   10 cycles
 SCF Done:  E(RwB97XD) =  -1028.80831181     A.U. after   10 cycles
 SCF Done:  E(RwB97XD) =  -1028.80831256     A.U. after    9 cycles
 Optimization completed.
    -- Stationary point found.
 Normal termination of Gaussian 16 at Wed Oct 28 01:22:01 2020.

 --------------------------------------------------------------------
 #P Geom=AllCheck Guess=TCheck SCRF=Check GenChk RwB97XD/CC-pVDZ Freq
 --------------------------------------------------------------------

 Structure from the checkpoint file:  "config_9_19.chk"
 ------------------------------------------------
 NM 2D-scan of HBT TD-WB97XD pVDZ in CTC Relaxed.
 ------------------------------------------------
 Charge =  0 Multiplicity = 1

                          Input orientation:
 ---------------------------------------------------------------------
 Center     Atomic      Atomic             Coordinates (Angstroms)
 Number     Number       Type             X           Y           Z
 ---------------------------------------------------------------------
      1          6           0        1.514964   -3.271716   -0.000135
      2          6           0        0.993181   -1.983756   -0.000055
      3          6           0        1.804597   -0.841782    0.000050
      4          6           0        3.193916   -0.988210    0.000079
      5          6           0        3.721079   -2.280734   -0.000007
      6          6           0        2.897443   -3.413154   -0.000113
      7          1           0        0.854620   -4.139193   -0.000211
      8          1           0        3.847288   -0.115327    0.000163
      9          1           0        4.804525   -2.407054    0.000012
     10          1           0        3.340306   -4.409596   -0.000175
     11          7           0        1.034689    0.324848    0.000123
     12         16           0       -0.700018   -1.552184   -0.000046
     13          6           0       -1.289256    1.134554    0.000074
     14          6           0       -2.661943    0.743220    0.000120
     15          6           0       -0.896056    2.535477    0.000048
     16          6           0       -3.662971    1.668967    0.000119
     17          1           0       -2.920573   -0.318816    0.000171
     18          6           0       -2.009722    3.472413   -0.000071
     19          6           0       -3.312207    3.052494    0.000010
     20          1           0       -4.709012    1.363079    0.000169
     21          1           0       -1.759324    4.534964   -0.000221
     22          1           0       -4.112273    3.797375   -0.000036
     23          6           0       -0.297847    0.141282    0.000054
     24          8           0        0.307500    2.891258   -0.000256
     25          1           0        1.340124    1.307843    0.000237
 ---------------------------------------------------------------------

 SCF Done:  E(RwB97XD) =  -1028.80831256     A.U. after    1 cycles

 Alpha  occ. eigenvalues --  -89.09599 -19.21506 -14.52511 -10.41212 -10.37570
 Alpha  occ. eigenvalues --  -10.36079 -10.35807 -10.33143 -10.33066 -10.32518
 Alpha  occ. eigenvalues --  -10.32275 -10.31153 -10.30808 -10.30292 -10.29210
 Alpha  occ. eigenvalues --  -10.28701  -8.11714  -6.06588  -6.06209  -6.05719
 Alpha  occ. eigenvalues --   -1.12690  -1.09690  -0.98591  -0.95628  -0.93266
 Alpha  occ. eigenvalues --   -0.89184  -0.86806  -0.83674  -0.81920  -0.75517
 Alpha  occ. eigenvalues --   -0.73190  -0.72207  -0.68943  -0.67928  -0.64877
 Alpha  occ. eigenvalues --   -0.60921  -0.59706  -0.56818  -0.55890  -0.55833
 Alpha  occ. eigenvalues --   -0.55031  -0.53987  -0.52965  -0.50011  -0.49612
 Alpha  occ. eigenvalues --   -0.48991  -0.48301  -0.46790  -0.45638  -0.44813
 Alpha  occ. eigenvalues --   -0.44465  -0.42868  -0.41943  -0.40405  -0.36831
 Alpha  occ. eigenvalues --   -0.33564  -0.31746  -0.31586  -0.26372
 Alpha virt. eigenvalues --   -0.01238   0.03830   0.05669   0.07118   0.09291
 Alpha virt. eigenvalues --    0.11260   0.14244   0.14898   0.16276   0.17465
 Alpha virt. eigenvalues --    0.18211   0.19877   0.20774   0.21484   0.22627

 Mulliken charges:
               1
     1  C    0.019764
     2  C   -0.227233
     3  C    0.245227
     4  C   -0.012452
     5  C    0.007757
     6  C    0.005117
     7  H    0.023934
     8  H    0.029757
     9  H    0.026822
    10  H    0.025869
    11  N   -0.148620
    12  S    0.180909
    13  C   -0.087007
    14  C   -0.022388
    15  C    0.096110
    16  C   -0.029831
    17  H    0.016243
    18  C   -0.027714
    19  C    0.027553
    20  H    0.002372
    21  H    0.002887
    22  H    0.014117
    23  C    0.075549
    24  O   -0.381804
    25  H    0.137063
 Sum of Mulliken charges =   0.00000

 Dipole moment (field-independent basis, Debye):
    X=              1.7865    Y=             -5.3987    Z=              0.0007  Tot=              5.6866
 Quadrupole moment (field-independent basis, Debye-Ang):
   XX=            -81.3923   YY=            -96.4439   ZZ=           -103.9984
   XY=             -6.5805   XZ=              0.0008   YZ=              0.0024

  Exact polarizability:     286.254     -87.508     285.095      -0.002       0.001      62.818
 Approx polarizability:     264.782     -31.888     255.373      -0.002       0.001      81.861

                      1                      2                      3
                      A                      A                      A
 Frequencies --     55.1844                61.2251               111.3424
 Red. masses --      6.5436                 4.3664                 5.8346
 Frc consts  --      0.0117                 0.0096                 0.0426
 IR Inten    --      1.6294                 0.4451                 1.9217

                      4                      5                      6
                      A                      A                      A
 Frequencies --    133.8089               196.5900               227.9235
 Red. masses --      5.5193                 6.2425                 5.8710
 Frc consts  --      0.0582                 0.1421                 0.1797
 IR Inten    --      1.9958                 0.0042                 0.9015

                      7                      8                      9
                      A                      A                      A
 Frequencies --    264.6267               298.3177               308.5201
 Red. masses --      8.0695                 6.7462                 5.3824
 Frc consts  --      0.3329                 0.3537                 0.3019
 IR Inten    --      8.1379                 0.9482                 0.6033

                     10                     11                     12
                      A                      A                      A
 Frequencies --    407.6379               427.8160               448.3743
 Red. masses --      8.8197                 3.2828                 3.4875
 Frc consts  --      0.8635                 0.3540                 0.4131
 IR Inten    --      3.4234                 0.0180                10.1609

                     13                     14                     15
                      A                      A                      A
 Frequencies --    511.7185               521.9120               532.9864
 Red. masses --      8.5228                 2.6570                 7.0699
 Frc consts  --      1.3149                 0.4264                 1.1833
 IR Inten    --     11.5810                 5.9005                 6.6143

                     16                     17                     18
                      A                      A                      A
 Frequencies --    548.8896               561.1216               581.8017
 Red. masses --      7.0764                 3.8680                 7.1584
 Frc consts  --      1.2561                 0.7176                 1.4276
 IR Inten    --     11.2956                 0.0926                37.9532

                     19                     20                     21
                      A                      A                      A
 Frequencies --    632.1357               652.0492               724.3009
 Red. masses --      4.9971                 6.0615                 5.8549
 Frc consts  --      1.1765                 1.5184                 1.8097
 IR Inten    --      1.2349                 3.5144                71.1751

                     22                     23                     24
                      A                      A                      A
 Frequencies --    737.7266               749.9547               757.0282
 Red. masses --      7.5951                 2.7179                 1.4444
 Frc consts  --      2.4354                 0.9006                 0.4877
 IR Inten    --     48.3465                 0.0365                84.5330

                     25                     26                     27
                      A                      A                      A
 Frequencies --    767.5020               776.2218               801.7925
 Red. masses --      1.5462                 1.7472                 1.3544
 Frc consts  --      0.5366                 0.6203                 0.5130
 IR Inten    --     22.1932                43.5052                51.9012

                     28                     29                     30
                      A                      A                      A
 Frequencies --    835.6368               866.4062               877.8357
 Red. masses --      6.0822                 4.4144                 2.0778
 Frc consts  --      2.5023                 1.9524                 0.9434
 IR Inten    --     17.3885                 4.4383                22.3012

                     31                     32                     33
                      A                      A                      A
 Frequencies --    884.8328               963.1488               967.5188
 Red. masses --      1.3692                 1.3257                 4.7207
 Frc consts  --      0.6316                 0.7246                 2.6036
 IR Inten    --      0.1086                 0.0686                31.5137

                     34                     35                     36
                      A                      A                      A
 Frequencies --    970.5230              1013.3977              1019.1835
 Red. masses --      1.3606                 1.3035                 1.3086
 Frc consts  --      0.7551                 0.7887                 0.8008
 IR Inten    --      1.3468                 0.0134                 0.3856

                     37                     38                     39
                      A                      A                      A
 Frequencies --   1038.9202              1054.7751              1096.0521
 Red. masses --      2.1657                 2.0350                 3.5115
 Frc consts  --      1.3772                 1.3339                 2.4855
 IR Inten    --     18.3609                10.7991                21.7966

                     40                     41                     42
                      A                      A                      A
 Frequencies --   1147.7245              1162.0146              1164.9862
 Red. masses --      1.8755                 1.2837                 1.2953
 Frc consts  --      1.4556                 1.0213                 1.0357
 IR Inten    --     52.4784                28.6599                66.0051

                     43                     44                     45
                      A                      A                      A
 Frequencies --   1180.3197              1207.5606              1250.8591
 Red. masses --      1.1744                 1.3812                 2.0525
 Frc consts  --      0.9640                 1.1867                 1.8921
 IR Inten    --     17.3482                36.5599                27.9840

                     46                     47                     48
                      A                      A                      A
 Frequencies --   1285.6996              1306.3215              1350.8828
 Red. masses --      1.6660                 2.4811                 3.0399
 Frc consts  --      1.6226                 2.4946                 3.2684
 IR Inten    --     18.5055               122.8786                13.9618

                     49                     50                     51
                      A                      A                      A
 Frequencies --   1379.3424              1399.3984              1418.0261
 Red. masses --      4.5325                 4.2176                 2.6223
 Frc consts  --      5.0808                 4.8662                 3.1067
 IR Inten    --    129.0229                60.7316                24.9479

                     52                     53                     54
                      A                      A                      A
 Frequencies --   1493.8694              1505.1394              1515.8046
 Red. masses --      2.5822                 2.6391                 3.1948
 Frc consts  --      3.3953                 3.5226                 4.3250
 IR Inten    --      8.2269               126.1821                22.5880

                     55                     56                     57
                      A                      A                      A
 Frequencies --   1568.0755              1603.1768              1645.2158
 Red. masses --      4.5062                 6.3063                 8.1783
 Frc consts  --      6.5282                 9.5496                13.0424
 IR Inten    --   1979.2975               143.6377               302.8120

                     58                     59                     60
                      A                      A                      A
 Frequencies --   1666.8674              1680.8517              1715.8520
 Red. masses --      7.0675                 6.9966                 6.8840
 Frc consts  --     11.5695                11.6465                11.9412
 IR Inten    --     24.5444                52.4699               362.2589

                     61                     62                     63
                      A                      A                      A
 Frequencies --   3190.2590              3194.7970              3213.8941
 Red. masses --      1.0872                 1.0887                 1.0864
 Frc consts  --      6.5193                 6.5473                 6.6114
 IR Inten    --      1.8580                17.0029                 1.1175

                     64                     65                     66
                      A                      A                      A
 Frequencies --   3219.1273              3223.4030              3231.6914
 Red. masses --      1.0952                 1.0906                 1.0961
 Frc consts  --      6.6870                 6.6763                 6.7445
 IR Inten    --     29.7547                 2.2177                 5.2363

                     67                     68                     69
                      A                      A                      A
 Frequencies --   3235.2957              3239.6028              3389.4267
 Red. masses --      1.0975                 1.1000                 1.0835
 Frc consts  --      6.7684                 6.8020                 7.3341
 IR Inten    --     16.0742                12.1662               182.5316

 - Thermochemistry -
 -------------------
 Temperature   298.150 Kelvin.  Pressure   1.00000 Atm.
 Atom     1 has atomic number  6 and mass  12.00000

 Molecular mass:   227.04049 amu.
 Principal axes and moments of inertia in atomic units:
                           1         2         3
     Eigenvalues --  1281.639916364.675217646.31510
           X           -0.70172   0.71245   0.00001
           Y            0.71245   0.70172   0.00000
           Z            0.00001  -0.00001   1.00000
 This molecule is an asymmetric top.
 Rotational symmetry number  1.
 Warning -- assumption of classical behavior for rotation
           may cause significant error
 Rotational temperatures (Kelvin)      0.06758     0.01361     0.01133
 Rotational constants (GHZ):           1.40815     0.28356     0.23603
 Zero-point vibrational energy     497480.4 (Joules/Mol)
                                  118.90066 (Kcal/Mol)
 Warning -- explicit consideration of  18 degrees of freedom as
           vibrations may cause significant error
 Vibrational temperatures:     79.40    88.09   160.20   192.52   282.85
          (Kelvin)            327.93   380.74   429.21   443.89   586.50
                              615.53   645.11   736.25   750.91   766.85
                              789.73   807.33   837.08   909.50   938.15
                             1042.11  1061.42  1079.02  1089.19  1104.26
                             1116.81  1153.60  1202.29  1246.57  1263.01
                             1273.08  1385.76  1392.04  1396.37  1458.05
                             1466.38  1494.77  1517.59  1576.97  1651.32
                             1671.88  1676.16  1698.22  1737.41  1799.71
                             1849.83  1879.51  1943.62  1984.57  2013.42
                             2040.22  2149.34  2165.56  2180.90  2256.11
                             2306.61  2367.10  2398.25  2418.37  2468.73
                             4590.07  4596.60  4624.08  4631.61  4637.76
                             4649.68  4654.87  4661.07  4876.63

 Zero-point correction=                           0.189480 (Hartree/Particle)
 Thermal correction to Energy=                    0.201370
 Thermal correction to Enthalpy=                  0.202314
 Thermal correction to Gibbs Free Energy=         0.150718
 Sum of electronic and zero-point Energies=          -1028.618832
 Sum of electronic and thermal Energies=             -1028.606942
 Sum of electronic and thermal Enthalpies=           -1028.605998
 Sum of electronic and thermal Free Energies=        -1028.657594

                     E (Thermal)             CV                S
                      KCal/Mol        Cal/Mol-Kelvin    Cal/Mol-Kelvin
 Total                  126.362             48.207            108.593
 Electronic               0.000              0.000              0.000
 Translational            0.889              2.981             42.162
 Rotational               0.889              2.981             32.500
 Vibrational            124.584             42.245             33.931
 Vibration     1          0.596              1.976              4.622
 Vibration     2          0.597              1.973              4.417
 Vibration     3          0.607              1.940              3.245
 Vibration     4          0.613              1.920              2.891
 Vibration     5          0.636              1.845              2.165
 Vibration     6          0.651              1.798              1.895
 Vibration     7          0.671              1.738              1.631
 Vibration     8          0.691              1.677              1.426
 Vibration     9          0.698              1.657              1.370
 Vibration    10          0.772              1.454              0.935
 Vibration    11          0.789              1.410              0.866
 Vibration    12          0.807              1.364              0.801
 Vibration    13          0.867              1.224              0.629
 Vibration    14          0.877              1.201              0.606
 Vibration    15          0.888              1.177              0.581
 Vibration    16          0.904              1.142              0.546
 Vibration    17          0.917              1.115              0.522
 Vibration    18          0.939              1.071              0.482

 Optimization completed.
    -- Stationary point found.
 Normal termination of Gaussian 16 at Wed Oct 28 01:28:18 2020.
