 Gaussian 16, Revision C.01,
 Gaussian 16:  ES64L-G16RevC.01  3-Jul-2019

 ----------------------------------------------------------------------
 #p opt=addgic freq wb97xd/cc-pvdz nosymm int=ultrafine scrf=(solvent=C
 arbonTetraChloride)
 ----------------------------------------------------------------------

 ------------------------------------------------
 NM 2D-scan of HBT TD-WB97XD pVDZ in CTC Relaxed.
 ------------------------------------------------
 Symbolic Z-matrix:
 Charge =  0 Multiplicity = 1

 SCF Done:  E(RwB97XD) =  -1028.81026644     A.U. after   15 cycles
 SCF Done:  E(RwB97XD) =  -1028.81625994     A.U. after   13 cycles
 SCF Done:  E(RwB97XD) =  -1028.81770440     A.U. after   13 cycles
 SCF Done:  E(RwB97XD) =  -1028.81811483     A.U. after   12 cycles
 SCF Done:  E(RwB97XD) =  -1028.81826918     A.U. after   11 cycles
 SCF Done:  E(RwB97XD) =  -1028.81830010     A.U. after   11 cycles
 SCF Done:  E(RwB97XD) =  -1028.81830164     A.U. after    9 cycles
 Optimization completed.
    -- Stationary point found.
 Normal termination of Gaussian 16 at Tue Oct 27 21:34:57 2020.

 --------------------------------------------------------------------
 #P Geom=AllCheck Guess=TCheck SCRF=Check GenChk RwB97XD/CC-pVDZ Freq
 --------------------------------------------------------------------

 Structure from the checkpoint file:  "config_7_5.chk"
 ------------------------------------------------
 NM 2D-scan of HBT TD-WB97XD pVDZ in CTC Relaxed.
 ------------------------------------------------
 Charge =  0 Multiplicity = 1

                          Input orientation:
 ---------------------------------------------------------------------
 Center     Atomic      Atomic             Coordinates (Angstroms)
 Number     Number       Type             X           Y           Z
 ---------------------------------------------------------------------
      1          6           0        1.701055   -3.256151   -0.000031
      2          6           0        1.006937   -2.046586   -0.000025
      3          6           0        1.689406   -0.825677   -0.000015
      4          6           0        3.086824   -0.782365   -0.000010
      5          6           0        3.776676   -1.987389   -0.000016
      6          6           0        3.091097   -3.211390   -0.000027
      7          1           0        1.171960   -4.209250   -0.000043
      8          1           0        3.605682    0.176445   -0.000002
      9          1           0        4.867465   -1.982211   -0.000013
     10          1           0        3.654718   -4.145227   -0.000034
     11          7           0        0.834294    0.252231   -0.000009
     12         16           0       -0.733700   -1.760622   -0.000037
     13          6           0       -1.404813    1.054847    0.000009
     14          6           0       -2.796089    0.873747    0.000007
     15          6           0       -0.842936    2.375629    0.000030
     16          6           0       -3.659383    1.958509    0.000030
     17          1           0       -3.200905   -0.141918   -0.000011
     18          6           0       -1.753015    3.463811    0.000051
     19          6           0       -3.121626    3.255610    0.000052
     20          1           0       -4.738516    1.804733    0.000030
     21          1           0       -1.334371    4.471188    0.000066
     22          1           0       -3.793036    4.117139    0.000070
     23          6           0       -0.446503   -0.037347   -0.000009
     24          8           0        0.446131    2.570231    0.000021
     25          1           0        0.905816    1.541167    0.000002
 ---------------------------------------------------------------------

 SCF Done:  E(RwB97XD) =  -1028.81830164     A.U. after    1 cycles

 Alpha  occ. eigenvalues --  -89.09470 -19.24870 -14.47964 -10.40204 -10.36742
 Alpha  occ. eigenvalues --  -10.35696 -10.35340 -10.32792 -10.32208 -10.31985
 Alpha  occ. eigenvalues --  -10.31935 -10.31665 -10.31582 -10.31045 -10.29691
 Alpha  occ. eigenvalues --  -10.29413  -8.11483  -6.06347  -6.05977  -6.05524
 Alpha  occ. eigenvalues --   -1.14578  -1.09788  -0.97716  -0.95656  -0.92226
 Alpha  occ. eigenvalues --   -0.88836  -0.85734  -0.84058  -0.82894  -0.75716
 Alpha  occ. eigenvalues --   -0.71615  -0.70629  -0.69014  -0.68535  -0.63461
 Alpha  occ. eigenvalues --   -0.60835  -0.59289  -0.57748  -0.56019  -0.54895
 Alpha  occ. eigenvalues --   -0.54541  -0.53532  -0.52403  -0.51103  -0.49872
 Alpha  occ. eigenvalues --   -0.49729  -0.47307  -0.46321  -0.45202  -0.45197
 Alpha  occ. eigenvalues --   -0.44050  -0.43068  -0.42206  -0.40297  -0.36352
 Alpha  occ. eigenvalues --   -0.34989  -0.32765  -0.31531  -0.28131
 Alpha virt. eigenvalues --   -0.00744   0.04380   0.06749   0.07305   0.07924
 Alpha virt. eigenvalues --    0.11066   0.13778   0.14953   0.16205   0.17783
 Alpha virt. eigenvalues --    0.19133   0.20724   0.21719   0.22285   0.22762

 Mulliken charges:
               1
     1  C    0.011652
     2  C   -0.236239
     3  C    0.272033
     4  C   -0.010718
     5  C    0.008438
     6  C    0.002140
     7  H    0.021790
     8  H    0.025483
     9  H    0.023381
    10  H    0.023795
    11  N   -0.296140
    12  S    0.166781
    13  C   -0.100667
    14  C   -0.014132
    15  C    0.102257
    16  C   -0.019046
    17  H    0.006255
    18  C   -0.007849
    19  C    0.023004
    20  H    0.006608
    21  H    0.009538
    22  H    0.016004
    23  C    0.077456
    24  O   -0.301846
    25  H    0.190020
 Sum of Mulliken charges =  -0.00000

 Dipole moment (field-independent basis, Debye):
    X=              0.7124    Y=             -3.6609    Z=             -0.0000  Tot=              3.7295
 Quadrupole moment (field-independent basis, Debye-Ang):
   XX=            -82.7258   YY=            -91.4318   ZZ=           -104.0225
   XY=             -7.1226   XZ=             -0.0001   YZ=              0.0002

  Exact polarizability:     278.371     -71.813     262.719      -0.001       0.003      62.946
 Approx polarizability:     264.496     -25.840     246.324      -0.000       0.002      82.190

 ******    1 imaginary frequencies (negative Signs) ******

                      1                      2                      3
                      A                      A                      A
 Frequencies --   -171.6932                27.2144                65.1428
 Red. masses --      2.0202                 5.2803                 6.1538
 Frc consts  --      0.0351                 0.0023                 0.0154
 IR Inten    --    600.1085                 0.0433                 1.5649

                      4                      5                      6
                      A                      A                      A
 Frequencies --    152.4859               167.5288               198.1845
 Red. masses --      5.0690                 4.5218                 5.9485
 Frc consts  --      0.0694                 0.0748                 0.1377
 IR Inten    --      0.3879               105.9606                 0.2757

                      7                      8                      9
                      A                      A                      A
 Frequencies --    243.2365               278.3032               324.1884
 Red. masses --      5.8424                 6.5670                 5.2282
 Frc consts  --      0.2037                 0.2997                 0.3237
 IR Inten    --      0.2293                22.7901                 0.4592

                     10                     11                     12
                      A                      A                      A
 Frequencies --    404.3996               435.0651               435.1109
 Red. masses --      6.5465                 6.0853                 3.1335
 Frc consts  --      0.6308                 0.6786                 0.3495
 IR Inten    --     27.4144                88.2488                 1.9002

                     13                     14                     15
                      A                      A                      A
 Frequencies --    459.3704               516.8311               539.6698
 Red. masses --      3.6291                 8.6734                 3.3763
 Frc consts  --      0.4512                 1.3650                 0.5794
 IR Inten    --      8.7099                 4.7906                 3.8179

                     16                     17                     18
                      A                      A                      A
 Frequencies --    559.8348               572.5364               587.2481
 Red. masses --      7.6916                 3.6516                 7.9217
 Frc consts  --      1.4203                 0.7052                 1.6096
 IR Inten    --     14.0142                 0.1317                 1.9767

                     19                     20                     21
                      A                      A                      A
 Frequencies --    649.1193               686.1358               712.2003
 Red. masses --      6.5086                 6.0443                 6.5729
 Frc consts  --      1.6158                 1.6766                 1.9643
 IR Inten    --      0.0148                62.5380                54.7502

                     22                     23                     24
                      A                      A                      A
 Frequencies --    754.5234               768.2716               773.5155
 Red. masses --      2.2235                 1.9500                 8.7366
 Frc consts  --      0.7458                 0.6781                 3.0799
 IR Inten    --     19.7000                20.5689                 4.6049

                     25                     26                     27
                      A                      A                      A
 Frequencies --    775.7216               783.1293               795.7258
 Red. masses --      1.8430                 1.7566                 3.6799
 Frc consts  --      0.6534                 0.6347                 1.3728
 IR Inten    --     46.0142                40.1306               399.4984

                     28                     29                     30
                      A                      A                      A
 Frequencies --    853.8123               881.0927               885.9077
 Red. masses --      5.9603                 1.6206                 1.4001
 Frc consts  --      2.5600                 0.7413                 0.6474
 IR Inten    --     42.4225                 6.3963                 0.3544

                     31                     32                     33
                      A                      A                      A
 Frequencies --    936.8308               968.3351               975.4885
 Red. masses --      6.6672                 1.3501                 1.3603
 Frc consts  --      3.4476                 0.7459                 0.7626
 IR Inten    --     70.9623                 0.9837                 1.1395

                     34                     35                     36
                      A                      A                      A
 Frequencies --   1010.9004              1012.6680              1016.5841
 Red. masses --      1.3010                 7.2760                 1.3048
 Frc consts  --      0.7833                 4.3962                 0.7945
 IR Inten    --      0.2413                 2.8106                 0.0012

                     37                     38                     39
                      A                      A                      A
 Frequencies --   1054.3896              1061.8443              1099.9374
 Red. masses --      2.0259                 1.9299                 3.8753
 Frc consts  --      1.3270                 1.2821                 2.7624
 IR Inten    --      6.2157                12.9989                 5.4722

                     40                     41                     42
                      A                      A                      A
 Frequencies --   1149.3130              1155.6392              1156.5028
 Red. masses --      1.4738                 1.3066                 1.0594
 Frc consts  --      1.1470                 1.0281                 0.8349
 IR Inten    --     11.9989                 1.0490                67.7592

                     43                     44                     45
                      A                      A                      A
 Frequencies --   1174.9613              1185.3431              1257.8233
 Red. masses --      1.0808                 1.1732                 1.9433
 Frc consts  --      0.8791                 0.9712                 1.8115
 IR Inten    --    105.5974                 3.7252                73.7748

                     46                     47                     48
                      A                      A                      A
 Frequencies --   1289.1118              1315.9507              1359.6777
 Red. masses --      1.5271                 2.9681                 5.3321
 Frc consts  --      1.4952                 3.0284                 5.8079
 IR Inten    --     11.9857               331.8909                 2.6289

                     49                     50                     51
                      A                      A                      A
 Frequencies --   1379.6850              1386.5220              1400.4429
 Red. masses --      5.2401                 3.9984                 2.4438
 Frc consts  --      5.8769                 4.5288                 2.8238
 IR Inten    --      1.4196                27.3336                20.8520

                     52                     53                     54
                      A                      A                      A
 Frequencies --   1494.2265              1502.4511              1526.1309
 Red. masses --      2.7930                 2.8369                 3.9217
 Frc consts  --      3.6742                 3.7731                 5.3815
 IR Inten    --     15.9996                30.8141                28.8365

                     55                     56                     57
                      A                      A                      A
 Frequencies --   1575.9828              1587.5891              1616.3024
 Red. masses --      7.0400                 3.8164                 5.7445
 Frc consts  --     10.3022                 5.6673                 8.8419
 IR Inten    --    738.0904               608.7467               327.4098

                     58                     59                     60
                      A                      A                      A
 Frequencies --   1661.6135              1686.7422              1711.4252
 Red. masses --      7.0612                 6.7284                 6.0300
 Frc consts  --     11.4866                11.2788                10.4060
 IR Inten    --      5.8400                36.4481               207.2722

                     61                     62                     63
                      A                      A                      A
 Frequencies --   1893.9281              3187.6134              3200.3312
 Red. masses --      1.1022                 1.0898                 1.0883
 Frc consts  --      2.3293                 6.5240                 6.5676
 IR Inten    --     98.8729                 4.2462                 8.0903

                     64                     65                     66
                      A                      A                      A
 Frequencies --   3214.5533              3223.8354              3225.8406
 Red. masses --      1.0865                 1.0939                 1.0908
 Frc consts  --      6.6149                 6.6984                 6.6879
 IR Inten    --      2.1918                14.5440                 3.4185

                     67                     68                     69
                      A                      A                      A
 Frequencies --   3233.7342              3236.4274              3241.9837
 Red. masses --      1.0979                 1.0960                 1.0997
 Frc consts  --      6.7643                 6.7639                 6.8098
 IR Inten    --     18.9952                 7.9711                11.8014

 - Thermochemistry -
 -------------------
 Temperature   298.150 Kelvin.  Pressure   1.00000 Atm.
 Atom     1 has atomic number  6 and mass  12.00000

 Molecular mass:   227.04049 amu.
 Principal axes and moments of inertia in atomic units:
                           1         2         3
     Eigenvalues --  1302.441706252.634267555.07596
           X           -0.70631   0.70790  -0.00000
           Y            0.70790   0.70631  -0.00001
           Z            0.00001   0.00001   1.00000
 This molecule is an asymmetric top.
 Rotational symmetry number  1.
 Warning -- assumption of classical behavior for rotation
           may cause significant error
 Rotational temperatures (Kelvin)      0.06650     0.01385     0.01146
 Rotational constants (GHZ):           1.38566     0.28864     0.23888
    1 imaginary frequencies ignored.
 Zero-point vibrational energy     488400.4 (Joules/Mol)
                                  116.73049 (Kcal/Mol)
 Warning -- explicit consideration of  17 degrees of freedom as
           vibrations may cause significant error
 Vibrational temperatures:     39.16    93.73   219.39   241.04   285.14
          (Kelvin)            349.96   400.42   466.43   581.84   625.96
                              626.03   660.93   743.60   776.46   805.48
                              823.75   844.92   933.94   987.20  1024.70
                             1085.59  1105.37  1112.92  1116.09  1126.75
                             1144.87  1228.45  1267.70  1274.62  1347.89
                             1393.22  1403.51  1454.46  1457.00  1462.64
                             1517.03  1527.76  1582.56  1653.61  1662.71
                             1663.95  1690.51  1705.44  1809.73  1854.74
                             1893.36  1956.27  1985.06  1994.90  2014.93
                             2149.86  2161.69  2195.76  2267.49  2284.19
                             2325.50  2390.69  2426.85  2462.36  2724.94
                             4586.26  4604.56  4625.03  4638.38  4641.27
                             4652.62  4656.50  4664.49

 Zero-point correction=                           0.186022 (Hartree/Particle)
 Thermal correction to Energy=                    0.197312
 Thermal correction to Enthalpy=                  0.198256
 Thermal correction to Gibbs Free Energy=         0.147406
 Sum of electronic and zero-point Energies=          -1028.632280
 Sum of electronic and thermal Energies=             -1028.620990
 Sum of electronic and thermal Enthalpies=           -1028.620046
 Sum of electronic and thermal Free Energies=        -1028.670896

                     E (Thermal)             CV                S
                      KCal/Mol        Cal/Mol-Kelvin    Cal/Mol-Kelvin
 Total                  123.815             46.099            107.023
 Electronic               0.000              0.000              0.000
 Translational            0.889              2.981             42.162
 Rotational               0.889              2.981             32.487
 Vibrational            122.037             40.138             32.374
 Vibration     1          0.593              1.984              6.023
 Vibration     2          0.597              1.971              4.295
 Vibration     3          0.619              1.900              2.641
 Vibration     4          0.624              1.882              2.463
 Vibration     5          0.637              1.842              2.150
 Vibration     6          0.659              1.774              1.779
 Vibration     7          0.679              1.714              1.544
 Vibration     8          0.709              1.627              1.289
 Vibration     9          0.770              1.461              0.947
 Vibration    10          0.796              1.394              0.842
 Vibration    11          0.796              1.394              0.842
 Vibration    12          0.817              1.340              0.768
 Vibration    13          0.872              1.213              0.617
 Vibration    14          0.895              1.162              0.566
 Vibration    15          0.915              1.118              0.524
 Vibration    16          0.929              1.091              0.499
 Vibration    17          0.944              1.059              0.472

 Optimization completed.
    -- Stationary point found.
 Normal termination of Gaussian 16 at Tue Oct 27 21:41:10 2020.
