 Gaussian 16, Revision C.01,
 Gaussian 16:  ES64L-G16RevC.01  3-Jul-2019

 ----------------------------------------------------------------------
 #p opt=addgic freq wb97xd/cc-pvdz nosymm int=ultrafine scrf=(solvent=C
 arbonTetraChloride)
 ----------------------------------------------------------------------

 ------------------------------------------------
 NM 2D-scan of HBT TD-WB97XD pVDZ in CTC Relaxed.
 ------------------------------------------------
 Symbolic Z-matrix:
 Charge =  0 Multiplicity = 1

 SCF Done:  E(RwB97XD) =  -1028.76880785     A.U. after   16 cycles
 SCF Done:  E(RwB97XD) =  -1028.80539271     A.U. after   13 cycles
 SCF Done:  E(RwB97XD) =  -1028.80950427     A.U. after   13 cycles
 SCF Done:  E(RwB97XD) =  -1028.81003212     A.U. after   12 cycles
 SCF Done:  E(RwB97XD) =  -1028.81020290     A.U. after   11 cycles
 SCF Done:  E(RwB97XD) =  -1028.81020691     A.U. after    9 cycles
 Optimization completed.
    -- Stationary point found.
 Normal termination of Gaussian 16 at Tue Oct 27 22:50:03 2020.

 --------------------------------------------------------------------
 #P Geom=AllCheck Guess=TCheck SCRF=Check GenChk RwB97XD/CC-pVDZ Freq
 --------------------------------------------------------------------

 Structure from the checkpoint file:  "config_10_10.chk"
 ------------------------------------------------
 NM 2D-scan of HBT TD-WB97XD pVDZ in CTC Relaxed.
 ------------------------------------------------
 Charge =  0 Multiplicity = 1

                          Input orientation:
 ---------------------------------------------------------------------
 Center     Atomic      Atomic             Coordinates (Angstroms)
 Number     Number       Type             X           Y           Z
 ---------------------------------------------------------------------
      1          6           0        1.641179   -3.272647   -0.000022
      2          6           0        1.003471   -2.036124   -0.000014
      3          6           0        1.738620   -0.853598   -0.000014
      4          6           0        3.133006   -0.863118   -0.000019
      5          6           0        3.769152   -2.100960   -0.000025
      6          6           0        3.033557   -3.292003   -0.000027
      7          1           0        1.067775   -4.199651   -0.000024
      8          1           0        3.697462    0.069560   -0.000018
      9          1           0        4.859086   -2.140227   -0.000028
     10          1           0        3.555107   -4.249625   -0.000032
     11          7           0        0.902202    0.244460   -0.000012
     12         16           0       -0.729470   -1.681962   -0.000006
     13          6           0       -1.366273    1.088336    0.000007
     14          6           0       -2.763200    0.833218    0.000006
     15          6           0       -0.846148    2.455377    0.000020
     16          6           0       -3.676464    1.856958    0.000022
     17          1           0       -3.115226   -0.202690   -0.000009
     18          6           0       -1.867171    3.490299    0.000050
     19          6           0       -3.205785    3.199001    0.000047
     20          1           0       -4.745974    1.646473    0.000020
     21          1           0       -1.513224    4.522977    0.000075
     22          1           0       -3.932646    4.015408    0.000065
     23          6           0       -0.421013    0.035412   -0.000004
     24          8           0        0.380184    2.711500    0.000044
     25          1           0        1.234204    1.204852   -0.000015
 ---------------------------------------------------------------------

 SCF Done:  E(RwB97XD) =  -1028.81020691     A.U. after    1 cycles

 Alpha  occ. eigenvalues --  -89.10002 -19.21510 -14.51669 -10.41396 -10.37073
 Alpha  occ. eigenvalues --  -10.36134 -10.35925 -10.33288 -10.32948 -10.32550
 Alpha  occ. eigenvalues --  -10.32287 -10.31182 -10.30693 -10.30570 -10.29127
 Alpha  occ. eigenvalues --  -10.28589  -8.12029  -6.06913  -6.06528  -6.06037
 Alpha  occ. eigenvalues --   -1.13174  -1.09974  -0.98582  -0.95275  -0.93222
 Alpha  occ. eigenvalues --   -0.89261  -0.86585  -0.83928  -0.81822  -0.75658
 Alpha  occ. eigenvalues --   -0.73303  -0.71918  -0.69197  -0.67943  -0.64710
 Alpha  occ. eigenvalues --   -0.60908  -0.59759  -0.56710  -0.55955  -0.55869
 Alpha  occ. eigenvalues --   -0.55017  -0.53702  -0.53004  -0.50377  -0.49614
 Alpha  occ. eigenvalues --   -0.49042  -0.48256  -0.46736  -0.45608  -0.44762
 Alpha  occ. eigenvalues --   -0.44528  -0.42995  -0.41836  -0.40454  -0.36836
 Alpha  occ. eigenvalues --   -0.33553  -0.31786  -0.31649  -0.26356
 Alpha virt. eigenvalues --   -0.01253   0.03794   0.05989   0.06810   0.09303
 Alpha virt. eigenvalues --    0.11177   0.13512   0.14685   0.16061   0.17276
 Alpha virt. eigenvalues --    0.18722   0.19996   0.21110   0.21606   0.23111

 Mulliken charges:
               1
     1  C    0.014276
     2  C   -0.242383
     3  C    0.250077
     4  C   -0.010053
     5  C    0.011180
     6  C    0.002969
     7  H    0.024732
     8  H    0.031111
     9  H    0.027159
    10  H    0.025944
    11  N   -0.117240
    12  S    0.182110
    13  C   -0.115261
    14  C   -0.010337
    15  C    0.109582
    16  C   -0.032379
    17  H    0.005824
    18  C   -0.026796
    19  C    0.027360
    20  H    0.002477
    21  H    0.001846
    22  H    0.013635
    23  C    0.081577
    24  O   -0.387536
    25  H    0.130125
 Sum of Mulliken charges =  -0.00000

 Dipole moment (field-independent basis, Debye):
    X=              1.8122    Y=             -5.1907    Z=             -0.0001  Tot=              5.4979
 Quadrupole moment (field-independent basis, Debye-Ang):
   XX=            -81.9265   YY=            -95.0676   ZZ=           -104.0092
   XY=             -6.8174   XZ=             -0.0002   YZ=             -0.0001

  Exact polarizability:     287.802     -87.491     285.550      -0.001       0.002      62.919
 Approx polarizability:     266.651     -33.340     255.429      -0.001       0.002      81.953

                      1                      2                      3
                      A                      A                      A
 Frequencies --     53.7733                65.3747               110.9714
 Red. masses --      4.7505                 6.2268                 5.6814
 Frc consts  --      0.0081                 0.0157                 0.0412
 IR Inten    --      0.0005                 2.5771                 1.2716

                      4                      5                      6
                      A                      A                      A
 Frequencies --    130.9672               195.9411               231.1103
 Red. masses --      5.3547                 6.1115                 5.9504
 Frc consts  --      0.0541                 0.1382                 0.1873
 IR Inten    --      1.1278                 0.0030                 0.7926

                      7                      8                      9
                      A                      A                      A
 Frequencies --    268.6509               307.7943               311.6679
 Red. masses --      7.6180                 5.3261                 6.5658
 Frc consts  --      0.3239                 0.2973                 0.3758
 IR Inten    --      5.6398                 1.2706                 4.1792

                     10                     11                     12
                      A                      A                      A
 Frequencies --    398.3502               428.3188               446.6283
 Red. masses --      9.4055                 3.2627                 3.5582
 Frc consts  --      0.8794                 0.3527                 0.4182
 IR Inten    --      4.3048                 0.3409                10.0998

                     13                     14                     15
                      A                      A                      A
 Frequencies --    506.8253               526.7446               537.2399
 Red. masses --      8.2465                 2.7578                 8.1412
 Frc consts  --      1.2481                 0.4508                 1.3844
 IR Inten    --      9.7722                 6.5078                 8.5904

                     16                     17                     18
                      A                      A                      A
 Frequencies --    553.2985               561.9027               583.6558
 Red. masses --      6.6485                 3.7956                 7.1205
 Frc consts  --      1.1992                 0.7061                 1.4291
 IR Inten    --      3.1898                 0.0056                36.5418

                     19                     20                     21
                      A                      A                      A
 Frequencies --    630.7863               656.2852               710.9260
 Red. masses --      4.6050                 5.8495                 6.0068
 Frc consts  --      1.0796                 1.4844                 1.7887
 IR Inten    --      2.0750                 5.4014                42.5463

                     22                     23                     24
                      A                      A                      A
 Frequencies --    740.4630               741.3928               752.8495
 Red. masses --      8.0013                 1.3681                 2.4405
 Frc consts  --      2.5847                 0.4431                 0.8150
 IR Inten    --     59.1271                35.6681                35.1824

                     25                     26                     27
                      A                      A                      A
 Frequencies --    762.6766               776.3844               787.3495
 Red. masses --      1.3726                 1.5496                 2.0766
 Frc consts  --      0.4704                 0.5503                 0.7585
 IR Inten    --     28.1340                43.7937                52.1649

                     28                     29                     30
                      A                      A                      A
 Frequencies --    834.9181               877.8502               880.1038
 Red. masses --      6.1441                 1.9851                 4.1165
 Frc consts  --      2.5234                 0.9013                 1.8786
 IR Inten    --     19.3282                17.4214                 2.8616

                     31                     32                     33
                      A                      A                      A
 Frequencies --    882.6649               961.3379               968.1836
 Red. masses --      1.3789                 4.3969                 1.3219
 Frc consts  --      0.6329                 2.3941                 0.7301
 IR Inten    --      1.3079                38.7676                 0.1846

                     34                     35                     36
                      A                      A                      A
 Frequencies --    971.1115              1014.7468              1017.0276
 Red. masses --      1.3593                 1.3034                 1.3062
 Frc consts  --      0.7553                 0.7907                 0.7960
 IR Inten    --      1.4582                 0.0180                 0.3739

                     37                     38                     39
                      A                      A                      A
 Frequencies --   1043.1141              1055.8596              1085.2006
 Red. masses --      2.1599                 2.0438                 3.6421
 Frc consts  --      1.3847                 1.3425                 2.5271
 IR Inten    --     12.2868                12.6243                26.5966

                     40                     41                     42
                      A                      A                      A
 Frequencies --   1123.3108              1156.8558              1160.5046
 Red. masses --      2.1128                 1.3506                 1.1958
 Frc consts  --      1.5708                 1.0650                 0.9489
 IR Inten    --     80.5970                 1.7994                72.6957

                     43                     44                     45
                      A                      A                      A
 Frequencies --   1183.1787              1197.3414              1253.3550
 Red. masses --      1.1483                 1.2459                 1.9712
 Frc consts  --      0.9471                 1.0524                 1.8244
 IR Inten    --     16.3455                15.0426                 6.6303

                     46                     47                     48
                      A                      A                      A
 Frequencies --   1289.0190              1305.3043              1364.3783
 Red. masses --      1.5768                 2.7090                 2.8369
 Frc consts  --      1.5437                 2.7194                 3.1115
 IR Inten    --      9.6277               171.2861                31.2559

                     49                     50                     51
                      A                      A                      A
 Frequencies --   1388.6312              1393.6362              1417.6534
 Red. masses --      5.3987                 6.8862                 2.3308
 Frc consts  --      6.1336                 7.8800                 2.7599
 IR Inten    --    111.9620                27.7163                 9.9161

                     52                     53                     54
                      A                      A                      A
 Frequencies --   1493.6441              1507.7897              1525.1430
 Red. masses --      2.7380                 2.8169                 3.2516
 Frc consts  --      3.5989                 3.7731                 4.4563
 IR Inten    --     43.4281               392.2429               131.4737

                     55                     56                     57
                      A                      A                      A
 Frequencies --   1557.5928              1601.2137              1638.3845
 Red. masses --      4.3591                 6.3833                 7.2002
 Frc consts  --      6.2309                 9.6426                11.3875
 IR Inten    --   1562.8962               154.8342               181.3243

                     58                     59                     60
                      A                      A                      A
 Frequencies --   1680.2635              1684.0586              1716.5147
 Red. masses --      7.3191                 7.2314                 7.2260
 Frc consts  --     12.1749                12.0833                12.5441
 IR Inten    --      1.4604               147.3314               337.4197

                     61                     62                     63
                      A                      A                      A
 Frequencies --   3181.9303              3193.9261              3217.9652
 Red. masses --      1.0892                 1.0879                 1.0864
 Frc consts  --      6.4974                 6.5387                 6.6285
 IR Inten    --      4.6545                14.8992                 1.4989

                     64                     65                     66
                      A                      A                      A
 Frequencies --   3220.1328              3228.3573              3233.5399
 Red. masses --      1.0946                 1.0908                 1.0970
 Frc consts  --      6.6872                 6.6983                 6.7580
 IR Inten    --     27.7460                 2.5306                19.1925

                     67                     68                     69
                      A                      A                      A
 Frequencies --   3237.3791              3243.8118              3489.1499
 Red. masses --      1.0962                 1.1000                 1.0838
 Frc consts  --      6.7690                 6.8193                 7.7736
 IR Inten    --      5.0784                11.3155               215.6937

 - Thermochemistry -
 -------------------
 Temperature   298.150 Kelvin.  Pressure   1.00000 Atm.
 Atom     1 has atomic number  6 and mass  12.00000

 Molecular mass:   227.04049 amu.
 Principal axes and moments of inertia in atomic units:
                           1         2         3
     Eigenvalues --  1294.866186348.609517643.47569
           X           -0.70479   0.70942   0.00000
           Y            0.70942   0.70479  -0.00001
           Z            0.00001   0.00001   1.00000
 This molecule is an asymmetric top.
 Rotational symmetry number  1.
 Warning -- assumption of classical behavior for rotation
           may cause significant error
 Rotational temperatures (Kelvin)      0.06689     0.01364     0.01133
 Rotational constants (GHZ):           1.39377     0.28427     0.23612
 Zero-point vibrational energy     497972.0 (Joules/Mol)
                                  119.01816 (Kcal/Mol)
 Warning -- explicit consideration of  18 degrees of freedom as
           vibrations may cause significant error
 Vibrational temperatures:     77.37    94.06   159.66   188.43   281.92
          (Kelvin)            332.52   386.53   442.85   448.42   573.14
                              616.26   642.60   729.21   757.87   772.97
                              796.07   808.45   839.75   907.56   944.25
                             1022.86  1065.36  1066.70  1083.18  1097.32
                             1117.04  1132.82  1201.26  1263.03  1266.27
                             1269.96  1383.15  1393.00  1397.21  1459.99
                             1463.28  1500.81  1519.15  1561.36  1616.19
                             1664.46  1669.71  1702.33  1722.71  1803.30
                             1854.61  1878.04  1963.04  1997.93  2005.13
                             2039.69  2149.02  2169.37  2194.34  2241.03
                             2303.79  2357.27  2417.52  2422.98  2469.68
                             4578.09  4595.35  4629.93  4633.05  4644.89
                             4652.34  4657.87  4667.12  5020.11

 Zero-point correction=                           0.189668 (Hartree/Particle)
 Thermal correction to Energy=                    0.201550
 Thermal correction to Enthalpy=                  0.202494
 Thermal correction to Gibbs Free Energy=         0.150938
 Sum of electronic and zero-point Energies=          -1028.620539
 Sum of electronic and thermal Energies=             -1028.608657
 Sum of electronic and thermal Enthalpies=           -1028.607713
 Sum of electronic and thermal Free Energies=        -1028.659269

                     E (Thermal)             CV                S
                      KCal/Mol        Cal/Mol-Kelvin    Cal/Mol-Kelvin
 Total                  126.474             48.251            108.509
 Electronic               0.000              0.000              0.000
 Translational            0.889              2.981             42.162
 Rotational               0.889              2.981             32.508
 Vibrational            124.697             42.289             33.840
 Vibration     1          0.596              1.976              4.674
 Vibration     2          0.597              1.971              4.288
 Vibration     3          0.607              1.940              3.252
 Vibration     4          0.612              1.922              2.932
 Vibration     5          0.636              1.846              2.171
 Vibration     6          0.653              1.793              1.870
 Vibration     7          0.673              1.731              1.605
 Vibration     8          0.698              1.659              1.374
 Vibration     9          0.700              1.651              1.353
 Vibration    10          0.765              1.474              0.969
 Vibration    11          0.790              1.409              0.864
 Vibration    12          0.806              1.368              0.806
 Vibration    13          0.862              1.235              0.641
 Vibration    14          0.882              1.191              0.595
 Vibration    15          0.892              1.168              0.571
 Vibration    16          0.909              1.132              0.537
 Vibration    17          0.918              1.114              0.520
 Vibration    18          0.941              1.067              0.479

 Optimization completed.
    -- Stationary point found.
 Normal termination of Gaussian 16 at Tue Oct 27 22:56:08 2020.
