 Gaussian 16, Revision C.01,
 Gaussian 16:  ES64L-G16RevC.01  3-Jul-2019

 ----------------------------------------------------------------------
 #p opt=addgic freq wb97xd/cc-pvdz nosymm int=ultrafine scrf=(solvent=C
 arbonTetraChloride)
 ----------------------------------------------------------------------

 ------------------------------------------------
 NM 2D-scan of HBT TD-WB97XD pVDZ in CTC Relaxed.
 ------------------------------------------------
 Symbolic Z-matrix:
 Charge =  0 Multiplicity = 1

 SCF Done:  E(RwB97XD) =  -1028.81301960     A.U. after   15 cycles
 SCF Done:  E(RwB97XD) =  -1028.82103186     A.U. after   13 cycles
 SCF Done:  E(RwB97XD) =  -1028.82218882     A.U. after   12 cycles
 SCF Done:  E(RwB97XD) =  -1028.82279038     A.U. after   11 cycles
 SCF Done:  E(RwB97XD) =  -1028.82280477     A.U. after    9 cycles
 SCF Done:  E(RwB97XD) =  -1028.82280651     A.U. after    9 cycles
 SCF Done:  E(RwB97XD) =  -1028.82280649     A.U. after    7 cycles
 SCF Done:  E(RwB97XD) =  -1028.82280660     A.U. after    7 cycles
 Optimization completed.
    -- Stationary point found.
 Normal termination of Gaussian 16 at Tue Oct 27 20:54:10 2020.

 --------------------------------------------------------------------
 #P Geom=AllCheck Guess=TCheck SCRF=Check GenChk RwB97XD/CC-pVDZ Freq
 --------------------------------------------------------------------

 Structure from the checkpoint file:  "config_5_2.chk"
 ------------------------------------------------
 NM 2D-scan of HBT TD-WB97XD pVDZ in CTC Relaxed.
 ------------------------------------------------
 Charge =  0 Multiplicity = 1

                          Input orientation:
 ---------------------------------------------------------------------
 Center     Atomic      Atomic             Coordinates (Angstroms)
 Number     Number       Type             X           Y           Z
 ---------------------------------------------------------------------
      1          6           0        1.751545   -3.283629   -0.000044
      2          6           0        0.994021   -2.105814   -0.000054
      3          6           0        1.645252   -0.864673   -0.000007
      4          6           0        3.039019   -0.757864    0.000051
      5          6           0        3.784213   -1.923089    0.000058
      6          6           0        3.140958   -3.172316    0.000011
      7          1           0        1.276518   -4.264992   -0.000078
      8          1           0        3.501331    0.229617    0.000086
      9          1           0        4.873928   -1.874809    0.000101
     10          1           0        3.742125   -4.082863    0.000018
     11          7           0        0.805882    0.214130   -0.000024
     12         16           0       -0.754718   -1.833880   -0.000115
     13          6           0       -1.415146    1.048388   -0.000057
     14          6           0       -2.816023    0.916249   -0.000022
     15          6           0       -0.860002    2.370159   -0.000030
     16          6           0       -3.651565    2.025569    0.000080
     17          1           0       -3.253848   -0.085250   -0.000052
     18          6           0       -1.724077    3.478968    0.000091
     19          6           0       -3.095580    3.312639    0.000148
     20          1           0       -4.733645    1.892723    0.000117
     21          1           0       -1.265126    4.468259    0.000116
     22          1           0       -3.745888    4.189590    0.000234
     23          6           0       -0.464277   -0.075126   -0.000090
     24          8           0        0.440382    2.629333   -0.000154
     25          1           0        0.900590    1.726940   -0.000295
 ---------------------------------------------------------------------

 SCF Done:  E(RwB97XD) =  -1028.82280660     A.U. after    1 cycles

 Alpha  occ. eigenvalues --  -89.09194 -19.26916 -14.46815 -10.39886 -10.37143
 Alpha  occ. eigenvalues --  -10.35180 -10.34882 -10.32650 -10.32506 -10.31787
 Alpha  occ. eigenvalues --  -10.31776 -10.31719 -10.31623 -10.31171 -10.30020
 Alpha  occ. eigenvalues --  -10.29709  -8.11110  -6.05982  -6.05618  -6.05148
 Alpha  occ. eigenvalues --   -1.15964  -1.09344  -0.97323  -0.95869  -0.91455
 Alpha  occ. eigenvalues --   -0.88610  -0.85270  -0.84297  -0.83053  -0.75563
 Alpha  occ. eigenvalues --   -0.71334  -0.70458  -0.69332  -0.68333  -0.63009
 Alpha  occ. eigenvalues --   -0.60629  -0.58838  -0.58185  -0.56178  -0.54446
 Alpha  occ. eigenvalues --   -0.54250  -0.53313  -0.52351  -0.51113  -0.50085
 Alpha  occ. eigenvalues --   -0.49596  -0.47627  -0.45984  -0.45292  -0.44991
 Alpha  occ. eigenvalues --   -0.43723  -0.42847  -0.42645  -0.39892  -0.36428
 Alpha  occ. eigenvalues --   -0.36190  -0.32409  -0.31563  -0.28753
 Alpha virt. eigenvalues --   -0.00532   0.04639   0.06948   0.07380   0.07398
 Alpha virt. eigenvalues --    0.11286   0.12970   0.15060   0.15929   0.17818
 Alpha virt. eigenvalues --    0.19051   0.20716   0.21746   0.22545   0.22622

 Mulliken charges:
               1
     1  C    0.002735
     2  C   -0.228468
     3  C    0.259739
     4  C   -0.012249
     5  C    0.008737
     6  C   -0.000836
     7  H    0.021493
     8  H    0.021123
     9  H    0.020941
    10  H    0.022531
    11  N   -0.334132
    12  S    0.149480
    13  C   -0.092991
    14  C   -0.013900
    15  C    0.083731
    16  C   -0.013129
    17  H    0.006958
    18  C    0.007690
    19  C    0.021032
    20  H    0.009167
    21  H    0.013806
    22  H    0.017157
    23  C    0.082017
    24  O   -0.221486
    25  H    0.168853
 Sum of Mulliken charges =  -0.00000

 Dipole moment (field-independent basis, Debye):
    X=              0.3859    Y=             -2.6936    Z=             -0.0001  Tot=              2.7211
 Quadrupole moment (field-independent basis, Debye-Ang):
   XX=            -82.7295   YY=            -90.2060   ZZ=           -104.1716
   XY=             -7.1202   XZ=             -0.0002   YZ=              0.0006

  Exact polarizability:     276.323     -66.980     257.969      -0.000       0.004      63.078
 Approx polarizability:     263.977     -23.394     243.959       0.000       0.004      82.292

                      1                      2                      3
                      A                      A                      A
 Frequencies --     18.4960                57.8941               121.7160
 Red. masses --      5.6028                 5.9791                 5.6700
 Frc consts  --      0.0011                 0.0118                 0.0495
 IR Inten    --      0.0206                 1.4140                 1.2381

                      4                      5                      6
                      A                      A                      A
 Frequencies --    151.4083               198.0126               244.5837
 Red. masses --      4.8934                 5.7082                 5.7975
 Frc consts  --      0.0661                 0.1319                 0.2043
 IR Inten    --      0.0517                 0.4292                 0.0947

                      7                      8                      9
                      A                      A                      A
 Frequencies --    270.2338               324.7544               332.0844
 Red. masses --      7.4893                 5.1245                 6.4161
 Frc consts  --      0.3222                 0.3184                 0.4169
 IR Inten    --      0.7940                 0.4449                 7.7926

                     10                     11                     12
                      A                      A                      A
 Frequencies --    402.1035               437.7369               464.2617
 Red. masses --      9.7504                 3.1378                 3.6963
 Frc consts  --      0.9289                 0.3542                 0.4694
 IR Inten    --      0.3047                 2.1946                 8.4236

                     13                     14                     15
                      A                      A                      A
 Frequencies --    514.6948               527.2552               539.5723
 Red. masses --      8.7304                 4.9763                 3.4807
 Frc consts  --      1.3626                 0.8151                 0.5971
 IR Inten    --      0.2456                13.7077                 3.7581

                     16                     17                     18
                      A                      A                      A
 Frequencies --    549.4914               573.2662               593.9698
 Red. masses --      8.1395                 3.6734                 7.6492
 Frc consts  --      1.4480                 0.7113                 1.5900
 IR Inten    --      3.5426                 0.0758                 4.7520

                     19                     20                     21
                      A                      A                      A
 Frequencies --    646.9326               682.9210               704.3679
 Red. masses --      6.2313                 6.3953                 7.0148
 Frc consts  --      1.5366                 1.7573                 2.0505
 IR Inten    --      0.0000                16.9302                26.3513

                     22                     23                     24
                      A                      A                      A
 Frequencies --    738.0303               753.9142               765.3593
 Red. masses --      9.8440                 2.0410                 3.1575
 Frc consts  --      3.1592                 0.6835                 1.0897
 IR Inten    --      9.4300                25.1328                 0.7612

                     25                     26                     27
                      A                      A                      A
 Frequencies --    775.4766               784.6409               844.1219
 Red. masses --      1.3416                 1.8692                 5.9979
 Frc consts  --      0.4754                 0.6780                 2.5180
 IR Inten    --     66.8543                32.5402                19.6730

                     28                     29                     30
                      A                      A                      A
 Frequencies --    883.9021               884.6130               907.2227
 Red. masses --      1.5109                 1.4628                 6.5771
 Frc consts  --      0.6955                 0.6744                 3.1894
 IR Inten    --      4.6620                 0.6938                 0.2472

                     31                     32                     33
                      A                      A                      A
 Frequencies --    950.0660               970.8410               975.0874
 Red. masses --      1.0910                 1.3549                 1.3599
 Frc consts  --      0.5802                 0.7524                 0.7618
 IR Inten    --     71.7107                 0.7431                 4.3312

                     34                     35                     36
                      A                      A                      A
 Frequencies --    988.8741              1010.7311              1015.2155
 Red. masses --      7.4823                 1.2993                 1.3057
 Frc consts  --      4.3109                 0.7820                 0.7929
 IR Inten    --     65.8327                 0.4358                 0.0552

                     37                     38                     39
                      A                      A                      A
 Frequencies --   1051.2743              1067.4450              1090.9955
 Red. masses --      2.0385                 1.9782                 4.5115
 Frc consts  --      1.3274                 1.3280                 3.1638
 IR Inten    --      8.3819                11.1132                 5.3916

                     40                     41                     42
                      A                      A                      A
 Frequencies --   1144.9695              1151.3750              1172.9764
 Red. masses --      1.5121                 1.2758                 1.1241
 Frc consts  --      1.1679                 0.9964                 0.9113
 IR Inten    --     13.4773                 3.9809                50.1919

                     43                     44                     45
                      A                      A                      A
 Frequencies --   1183.2013              1250.5056              1284.8369
 Red. masses --      1.1738                 1.9552                 1.5438
 Frc consts  --      0.9682                 1.8014                 1.5015
 IR Inten    --      0.1165               141.9828                 0.5400

                     46                     47                     48
                      A                      A                      A
 Frequencies --   1292.0881              1328.1941              1353.5495
 Red. masses --      2.3824                 6.1066                 3.3088
 Frc consts  --      2.3434                 6.3471                 3.5717
 IR Inten    --    140.8757                 5.6811                19.7768

                     49                     50                     51
                      A                      A                      A
 Frequencies --   1374.7547              1381.7360              1476.2351
 Red. masses --      8.0153                 2.8161                 2.1693
 Frc consts  --      8.9252                 3.1678                 2.7854
 IR Inten    --     16.6544                13.3664                10.5299

                     52                     53                     54
                      A                      A                      A
 Frequencies --   1491.9512              1494.5512              1525.0667
 Red. masses --      2.9816                 2.7887                 4.0295
 Frc consts  --      3.9103                 3.6700                 5.5217
 IR Inten    --      2.9506                46.5097               112.4439

                     55                     56                     57
                      A                      A                      A
 Frequencies --   1573.5074              1593.0988              1651.0108
 Red. masses --      2.4899                 6.0839                 6.4778
 Frc consts  --      3.6321                 9.0974                10.4035
 IR Inten    --    103.4431               206.0269                11.0315

                     58                     59                     60
                      A                      A                      A
 Frequencies --   1670.9357              1681.9641              1706.4478
 Red. masses --      3.1508                 5.5362                 5.3631
 Frc consts  --      5.1831                 9.2278                 9.2014
 IR Inten    --    188.9967                58.7766               147.0857

                     61                     62                     63
                      A                      A                      A
 Frequencies --   2847.9082              3191.6370              3205.8960
 Red. masses --      1.0735                 1.0894                 1.0884
 Frc consts  --      5.1298                 6.5380                 6.5907
 IR Inten    --   1353.6832                 4.5998                 5.0128

                     64                     65                     66
                      A                      A                      A
 Frequencies --   3212.2363              3222.4216              3226.8284
 Red. masses --      1.0861                 1.0903                 1.0937
 Frc consts  --      6.6026                 6.6706                 6.7094
 IR Inten    --      0.7957                 2.9650                12.8151

                     67                     68                     69
                      A                      A                      A
 Frequencies --   3231.6169              3233.8865              3238.8612
 Red. masses --      1.0960                 1.0991                 1.1001
 Frc consts  --      6.7440                 6.7722                 6.7994
 IR Inten    --     10.6071                17.9130                13.8242

 - Thermochemistry -
 -------------------
 Temperature   298.150 Kelvin.  Pressure   1.00000 Atm.
 Atom     1 has atomic number  6 and mass  12.00000

 Molecular mass:   227.04049 amu.
 Principal axes and moments of inertia in atomic units:
                           1         2         3
     Eigenvalues --  1335.076476300.691387635.76784
           X           -0.70031   0.71384  -0.00001
           Y            0.71384   0.70031  -0.00001
           Z            0.00001   0.00001   1.00000
 This molecule is an asymmetric top.
 Rotational symmetry number  1.
 Warning -- assumption of classical behavior for rotation
           may cause significant error
 Rotational temperatures (Kelvin)      0.06488     0.01375     0.01134
 Rotational constants (GHZ):           1.35179     0.28644     0.23635
 Zero-point vibrational energy     497693.3 (Joules/Mol)
                                  118.95154 (Kcal/Mol)
 Warning -- explicit consideration of  18 degrees of freedom as
           vibrations may cause significant error
 Vibrational temperatures:     26.61    83.30   175.12   217.84   284.90
          (Kelvin)            351.90   388.81   467.25   477.80   578.54
                              629.81   667.97   740.53   758.60   776.32
                              790.60   824.80   854.59   930.79   982.57
                             1013.43  1061.86  1084.71  1101.18  1115.74
                             1128.92  1214.50  1271.74  1272.76  1305.29
                             1366.93  1396.82  1402.93  1422.77  1454.22
                             1460.67  1512.55  1535.82  1569.70  1647.36
                             1656.57  1687.65  1702.36  1799.20  1848.59
                             1859.03  1910.98  1947.46  1977.97  1988.01
                             2123.97  2146.58  2150.33  2194.23  2263.93
                             2292.11  2375.44  2404.10  2419.97  2455.20
                             4097.50  4592.05  4612.57  4621.69  4636.35
                             4642.69  4649.58  4652.84  4660.00

 Zero-point correction=                           0.189561 (Hartree/Particle)
 Thermal correction to Energy=                    0.201270
 Thermal correction to Enthalpy=                  0.202214
 Thermal correction to Gibbs Free Energy=         0.150097
 Sum of electronic and zero-point Energies=          -1028.633245
 Sum of electronic and thermal Energies=             -1028.621537
 Sum of electronic and thermal Enthalpies=           -1028.620593
 Sum of electronic and thermal Free Energies=        -1028.672710

                     E (Thermal)             CV                S
                      KCal/Mol        Cal/Mol-Kelvin    Cal/Mol-Kelvin
 Total                  126.299             47.412            109.690
 Electronic               0.000              0.000              0.000
 Translational            0.889              2.981             42.162
 Rotational               0.889              2.981             32.529
 Vibrational            124.521             41.450             34.999
 Vibration     1          0.593              1.986              6.789
 Vibration     2          0.596              1.974              4.528
 Vibration     3          0.609              1.931              3.073
 Vibration     4          0.619              1.901              2.654
 Vibration     5          0.637              1.843              2.151
 Vibration     6          0.660              1.772              1.769
 Vibration     7          0.674              1.728              1.595
 Vibration     8          0.709              1.626              1.286
 Vibration     9          0.714              1.611              1.250
 Vibration    10          0.768              1.466              0.955
 Vibration    11          0.798              1.388              0.834
 Vibration    12          0.822              1.329              0.754
 Vibration    13          0.870              1.217              0.622
 Vibration    14          0.882              1.190              0.593
 Vibration    15          0.895              1.163              0.566
 Vibration    16          0.905              1.141              0.545
 Vibration    17          0.930              1.089              0.498
 Vibration    18          0.952              1.045              0.460

 Optimization completed.
    -- Stationary point found.
 Normal termination of Gaussian 16 at Tue Oct 27 21:01:07 2020.
