 Gaussian 16, Revision C.01,
 Gaussian 16:  ES64L-G16RevC.01  3-Jul-2019

 ----------------------------------------------------------------------
 #p opt=addgic freq wb97xd/cc-pvdz nosymm int=ultrafine scrf=(solvent=C
 arbonTetraChloride)
 ----------------------------------------------------------------------

 ------------------------------------------------
 NM 2D-scan of HBT TD-WB97XD pVDZ in CTC Relaxed.
 ------------------------------------------------
 Symbolic Z-matrix:
 Charge =  0 Multiplicity = 1

 SCF Done:  E(RwB97XD) =  -1028.79204964     A.U. after   15 cycles
 SCF Done:  E(RwB97XD) =  -1028.82709516     A.U. after   13 cycles
 SCF Done:  E(RwB97XD) =  -1028.82949771     A.U. after   13 cycles
 SCF Done:  E(RwB97XD) =  -1028.82976848     A.U. after   11 cycles
 SCF Done:  E(RwB97XD) =  -1028.82980064     A.U. after   10 cycles
 SCF Done:  E(RwB97XD) =  -1028.82980419     A.U. after    9 cycles
 Optimization completed.
    -- Stationary point found.
 Normal termination of Gaussian 16 at Tue Oct 27 23:13:39 2020.

 --------------------------------------------------------------------
 #P Geom=AllCheck Guess=TCheck SCRF=Check GenChk RwB97XD/CC-pVDZ Freq
 --------------------------------------------------------------------

 Structure from the checkpoint file:  "config_3_9.chk"
 ------------------------------------------------
 NM 2D-scan of HBT TD-WB97XD pVDZ in CTC Relaxed.
 ------------------------------------------------
 Charge =  0 Multiplicity = 1

                          Input orientation:
 ---------------------------------------------------------------------
 Center     Atomic      Atomic             Coordinates (Angstroms)
 Number     Number       Type             X           Y           Z
 ---------------------------------------------------------------------
      1          6           0        1.656258   -3.299124   -0.000001
      2          6           0        0.982145   -2.073906    0.000006
      3          6           0        1.694956   -0.861968   -0.000030
      4          6           0        3.094212   -0.855799   -0.000073
      5          6           0        3.762140   -2.069319   -0.000079
      6          6           0        3.047605   -3.279230   -0.000043
      7          1           0        1.112608   -4.244305    0.000021
      8          1           0        3.626630    0.095813   -0.000099
      9          1           0        4.852867   -2.087900   -0.000112
     10          1           0        3.592467   -4.224515   -0.000052
     11          7           0        0.912300    0.270458   -0.000015
     12         16           0       -0.740032   -1.728223    0.000035
     13          6           0       -1.354395    1.085913    0.000048
     14          6           0       -2.740811    0.846038    0.000021
     15          6           0       -0.897070    2.434182    0.000063
     16          6           0       -3.655410    1.887054   -0.000012
     17          1           0       -3.102177   -0.185414    0.000008
     18          6           0       -1.834751    3.478144    0.000026
     19          6           0       -3.191745    3.209720   -0.000013
     20          1           0       -4.724821    1.676014   -0.000042
     21          1           0       -1.453163    4.499750    0.000044
     22          1           0       -3.903059    4.037788   -0.000035
     23          6           0       -0.363957    0.006315    0.000041
     24          8           0        0.391369    2.781531    0.000156
     25          1           0        0.920370    1.943087    0.000244
 ---------------------------------------------------------------------

 SCF Done:  E(RwB97XD) =  -1028.82980419     A.U. after    1 cycles

 Alpha  occ. eigenvalues --  -89.08785 -19.27968 -14.46845 -10.39511 -10.37369
 Alpha  occ. eigenvalues --  -10.34906 -10.34802 -10.32444 -10.32403 -10.31875
 Alpha  occ. eigenvalues --  -10.31614 -10.31577 -10.31457 -10.31352 -10.30222
 Alpha  occ. eigenvalues --  -10.30021  -8.10769  -6.05629  -6.05272  -6.04815
 Alpha  occ. eigenvalues --   -1.16438  -1.08984  -0.97245  -0.96113  -0.91476
 Alpha  occ. eigenvalues --   -0.88563  -0.85330  -0.84514  -0.82955  -0.75488
 Alpha  occ. eigenvalues --   -0.71363  -0.70576  -0.69437  -0.68189  -0.63095
 Alpha  occ. eigenvalues --   -0.60463  -0.58745  -0.58380  -0.56373  -0.54490
 Alpha  occ. eigenvalues --   -0.54011  -0.53195  -0.52650  -0.50907  -0.50320
 Alpha  occ. eigenvalues --   -0.49346  -0.47705  -0.45887  -0.45353  -0.44973
 Alpha  occ. eigenvalues --   -0.43855  -0.42907  -0.42639  -0.39762  -0.37172
 Alpha  occ. eigenvalues --   -0.36181  -0.32139  -0.31690  -0.29048
 Alpha virt. eigenvalues --   -0.00455   0.04823   0.06855   0.07200   0.07634
 Alpha virt. eigenvalues --    0.11449   0.13833   0.15148   0.16254   0.17908
 Alpha virt. eigenvalues --    0.18954   0.20764   0.21708   0.22544   0.22772

 Mulliken charges:
               1
     1  C    0.006379
     2  C   -0.216283
     3  C    0.230863
     4  C   -0.013651
     5  C    0.006622
     6  C   -0.000384
     7  H    0.019647
     8  H    0.017967
     9  H    0.019687
    10  H    0.021540
    11  N   -0.342702
    12  S    0.144591
    13  C   -0.064016
    14  C   -0.021430
    15  C    0.068323
    16  C   -0.007512
    17  H    0.012706
    18  C    0.011282
    19  C    0.020320
    20  H    0.009846
    21  H    0.016204
    22  H    0.018333
    23  C    0.082654
    24  O   -0.202458
    25  H    0.161472
 Sum of Mulliken charges =  -0.00000

 Dipole moment (field-independent basis, Debye):
    X=              0.0451    Y=             -2.4238    Z=              0.0001  Tot=              2.4242
 Quadrupole moment (field-independent basis, Debye-Ang):
   XX=            -82.7331   YY=            -89.9801   ZZ=           -104.1460
   XY=             -7.1008   XZ=              0.0001   YZ=             -0.0000

  Exact polarizability:     274.814     -66.564     255.794      -0.001       0.001      63.009
 Approx polarizability:     262.701     -22.891     242.789      -0.001       0.000      82.211

                      1                      2                      3
                      A                      A                      A
 Frequencies --     50.2299                58.9522               120.2111
 Red. masses --      5.7153                 5.5912                 5.6550
 Frc consts  --      0.0085                 0.0114                 0.0481
 IR Inten    --      0.1499                 1.0968                 1.2870

                      4                      5                      6
                      A                      A                      A
 Frequencies --    153.0613               199.3386               245.6425
 Red. masses --      4.9672                 5.9021                 5.7560
 Frc consts  --      0.0686                 0.1382                 0.2046
 IR Inten    --      0.0145                 0.5961                 0.0343

                      7                      8                      9
                      A                      A                      A
 Frequencies --    270.4419               308.6905               327.6042
 Red. masses --      7.7853                 6.4194                 5.1081
 Frc consts  --      0.3355                 0.3604                 0.3230
 IR Inten    --      1.1444                 6.9832                 0.2667

                     10                     11                     12
                      A                      A                      A
 Frequencies --    407.2480               438.7346               467.8605
 Red. masses --      9.2969                 3.1492                 3.7162
 Frc consts  --      0.9085                 0.3572                 0.4793
 IR Inten    --      0.1985                 2.1067                 7.9939

                     13                     14                     15
                      A                      A                      A
 Frequencies --    514.2461               516.5266               538.8923
 Red. masses --      5.9165                 6.6373                 3.4673
 Frc consts  --      0.9218                 1.0433                 0.5933
 IR Inten    --      5.7012                 2.2942                 3.7381

                     16                     17                     18
                      A                      A                      A
 Frequencies --    548.7187               574.6725               593.0848
 Red. masses --      8.3806                 3.7199                 7.6929
 Frc consts  --      1.4867                 0.7238                 1.5943
 IR Inten    --      2.4119                 0.0309                 5.7440

                     19                     20                     21
                      A                      A                      A
 Frequencies --    646.5955               680.1736               712.7602
 Red. masses --      5.9150                 6.4891                 7.4219
 Frc consts  --      1.4570                 1.7688                 2.2215
 IR Inten    --      0.1346                 6.1471                34.5525

                     22                     23                     24
                      A                      A                      A
 Frequencies --    732.6371               755.6740               761.5042
 Red. masses --      9.0904                 2.0520                 2.6044
 Frc consts  --      2.8748                 0.6904                 0.8898
 IR Inten    --      6.4513                32.6305                 2.5130

                     25                     26                     27
                      A                      A                      A
 Frequencies --    776.6702               787.0071               833.7042
 Red. masses --      1.3496                 1.8774                 1.1823
 Frc consts  --      0.4797                 0.6851                 0.4842
 IR Inten    --     66.9203                31.3899                75.2571

                     28                     29                     30
                      A                      A                      A
 Frequencies --    845.2656               884.9689               888.2878
 Red. masses --      5.9970                 1.5358                 1.4231
 Frc consts  --      2.5245                 0.7087                 0.6616
 IR Inten    --     20.8930                 3.6583                 1.6322

                     31                     32                     33
                      A                      A                      A
 Frequencies --    896.9906               972.2300               976.6777
 Red. masses --      6.5210                 1.3560                 1.3636
 Frc consts  --      3.0913                 0.7552                 0.7664
 IR Inten    --      2.1319                 1.1465                 1.6515

                     34                     35                     36
                      A                      A                      A
 Frequencies --    989.0338              1011.2327              1015.9303
 Red. masses --      7.5966                 1.3010                 1.3045
 Frc consts  --      4.3782                 0.7838                 0.7932
 IR Inten    --     61.5252                 0.3511                 0.0162

                     37                     38                     39
                      A                      A                      A
 Frequencies --   1052.5179              1069.8855              1097.7473
 Red. masses --      2.0104                 1.9738                 4.3522
 Frc consts  --      1.3122                 1.3311                 3.0901
 IR Inten    --      8.3111                11.2491                 6.0629

                     40                     41                     42
                      A                      A                      A
 Frequencies --   1148.6452              1152.6024              1175.7089
 Red. masses --      1.4915                 1.2976                 1.1268
 Frc consts  --      1.1594                 1.0157                 0.9177
 IR Inten    --      6.8878                 3.8935                45.0079

                     43                     44                     45
                      A                      A                      A
 Frequencies --   1185.1846              1250.1359              1285.5668
 Red. masses --      1.1950                 1.8628                 1.5986
 Frc consts  --      0.9890                 1.7153                 1.5566
 IR Inten    --      0.3920               134.0964                 3.6198

                     46                     47                     48
                      A                      A                      A
 Frequencies --   1288.7244              1332.7341              1347.9685
 Red. masses --      2.2974                 5.0954                 3.1008
 Frc consts  --      2.2480                 5.3323                 3.3196
 IR Inten    --    123.1083                21.8809                 8.8824

                     49                     50                     51
                      A                      A                      A
 Frequencies --   1372.5841              1378.3203              1464.9048
 Red. masses --      7.9344                 3.5634                 1.8266
 Frc consts  --      8.8073                 3.9885                 2.3094
 IR Inten    --     15.5587                16.1331                41.8781

                     52                     53                     54
                      A                      A                      A
 Frequencies --   1491.8935              1502.5950              1521.9624
 Red. masses --      2.6369                 3.0066                 3.8226
 Frc consts  --      3.4580                 3.9996                 5.2169
 IR Inten    --     34.7465                 6.2002               124.1274

                     55                     56                     57
                      A                      A                      A
 Frequencies --   1550.4480              1593.0937              1647.6525
 Red. masses --      2.2514                 7.0267                 6.7232
 Frc consts  --      3.1887                10.5071                10.7537
 IR Inten    --    111.9928               193.7321                 6.6441

                     58                     59                     60
                      A                      A                      A
 Frequencies --   1662.5588              1681.6912              1708.9450
 Red. masses --      4.1499                 6.8742                 5.8904
 Frc consts  --      6.7584                11.4542                10.1357
 IR Inten    --    137.3490                12.1498               121.5652

                     61                     62                     63
                      A                      A                      A
 Frequencies --   3197.3708              3209.2802              3211.8992
 Red. masses --      1.0890                 1.0884                 1.0862
 Frc consts  --      6.5591                 6.6050                 6.6022
 IR Inten    --      1.7836                11.1065                 1.7637

                     64                     65                     66
                      A                      A                      A
 Frequencies --   3223.2009              3229.1539              3233.9856
 Red. masses --      1.0906                 1.0941                 1.0960
 Frc consts  --      6.6757                 6.7220                 6.7533
 IR Inten    --      6.1080                 9.9415                13.4669

                     67                     68                     69
                      A                      A                      A
 Frequencies --   3237.3843              3239.7683              3274.9490
 Red. masses --      1.0990                 1.0996                 1.0685
 Frc consts  --      6.7862                 6.8001                 6.7523
 IR Inten    --     18.9411                13.9780               892.8880

 - Thermochemistry -
 -------------------
 Temperature   298.150 Kelvin.  Pressure   1.00000 Atm.
 Atom     1 has atomic number  6 and mass  12.00000

 Molecular mass:   227.04049 amu.
 Principal axes and moments of inertia in atomic units:
                           1         2         3
     Eigenvalues --  1319.076806340.768717659.84550
           X           -0.69822   0.71588   0.00000
           Y            0.71588   0.69822  -0.00001
           Z            0.00001   0.00000   1.00000
 This molecule is an asymmetric top.
 Rotational symmetry number  1.
 Warning -- assumption of classical behavior for rotation
           may cause significant error
 Rotational temperatures (Kelvin)      0.06566     0.01366     0.01131
 Rotational constants (GHZ):           1.36819     0.28462     0.23561
 Zero-point vibrational energy     499575.9 (Joules/Mol)
                                  119.40150 (Kcal/Mol)
 Warning -- explicit consideration of  18 degrees of freedom as
           vibrations may cause significant error
 Vibrational temperatures:     72.27    84.82   172.96   220.22   286.80
          (Kelvin)            353.42   389.11   444.14   471.35   585.94
                              631.24   673.15   739.89   743.17   775.35
                              789.48   826.83   853.32   930.31   978.62
                             1025.50  1054.10  1087.25  1095.63  1117.46
                             1132.33  1199.51  1216.15  1273.27  1278.05
                             1290.57  1398.82  1405.22  1423.00  1454.94
                             1461.70  1514.34  1539.33  1579.41  1652.64
                             1658.34  1691.58  1705.22  1798.67  1849.64
                             1854.19  1917.51  1939.43  1974.84  1983.10
                             2107.67  2146.50  2161.90  2189.76  2230.75
                             2292.11  2370.60  2392.05  2419.58  2458.79
                             4600.30  4617.44  4621.21  4637.47  4646.03
                             4652.98  4657.87  4661.30  4711.92

 Zero-point correction=                           0.190278 (Hartree/Particle)
 Thermal correction to Energy=                    0.201960
 Thermal correction to Enthalpy=                  0.202904
 Thermal correction to Gibbs Free Energy=         0.151676
 Sum of electronic and zero-point Energies=          -1028.639526
 Sum of electronic and thermal Energies=             -1028.627844
 Sum of electronic and thermal Enthalpies=           -1028.626900
 Sum of electronic and thermal Free Energies=        -1028.678128

                     E (Thermal)             CV                S
                      KCal/Mol        Cal/Mol-Kelvin    Cal/Mol-Kelvin
 Total                  126.732             47.600            107.818
 Electronic               0.000              0.000              0.000
 Translational            0.889              2.981             42.162
 Rotational               0.889              2.981             32.527
 Vibrational            124.954             41.638             33.129
 Vibration     1          0.595              1.978              4.808
 Vibration     2          0.596              1.974              4.492
 Vibration     3          0.609              1.932              3.097
 Vibration     4          0.619              1.899              2.634
 Vibration     5          0.637              1.841              2.139
 Vibration     6          0.660              1.770              1.762
 Vibration     7          0.674              1.728              1.593
 Vibration     8          0.698              1.657              1.369
 Vibration     9          0.711              1.620              1.272
 Vibration    10          0.772              1.454              0.936
 Vibration    11          0.799              1.386              0.831
 Vibration    12          0.825              1.321              0.744
 Vibration    13          0.869              1.218              0.623
 Vibration    14          0.872              1.213              0.618
 Vibration    15          0.894              1.164              0.568
 Vibration    16          0.904              1.142              0.547
 Vibration    17          0.931              1.086              0.495
 Vibration    18          0.951              1.047              0.462

 Optimization completed.
    -- Stationary point found.
 Normal termination of Gaussian 16 at Tue Oct 27 23:20:17 2020.
