 Gaussian 16, Revision C.01,
 Gaussian 16:  ES64L-G16RevC.01  3-Jul-2019

 ----------------------------------------------------------------------
 #p opt=addgic freq wb97xd/cc-pvdz nosymm int=ultrafine scrf=(solvent=C
 arbonTetraChloride)
 ----------------------------------------------------------------------

 ------------------------------------------------
 NM 2D-scan of HBT TD-WB97XD pVDZ in CTC Relaxed.
 ------------------------------------------------
 Symbolic Z-matrix:
 Charge =  0 Multiplicity = 1

 SCF Done:  E(RwB97XD) =  -1028.80863034     A.U. after   15 cycles
 SCF Done:  E(RwB97XD) =  -1028.82482633     A.U. after   13 cycles
 SCF Done:  E(RwB97XD) =  -1028.82628562     A.U. after   12 cycles
 SCF Done:  E(RwB97XD) =  -1028.82667893     A.U. after   11 cycles
 SCF Done:  E(RwB97XD) =  -1028.82671081     A.U. after   10 cycles
 SCF Done:  E(RwB97XD) =  -1028.82671340     A.U. after    9 cycles
 Optimization completed.
    -- Stationary point found.
 Normal termination of Gaussian 16 at Tue Oct 27 21:44:12 2020.

 --------------------------------------------------------------------
 #P Geom=AllCheck Guess=TCheck SCRF=Check GenChk RwB97XD/CC-pVDZ Freq
 --------------------------------------------------------------------

 Structure from the checkpoint file:  "config_4_5.chk"
 ------------------------------------------------
 NM 2D-scan of HBT TD-WB97XD pVDZ in CTC Relaxed.
 ------------------------------------------------
 Charge =  0 Multiplicity = 1

                          Input orientation:
 ---------------------------------------------------------------------
 Center     Atomic      Atomic             Coordinates (Angstroms)
 Number     Number       Type             X           Y           Z
 ---------------------------------------------------------------------
      1          6           0        1.711135   -3.293030   -0.000031
      2          6           0        0.987425   -2.094833   -0.000027
      3          6           0        1.664894   -0.865098   -0.000010
      4          6           0        3.061826   -0.800552    0.000005
      5          6           0        3.775570   -1.985955    0.000001
      6          6           0        3.102147   -3.219385   -0.000018
      7          1           0        1.207700   -4.260191   -0.000045
      8          1           0        3.552900    0.173004    0.000019
      9          1           0        4.866200   -1.965419    0.000012
     10          1           0        3.680267   -4.144740   -0.000022
     11          7           0        0.852431    0.238628   -0.000011
     12         16           0       -0.750161   -1.790215   -0.000042
     13          6           0       -1.388345    1.064414   -0.000012
     14          6           0       -2.784338    0.885802   -0.000009
     15          6           0       -0.877159    2.398982    0.000013
     16          6           0       -3.654272    1.966475    0.000038
     17          1           0       -3.189270   -0.129436   -0.000034
     18          6           0       -1.772452    3.480401    0.000069
     19          6           0       -3.138339    3.270037    0.000083
     20          1           0       -4.731569    1.799669    0.000044
     21          1           0       -1.345859    4.484033    0.000092
     22          1           0       -3.815498    4.126299    0.000124
     23          6           0       -0.420159   -0.040043   -0.000030
     24          8           0        0.418796    2.702123   -0.000028
     25          1           0        0.913036    1.833474   -0.000085
 ---------------------------------------------------------------------

 SCF Done:  E(RwB97XD) =  -1028.82671340     A.U. after    1 cycles

 Alpha  occ. eigenvalues --  -89.09009 -19.27481 -14.46796 -10.39701 -10.37263
 Alpha  occ. eigenvalues --  -10.35058 -10.34814 -10.32536 -10.32506 -10.31842
 Alpha  occ. eigenvalues --  -10.31696 -10.31628 -10.31531 -10.31261 -10.30129
 Alpha  occ. eigenvalues --  -10.29860  -8.10950  -6.05817  -6.05457  -6.04992
 Alpha  occ. eigenvalues --   -1.16219  -1.09166  -0.97264  -0.95999  -0.91434
 Alpha  occ. eigenvalues --   -0.88582  -0.85284  -0.84401  -0.83021  -0.75526
 Alpha  occ. eigenvalues --   -0.71314  -0.70527  -0.69409  -0.68242  -0.63031
 Alpha  occ. eigenvalues --   -0.60543  -0.58777  -0.58290  -0.56268  -0.54464
 Alpha  occ. eigenvalues --   -0.54113  -0.53247  -0.52488  -0.51024  -0.50207
 Alpha  occ. eigenvalues --   -0.49475  -0.47678  -0.45926  -0.45321  -0.44970
 Alpha  occ. eigenvalues --   -0.43772  -0.42785  -0.42758  -0.39824  -0.36851
 Alpha  occ. eigenvalues --   -0.36184  -0.32275  -0.31622  -0.28910
 Alpha virt. eigenvalues --   -0.00494   0.04734   0.06911   0.07282   0.07471
 Alpha virt. eigenvalues --    0.11373   0.13361   0.15098   0.16028   0.17840
 Alpha virt. eigenvalues --    0.19005   0.20729   0.21741   0.22543   0.22702

 Mulliken charges:
               1
     1  C    0.003920
     2  C   -0.222591
     3  C    0.246103
     4  C   -0.012596
     5  C    0.007821
     6  C   -0.000771
     7  H    0.020686
     8  H    0.019287
     9  H    0.020236
    10  H    0.022024
    11  N   -0.339683
    12  S    0.146757
    13  C   -0.079765
    14  C   -0.016906
    15  C    0.076335
    16  C   -0.010373
    17  H    0.009123
    18  C    0.010177
    19  C    0.020554
    20  H    0.009584
    21  H    0.015069
    22  H    0.017746
    23  C    0.082586
    24  O   -0.209980
    25  H    0.164657
 Sum of Mulliken charges =  -0.00000

 Dipole moment (field-independent basis, Debye):
    X=              0.2231    Y=             -2.5298    Z=             -0.0000  Tot=              2.5396
 Quadrupole moment (field-independent basis, Debye-Ang):
   XX=            -82.7343   YY=            -90.0516   ZZ=           -104.1672
   XY=             -7.1165   XZ=             -0.0002   YZ=              0.0003

  Exact polarizability:     275.611     -66.674     256.892      -0.001       0.003      63.051
 Approx polarizability:     263.428     -23.114     243.402      -0.000       0.003      82.258

                      1                      2                      3
                      A                      A                      A
 Frequencies --     39.2547                57.8242               119.7933
 Red. masses --      5.5651                 5.8566                 5.6571
 Frc consts  --      0.0051                 0.0115                 0.0478
 IR Inten    --      0.0498                 1.2965                 1.2808

                      4                      5                      6
                      A                      A                      A
 Frequencies --    151.9147               199.1008               245.1450
 Red. masses --      4.9230                 5.7995                 5.7888
 Frc consts  --      0.0669                 0.1355                 0.2050
 IR Inten    --      0.0257                 0.5002                 0.0607

                      7                      8                      9
                      A                      A                      A
 Frequencies --    269.1312               319.2290               326.0089
 Red. masses --      7.5730                 6.4799                 5.1090
 Frc consts  --      0.3232                 0.3891                 0.3199
 IR Inten    --      0.8486                 7.1685                 0.3548

                     10                     11                     12
                      A                      A                      A
 Frequencies --    404.2121               438.4168               466.0392
 Red. masses --      9.4582                 3.1457                 3.6978
 Frc consts  --      0.9105                 0.3562                 0.4732
 IR Inten    --      0.2472                 2.0834                 8.3775

                     13                     14                     15
                      A                      A                      A
 Frequencies --    514.7857               520.2227               539.1229
 Red. masses --      8.5396                 4.9328                 3.4736
 Frc consts  --      1.3333                 0.7865                 0.5948
 IR Inten    --      0.6756                 9.3422                 3.7596

                     16                     17                     18
                      A                      A                      A
 Frequencies --    549.2205               573.8602               594.0778
 Red. masses --      8.3722                 3.6969                 7.6732
 Frc consts  --      1.4879                 0.7173                 1.5956
 IR Inten    --      2.7798                 0.0499                 5.3752

                     19                     20                     21
                      A                      A                      A
 Frequencies --    646.9421               682.1992               706.7886
 Red. masses --      6.1037                 6.3975                 7.2606
 Frc consts  --      1.5051                 1.7542                 2.1370
 IR Inten    --      0.0221                10.7161                31.7063

                     22                     23                     24
                      A                      A                      A
 Frequencies --    733.2891               754.7828               763.9578
 Red. masses --      9.4872                 2.0381                 3.0573
 Frc consts  --      3.0056                 0.6841                 1.0513
 IR Inten    --      7.8395                26.9700                 0.8432

                     25                     26                     27
                      A                      A                      A
 Frequencies --    776.0558               786.0392               844.4159
 Red. masses --      1.3320                 1.8752                 5.9595
 Frc consts  --      0.4727                 0.6826                 2.5036
 IR Inten    --     66.6298                32.8459                20.6698

                     28                     29                     30
                      A                      A                      A
 Frequencies --    881.6011               884.3638               891.0447
 Red. masses --      1.2628                 1.5144                 1.2592
 Frc consts  --      0.5783                 0.6978                 0.5891
 IR Inten    --     38.4830                 2.7496                40.6153

                     31                     32                     33
                      A                      A                      A
 Frequencies --    902.2390               970.9786               975.8042
 Red. masses --      6.5366                 1.3571                 1.3630
 Frc consts  --      3.1351                 0.7538                 0.7646
 IR Inten    --      0.7996                 1.0281                 1.9041

                     34                     35                     36
                      A                      A                      A
 Frequencies --    988.0286              1011.0315              1015.5445
 Red. masses --      7.5285                 1.3002                 1.3050
 Frc consts  --      4.3301                 0.7830                 0.7930
 IR Inten    --     64.3646                 0.3611                 0.0187

                     37                     38                     39
                      A                      A                      A
 Frequencies --   1051.8483              1067.0504              1094.3896
 Red. masses --      2.0281                 1.9685                 4.4385
 Frc consts  --      1.3220                 1.3206                 3.1321
 IR Inten    --      8.1372                11.5200                 5.6407

                     40                     41                     42
                      A                      A                      A
 Frequencies --   1146.0411              1151.4122              1173.4828
 Red. masses --      1.4991                 1.2809                 1.1161
 Frc consts  --      1.1600                 1.0006                 0.9055
 IR Inten    --     10.2370                 4.2441                46.7451

                     43                     44                     45
                      A                      A                      A
 Frequencies --   1184.2453              1249.5918              1284.7776
 Red. masses --      1.1834                 1.8562                 1.5622
 Frc consts  --      0.9778                 1.7077                 1.5193
 IR Inten    --      0.4200               125.6272                 6.7002

                     46                     47                     48
                      A                      A                      A
 Frequencies --   1288.5884              1330.2898              1353.6761
 Red. masses --      2.4510                 5.5993                 3.2187
 Frc consts  --      2.3978                 5.8382                 3.4750
 IR Inten    --    137.9396                10.6685                15.6037

                     49                     50                     51
                      A                      A                      A
 Frequencies --   1373.3532              1379.5392              1473.0071
 Red. masses --      8.1017                 3.1245                 1.9569
 Frc consts  --      9.0031                 3.5035                 2.5016
 IR Inten    --     16.0760                15.0944                27.5649

                     52                     53                     54
                      A                      A                      A
 Frequencies --   1492.7206              1497.4298              1521.4947
 Red. masses --      2.6792                 3.2154                 3.8561
 Frc consts  --      3.5173                 4.2479                 5.2594
 IR Inten    --     20.3021                25.2746               127.7308

                     55                     56                     57
                      A                      A                      A
 Frequencies --   1560.6226              1593.1437              1648.7216
 Red. masses --      2.2782                 6.6683                 6.6044
 Frc consts  --      3.2691                 9.9719                10.5774
 IR Inten    --    100.4109               200.4832                 8.7340

                     58                     59                     60
                      A                      A                      A
 Frequencies --   1664.9895              1681.9411              1708.2784
 Red. masses --      3.5370                 6.8127                 5.7481
 Frc consts  --      5.7770                11.3551                 9.8830
 IR Inten    --    159.8958                21.9609               128.7134

                     61                     62                     63
                      A                      A                      A
 Frequencies --   3101.2346              3191.9904              3206.8654
 Red. masses --      1.0702                 1.0896                 1.0883
 Frc consts  --      6.0642                 6.5412                 6.5942
 IR Inten    --   1109.4739                 6.7548                 2.9383

                     64                     65                     66
                      A                      A                      A
 Frequencies --   3212.2094              3222.8251              3227.7221
 Red. masses --      1.0861                 1.0904                 1.0939
 Frc consts  --      6.6028                 6.6729                 6.7147
 IR Inten    --      1.3303                 3.1493                11.5941

                     67                     68                     69
                      A                      A                      A
 Frequencies --   3232.7582              3235.4693              3239.1234
 Red. masses --      1.0960                 1.0989                 1.0999
 Frc consts  --      6.7485                 6.7778                 6.7992
 IR Inten    --      9.5404                18.0860                13.7798

 - Thermochemistry -
 -------------------
 Temperature   298.150 Kelvin.  Pressure   1.00000 Atm.
 Atom     1 has atomic number  6 and mass  12.00000

 Molecular mass:   227.04049 amu.
 Principal axes and moments of inertia in atomic units:
                           1         2         3
     Eigenvalues --  1329.381116322.019757651.40086
           X           -0.69912   0.71500  -0.00000
           Y            0.71500   0.69912  -0.00001
           Z            0.00001   0.00001   1.00000
 This molecule is an asymmetric top.
 Rotational symmetry number  1.
 Warning -- assumption of classical behavior for rotation
           may cause significant error
 Rotational temperatures (Kelvin)      0.06515     0.01370     0.01132
 Rotational constants (GHZ):           1.35758     0.28547     0.23587
 Zero-point vibrational energy     498742.9 (Joules/Mol)
                                  119.20241 (Kcal/Mol)
 Warning -- explicit consideration of  18 degrees of freedom as
           vibrations may cause significant error
 Vibrational temperatures:     56.48    83.20   172.36   218.57   286.46
          (Kelvin)            352.71   387.22   459.30   469.05   581.57
                              630.78   670.53   740.66   748.48   775.68
                              790.21   825.66   854.75   930.81   981.53
                             1016.91  1055.04  1085.96  1099.16  1116.57
                             1130.94  1214.93  1268.43  1272.40  1282.01
                             1298.12  1397.02  1403.96  1421.55  1454.65
                             1461.14  1513.38  1535.25  1574.58  1648.90
                             1656.63  1688.38  1703.86  1797.88  1848.51
                             1853.99  1913.99  1947.64  1975.95  1984.85
                             2119.33  2147.69  2154.47  2189.09  2245.39
                             2292.18  2372.14  2395.55  2419.94  2457.83
                             4461.98  4592.56  4613.96  4621.65  4636.93
                             4643.97  4651.22  4655.12  4660.38

 Zero-point correction=                           0.189961 (Hartree/Particle)
 Thermal correction to Energy=                    0.201654
 Thermal correction to Enthalpy=                  0.202598
 Thermal correction to Gibbs Free Energy=         0.151135
 Sum of electronic and zero-point Energies=          -1028.636752
 Sum of electronic and thermal Energies=             -1028.625060
 Sum of electronic and thermal Enthalpies=           -1028.624115
 Sum of electronic and thermal Free Energies=        -1028.675578

                     E (Thermal)             CV                S
                      KCal/Mol        Cal/Mol-Kelvin    Cal/Mol-Kelvin
 Total                  126.540             47.528            108.313
 Electronic               0.000              0.000              0.000
 Translational            0.889              2.981             42.162
 Rotational               0.889              2.981             32.531
 Vibrational            124.762             41.566             33.620
 Vibration     1          0.594              1.981              5.296
 Vibration     2          0.596              1.974              4.530
 Vibration     3          0.609              1.933              3.104
 Vibration     4          0.619              1.901              2.648
 Vibration     5          0.637              1.841              2.141
 Vibration     6          0.660              1.771              1.765
 Vibration     7          0.674              1.730              1.602
 Vibration     8          0.705              1.637              1.314
 Vibration     9          0.710              1.623              1.280
 Vibration    10          0.769              1.461              0.947
 Vibration    11          0.799              1.386              0.832
 Vibration    12          0.823              1.325              0.749
 Vibration    13          0.870              1.217              0.622
 Vibration    14          0.875              1.205              0.609
 Vibration    15          0.894              1.164              0.567
 Vibration    16          0.904              1.141              0.546
 Vibration    17          0.930              1.088              0.497
 Vibration    18          0.952              1.044              0.460

 Optimization completed.
    -- Stationary point found.
 Normal termination of Gaussian 16 at Tue Oct 27 21:52:46 2020.
