 Gaussian 16, Revision C.01,
 Gaussian 16:  ES64L-G16RevC.01  3-Jul-2019

 ----------------------------------------------------------------------
 #p opt=addgic freq wb97xd/cc-pvdz nosymm int=ultrafine scrf=(solvent=C
 arbonTetraChloride)
 ----------------------------------------------------------------------

 ------------------------------------------------
 NM 2D-scan of HBT TD-WB97XD pVDZ in CTC Relaxed.
 ------------------------------------------------
 Symbolic Z-matrix:
 Charge =  0 Multiplicity = 1

 SCF Done:  E(RwB97XD) =  -1028.65003240     A.U. after   16 cycles
 SCF Done:  E(RwB97XD) =  -1028.76262663     A.U. after   13 cycles
 SCF Done:  E(RwB97XD) =  -1028.76550292     A.U. after   14 cycles
 SCF Done:  E(RwB97XD) =  -1028.78529557     A.U. after   11 cycles
 SCF Done:  E(RwB97XD) =  -1028.78846525     A.U. after   13 cycles
 SCF Done:  E(RwB97XD) =  -1028.78957367     A.U. after   13 cycles
 SCF Done:  E(RwB97XD) =  -1028.78973937     A.U. after   11 cycles
 SCF Done:  E(RwB97XD) =  -1028.78975672     A.U. after   10 cycles
 SCF Done:  E(RwB97XD) =  -1028.78975901     A.U. after    9 cycles
 Optimization completed.
    -- Stationary point found.
 Normal termination of Gaussian 16 at Tue Oct 27 20:54:15 2020.

 --------------------------------------------------------------------
 #P Geom=AllCheck Guess=TCheck SCRF=Check GenChk RwB97XD/CC-pVDZ Freq
 --------------------------------------------------------------------

 Structure from the checkpoint file:  "config_12_2.chk"
 ------------------------------------------------
 NM 2D-scan of HBT TD-WB97XD pVDZ in CTC Relaxed.
 ------------------------------------------------
 Charge =  0 Multiplicity = 1

                          Input orientation:
 ---------------------------------------------------------------------
 Center     Atomic      Atomic             Coordinates (Angstroms)
 Number     Number       Type             X           Y           Z
 ---------------------------------------------------------------------
      1          6           0        1.763433   -3.275661    0.000173
      2          6           0        1.023157   -2.095796    0.000086
      3          6           0        1.685383   -0.888924   -0.000099
      4          6           0        3.072660   -0.765078   -0.000168
      5          6           0        3.805922   -1.945087   -0.000064
      6          6           0        3.155884   -3.183558    0.000095
      7          1           0        1.274147   -4.249179    0.000293
      8          1           0        3.551661    0.214670   -0.000298
      9          1           0        4.895608   -1.902195   -0.000112
     10          1           0        3.746325   -4.100205    0.000160
     11          7           0        0.784910    0.145325   -0.000219
     12         16           0       -0.744950   -1.794805    0.000144
     13          6           0       -1.442041    1.059419   -0.000094
     14          6           0       -2.851606    0.934035   -0.000199
     15          6           0       -0.810300    2.393705    0.000092
     16          6           0       -3.688327    2.032939   -0.000096
     17          1           0       -3.289371   -0.068813   -0.000387
     18          6           0       -1.761226    3.506280    0.000297
     19          6           0       -3.121060    3.331941    0.000189
     20          1           0       -4.770491    1.899812   -0.000200
     21          1           0       -1.322382    4.506006    0.000523
     22          1           0       -3.781065    4.203379    0.000323
     23          6           0       -0.539837   -0.052513   -0.000094
     24          8           0        0.419491    2.552568    0.000168
     25          1           0        1.261219    1.007644   -0.000444
 ---------------------------------------------------------------------

 SCF Done:  E(RwB97XD) =  -1028.78975901     A.U. after    1 cycles

 Alpha  occ. eigenvalues --  -89.10282 -19.21259 -14.51251 -10.41973 -10.36648
 Alpha  occ. eigenvalues --  -10.36164 -10.35989 -10.33503 -10.33044 -10.32705
 Alpha  occ. eigenvalues --  -10.32386 -10.31115 -10.30914 -10.30528 -10.29006
 Alpha  occ. eigenvalues --  -10.28449  -8.12228  -6.07131  -6.06728  -6.06227
 Alpha  occ. eigenvalues --   -1.13639  -1.10362  -0.98704  -0.94971  -0.93184
 Alpha  occ. eigenvalues --   -0.89347  -0.86435  -0.84155  -0.81507  -0.75766
 Alpha  occ. eigenvalues --   -0.74155  -0.71417  -0.69597  -0.67715  -0.64370
 Alpha  occ. eigenvalues --   -0.60870  -0.59842  -0.56653  -0.56091  -0.55983
 Alpha  occ. eigenvalues --   -0.55022  -0.53531  -0.52784  -0.50582  -0.49436
 Alpha  occ. eigenvalues --   -0.49035  -0.48116  -0.46648  -0.45661  -0.44777
 Alpha  occ. eigenvalues --   -0.44489  -0.42846  -0.41662  -0.40425  -0.36922
 Alpha  occ. eigenvalues --   -0.33661  -0.31706  -0.31315  -0.26129
 Alpha virt. eigenvalues --   -0.01370   0.03666   0.06184   0.06698   0.09552
 Alpha virt. eigenvalues --    0.11103   0.11742   0.14576   0.15891   0.17059
 Alpha virt. eigenvalues --    0.18745   0.19839   0.21151   0.21646   0.22885

 Mulliken charges:
               1
     1  C    0.006588
     2  C   -0.255038
     3  C    0.234631
     4  C   -0.013418
     5  C    0.014027
     6  C    0.001930
     7  H    0.026169
     8  H    0.035175
     9  H    0.028238
    10  H    0.026470
    11  N   -0.069075
    12  S    0.175479
    13  C   -0.142510
    14  C   -0.000570
    15  C    0.117468
    16  C   -0.036925
    17  H   -0.000319
    18  C   -0.035963
    19  C    0.029279
    20  H    0.002834
    21  H    0.000313
    22  H    0.012952
    23  C    0.101272
    24  O   -0.372374
    25  H    0.113370
 Sum of Mulliken charges =  -0.00000

 Dipole moment (field-independent basis, Debye):
    X=              2.1480    Y=             -5.0884    Z=             -0.0007  Tot=              5.5232
 Quadrupole moment (field-independent basis, Debye-Ang):
   XX=            -81.8627   YY=            -94.3899   ZZ=           -104.0790
   XY=             -6.8234   XZ=             -0.0011   YZ=             -0.0014

  Exact polarizability:     291.560     -90.410     289.816      -0.002       0.003      63.058
 Approx polarizability:     269.696     -36.471     256.697      -0.001       0.001      82.071

 ******    1 imaginary frequencies (negative Signs) ******

                      1                      2                      3
                      A                      A                      A
 Frequencies --    -62.9057                56.2759                87.1379
 Red. masses --      4.7753                 5.8824                 4.8226
 Frc consts  --      0.0111                 0.0110                 0.0216
 IR Inten    --      2.4919                 0.7493                 1.0971

                      4                      5                      6
                      A                      A                      A
 Frequencies --    105.4290               185.4846               227.5443
 Red. masses --      5.6582                 5.1393                 5.6416
 Frc consts  --      0.0371                 0.1042                 0.1721
 IR Inten    --      0.5463                 0.6600                 3.9558

                      7                      8                      9
                      A                      A                      A
 Frequencies --    264.2517               294.3316               327.6995
 Red. masses --      7.3791                 3.8553                 6.5049
 Frc consts  --      0.3036                 0.1968                 0.4116
 IR Inten    --      3.3868                 9.7599                 5.1444

                     10                     11                     12
                      A                      A                      A
 Frequencies --    378.6153               405.5638               439.8421
 Red. masses --      9.0361                 1.9496                 3.3243
 Frc consts  --      0.7632                 0.1889                 0.3789
 IR Inten    --      7.2828                32.7056                16.3919

                     13                     14                     15
                      A                      A                      A
 Frequencies --    450.5740               496.8874               527.5020
 Red. masses --      1.7993                 7.6775                 2.6972
 Frc consts  --      0.2152                 1.1168                 0.4422
 IR Inten    --     16.0616                 7.7683                 1.3784

                     16                     17                     18
                      A                      A                      A
 Frequencies --    536.4559               551.0457               561.6066
 Red. masses --      8.9598                 6.6502                 3.7057
 Frc consts  --      1.5192                 1.1898                 0.6886
 IR Inten    --      9.3907                 1.3560                 0.1815

                     19                     20                     21
                      A                      A                      A
 Frequencies --    583.5318               635.2912               660.9993
 Red. masses --      7.3432                 6.7445                 5.8156
 Frc consts  --      1.4732                 1.6038                 1.4971
 IR Inten    --     40.3202                 2.1537                 8.9940

                     22                     23                     24
                      A                      A                      A
 Frequencies --    689.2461               738.4784               748.6473
 Red. masses --      6.1686                 7.7164                 2.5567
 Frc consts  --      1.7266                 2.4794                 0.8443
 IR Inten    --     35.0858                39.3825                 9.8757

                     25                     26                     27
                      A                      A                      A
 Frequencies --    759.5801               774.6843               777.4811
 Red. masses --      1.4276                 1.5989                 2.4077
 Frc consts  --      0.4853                 0.5653                 0.8575
 IR Inten    --     48.5084                39.2864                35.5723

                     28                     29                     30
                      A                      A                      A
 Frequencies --    823.5555               875.2786               876.6031
 Red. masses --      6.2485                 1.9824                 1.3867
 Frc consts  --      2.4970                 0.8948                 0.6278
 IR Inten    --     27.3597                15.0358                 1.0134

                     31                     32                     33
                      A                      A                      A
 Frequencies --    908.8713               961.1078               968.2662
 Red. masses --      5.8596                 3.7615                 1.3252
 Frc consts  --      2.8518                 2.0472                 0.7320
 IR Inten    --      6.4988                38.2878                 0.2514

                     34                     35                     36
                      A                      A                      A
 Frequencies --    969.8951              1013.9852              1015.4078
 Red. masses --      1.3580                 1.3034                 1.3026
 Frc consts  --      0.7527                 0.7896                 0.7913
 IR Inten    --      1.2349                 0.0016                 0.3150

                     37                     38                     39
                      A                      A                      A
 Frequencies --   1047.8089              1056.7460              1076.0871
 Red. masses --      2.1179                 2.1870                 2.4142
 Frc consts  --      1.3700                 1.4389                 1.6471
 IR Inten    --      6.9187                12.0985                71.3326

                     40                     41                     42
                      A                      A                      A
 Frequencies --   1089.8770              1153.0376              1153.6570
 Red. masses --      2.9430                 1.2990                 1.2903
 Frc consts  --      2.0597                 1.0176                 1.0118
 IR Inten    --     40.0382                36.0146                10.2648

                     43                     44                     45
                      A                      A                      A
 Frequencies --   1180.2139              1187.2138              1228.0319
 Red. masses --      1.1539                 1.1600                 2.2301
 Frc consts  --      0.9470                 0.9633                 1.9815
 IR Inten    --     42.3185                 4.7867                61.4217

                     46                     47                     48
                      A                      A                      A
 Frequencies --   1287.1639              1299.5459              1359.3627
 Red. masses --      1.9400                 1.7378                 5.6622
 Frc consts  --      1.8938                 1.7291                 6.1646
 IR Inten    --    112.7231               149.0123               107.1176

                     49                     50                     51
                      A                      A                      A
 Frequencies --   1371.5750              1396.8392              1415.2922
 Red. masses --      2.5788                 6.4257                 2.2613
 Frc consts  --      2.8582                 7.3869                 2.6687
 IR Inten    --     51.5508                84.6395                16.4434

                     52                     53                     54
                      A                      A                      A
 Frequencies --   1482.0999              1503.3643              1532.9733
 Red. masses --      2.9933                 3.0496                 2.9633
 Frc consts  --      3.8740                 4.0609                 4.1029
 IR Inten    --    620.6755               694.6724               445.1282

                     55                     56                     57
                      A                      A                      A
 Frequencies --   1549.9185              1588.2266              1650.6298
 Red. masses --      4.5369                 6.7553                 6.2251
 Frc consts  --      6.4213                10.0397                 9.9930
 IR Inten    --    423.8743               113.5479                46.8413

                     58                     59                     60
                      A                      A                      A
 Frequencies --   1678.6822              1711.6722              1733.8368
 Red. masses --      7.1694                 8.2437                 8.4969
 Frc consts  --     11.9034                14.2302                15.0496
 IR Inten    --     62.0310                85.4535               358.1859

                     61                     62                     63
                      A                      A                      A
 Frequencies --   3175.1857              3188.9824              3214.3267
 Red. masses --      1.0894                 1.0877                 1.0944
 Frc consts  --      6.4713                 6.5171                 6.6620
 IR Inten    --      7.4239                14.1462                26.5650

                     64                     65                     66
                      A                      A                      A
 Frequencies --   3218.4940              3227.7083              3228.0831
 Red. masses --      1.0866                 1.0910                 1.0968
 Frc consts  --      6.6318                 6.6970                 6.7340
 IR Inten    --      1.9450                 0.3977                21.6586

                     67                     68                     69
                      A                      A                      A
 Frequencies --   3235.9462              3244.5711              3907.2589
 Red. masses --      1.0963                 1.0995                 1.0785
 Frc consts  --      6.7638                 6.8195                 9.7013
 IR Inten    --      4.0744                13.3750               133.4414

 - Thermochemistry -
 -------------------
 Temperature   298.150 Kelvin.  Pressure   1.00000 Atm.
 Atom     1 has atomic number  6 and mass  12.00000

 Molecular mass:   227.04049 amu.
 Principal axes and moments of inertia in atomic units:
                           1         2         3
     Eigenvalues --  1306.492706380.753427687.24608
           X           -0.70660   0.70761   0.00001
           Y            0.70761   0.70660  -0.00000
           Z            0.00001  -0.00000   1.00000
 This molecule is an asymmetric top.
 Rotational symmetry number  1.
 Warning -- assumption of classical behavior for rotation
           may cause significant error
 Rotational temperatures (Kelvin)      0.06629     0.01357     0.01127
 Rotational constants (GHZ):           1.38136     0.28284     0.23477
    1 imaginary frequencies ignored.
 Zero-point vibrational energy     496758.7 (Joules/Mol)
                                  118.72818 (Kcal/Mol)
 Warning -- explicit consideration of  18 degrees of freedom as
           vibrations may cause significant error
 Vibrational temperatures:     80.97   125.37   151.69   266.87   327.39
          (Kelvin)            380.20   423.48   471.49   544.74   583.52
                              632.83   648.28   714.91   758.96   771.84
                              792.83   808.03   839.57   914.04   951.03
                              991.67  1062.51  1077.14  1092.87  1114.60
                             1118.62  1184.91  1259.33  1261.24  1307.66
                             1382.82  1393.12  1395.46  1458.90  1460.95
                             1507.56  1520.42  1548.25  1568.09  1658.96
                             1659.86  1698.06  1708.14  1766.86  1851.94
                             1869.76  1955.82  1973.39  2009.74  2036.29
                             2132.41  2163.01  2205.61  2229.99  2285.10
                             2374.89  2415.25  2462.71  2494.60  4568.38
                             4588.23  4624.70  4630.69  4643.95  4644.49
                             4655.80  4668.21  5621.67

 Zero-point correction=                           0.189205 (Hartree/Particle)
 Thermal correction to Energy=                    0.200638
 Thermal correction to Enthalpy=                  0.201582
 Thermal correction to Gibbs Free Energy=         0.151227
 Sum of electronic and zero-point Energies=          -1028.600554
 Sum of electronic and thermal Energies=             -1028.589121
 Sum of electronic and thermal Enthalpies=           -1028.588177
 Sum of electronic and thermal Free Energies=        -1028.638532

                     E (Thermal)             CV                S
                      KCal/Mol        Cal/Mol-Kelvin    Cal/Mol-Kelvin
 Total                  125.902             47.209            105.982
 Electronic               0.000              0.000              0.000
 Translational            0.889              2.981             42.162
 Rotational               0.889              2.981             32.527
 Vibrational            124.125             41.248             31.292
 Vibration     1          0.596              1.975              4.584
 Vibration     2          0.601              1.958              3.723
 Vibration     3          0.605              1.945              3.351
 Vibration     4          0.632              1.860              2.272
 Vibration     5          0.651              1.799              1.898
 Vibration     6          0.671              1.738              1.634
 Vibration     7          0.689              1.684              1.449
 Vibration     8          0.711              1.620              1.271
 Vibration     9          0.749              1.516              1.045
 Vibration    10          0.771              1.458              0.942
 Vibration    11          0.800              1.383              0.827
 Vibration    12          0.809              1.360              0.794
 Vibration    13          0.852              1.257              0.666
 Vibration    14          0.882              1.189              0.593
 Vibration    15          0.891              1.169              0.573
 Vibration    16          0.906              1.137              0.542
 Vibration    17          0.917              1.114              0.521
 Vibration    18          0.940              1.067              0.479

 Optimization completed.
    -- Stationary point found.
 Normal termination of Gaussian 16 at Tue Oct 27 21:00:24 2020.
