 Gaussian 16, Revision C.01,
 Gaussian 16:  ES64L-G16RevC.01  3-Jul-2019

 ----------------------------------------------------------------------
 #p opt=addgic freq wb97xd/cc-pvdz nosymm int=ultrafine scrf=(solvent=C
 arbonTetraChloride)
 ----------------------------------------------------------------------

 ------------------------------------------------
 NM 2D-scan of HBT TD-WB97XD pVDZ in CTC Relaxed.
 ------------------------------------------------
 Symbolic Z-matrix:
 Charge =  0 Multiplicity = 1

 SCF Done:  E(RwB97XD) =  -1028.81067826     A.U. after   15 cycles
 SCF Done:  E(RwB97XD) =  -1028.81725635     A.U. after   13 cycles
 SCF Done:  E(RwB97XD) =  -1028.81881325     A.U. after   13 cycles
 SCF Done:  E(RwB97XD) =  -1028.81914716     A.U. after   12 cycles
 SCF Done:  E(RwB97XD) =  -1028.81923870     A.U. after   11 cycles
 SCF Done:  E(RwB97XD) =  -1028.81925382     A.U. after   10 cycles
 Optimization completed.
    -- Stationary point found.
 Normal termination of Gaussian 16 at Wed Oct 28 00:11:17 2020.

 --------------------------------------------------------------------
 #P Geom=AllCheck Guess=TCheck SCRF=Check GenChk RwB97XD/CC-pVDZ Freq
 --------------------------------------------------------------------

 Structure from the checkpoint file:  "config_6_13.chk"
 ------------------------------------------------
 NM 2D-scan of HBT TD-WB97XD pVDZ in CTC Relaxed.
 ------------------------------------------------
 Charge =  0 Multiplicity = 1

                          Input orientation:
 ---------------------------------------------------------------------
 Center     Atomic      Atomic             Coordinates (Angstroms)
 Number     Number       Type             X           Y           Z
 ---------------------------------------------------------------------
      1          6           0        1.587317   -3.246588   -0.000037
      2          6           0        1.008243   -1.982156   -0.000026
      3          6           0        1.760765   -0.799993   -0.000011
      4          6           0        3.159608   -0.888591   -0.000010
      5          6           0        3.744377   -2.154186   -0.000020
      6          6           0        2.971776   -3.324431   -0.000033
      7          1           0        0.967587   -4.143537   -0.000048
      8          1           0        3.771984    0.013600   -0.000000
      9          1           0        4.832440   -2.234011   -0.000017
     10          1           0        3.459881   -4.299767   -0.000040
     11          7           0        0.946867    0.330762    0.000000
     12         16           0       -0.701905   -1.627894   -0.000027
     13          6           0       -1.348609    1.091506    0.000023
     14          6           0       -2.714020    0.786764    0.000031
     15          6           0       -0.875492    2.431177    0.000031
     16          6           0       -3.662428    1.795741    0.000039
     17          1           0       -3.032663   -0.258729    0.000031
     18          6           0       -1.867673    3.448142    0.000029
     19          6           0       -3.220673    3.126792    0.000033
     20          1           0       -4.726386    1.559201    0.000046
     21          1           0       -1.543271    4.489846    0.000027
     22          1           0       -3.956204    3.934349    0.000032
     23          6           0       -0.339855    0.057070    0.000002
     24          8           0        0.412462    2.661736    0.000030
     25          1           0        0.923060    1.675902    0.000018
 ---------------------------------------------------------------------

 SCF Done:  E(RwB97XD) =  -1028.81925382     A.U. after    1 cycles

 Alpha  occ. eigenvalues --  -89.09016 -19.25533 -14.48014 -10.39758 -10.36870
 Alpha  occ. eigenvalues --  -10.35837 -10.35006 -10.32530 -10.32275 -10.31907
 Alpha  occ. eigenvalues --  -10.31830 -10.31637 -10.31351 -10.31241 -10.29864
 Alpha  occ. eigenvalues --  -10.29800  -8.11159  -6.06004  -6.05639  -6.05207
 Alpha  occ. eigenvalues --   -1.14767  -1.09507  -0.97638  -0.96018  -0.92398
 Alpha  occ. eigenvalues --   -0.88773  -0.85858  -0.84081  -0.83018  -0.75637
 Alpha  occ. eigenvalues --   -0.71586  -0.70842  -0.69202  -0.68105  -0.63481
 Alpha  occ. eigenvalues --   -0.60877  -0.59273  -0.57970  -0.56153  -0.54771
 Alpha  occ. eigenvalues --   -0.54567  -0.53532  -0.52702  -0.50993  -0.49902
 Alpha  occ. eigenvalues --   -0.49590  -0.46996  -0.46317  -0.45289  -0.45184
 Alpha  occ. eigenvalues --   -0.44199  -0.43003  -0.42437  -0.40221  -0.36330
 Alpha  occ. eigenvalues --   -0.35621  -0.32553  -0.31585  -0.28465
 Alpha virt. eigenvalues --   -0.00652   0.04516   0.06633   0.07675   0.07707
 Alpha virt. eigenvalues --    0.11161   0.14697   0.15053   0.16917   0.17896
 Alpha virt. eigenvalues --    0.19061   0.20880   0.21728   0.22340   0.22741

 Mulliken charges:
               1
     1  C    0.018271
     2  C   -0.224949
     3  C    0.253557
     4  C   -0.015424
     5  C    0.004847
     6  C    0.004354
     7  H    0.020106
     8  H    0.024491
     9  H    0.022930
    10  H    0.023131
    11  N   -0.326129
    12  S    0.165763
    13  C   -0.071771
    14  C   -0.025840
    15  C    0.100104
    16  C   -0.014487
    17  H    0.014222
    18  C   -0.012927
    19  C    0.022039
    20  H    0.007067
    21  H    0.011684
    22  H    0.017262
    23  C    0.079970
    24  O   -0.292338
    25  H    0.194068
 Sum of Mulliken charges =  -0.00000

 Dipole moment (field-independent basis, Debye):
    X=              0.3943    Y=             -3.6135    Z=             -0.0000  Tot=              3.6350
 Quadrupole moment (field-independent basis, Debye-Ang):
   XX=            -82.6307   YY=            -91.4436   ZZ=           -103.9462
   XY=             -7.2244   XZ=             -0.0001   YZ=              0.0001

  Exact polarizability:     276.276     -70.997     258.673      -0.001       0.002      62.831
 Approx polarizability:     262.950     -25.000     244.078      -0.000       0.001      82.132

                      1                      2                      3
                      A                      A                      A
 Frequencies --      9.5582                66.0967                90.0266
 Red. masses --      5.2265                 6.1565                 4.7284
 Frc consts  --      0.0003                 0.0158                 0.0226
 IR Inten    --      0.0467                 1.3128                65.3604

                      4                      5                      6
                      A                      A                      A
 Frequencies --    152.1229               197.9911               243.0260
 Red. masses --      5.0972                 6.1766                 5.6721
 Frc consts  --      0.0695                 0.1427                 0.1974
 IR Inten    --      0.4606                 0.3891                 0.1564

                      7                      8                      9
                      A                      A                      A
 Frequencies --    253.4094               295.2632               327.7809
 Red. masses --      4.8038                 5.2083                 5.1847
 Frc consts  --      0.1818                 0.2675                 0.3282
 IR Inten    --    106.8909                81.6403                 0.1871

                     10                     11                     12
                      A                      A                      A
 Frequencies --    422.6810               434.7175               460.2797
 Red. masses --      9.3569                 3.1015                 3.5710
 Frc consts  --      0.9849                 0.3453                 0.4457
 IR Inten    --      6.7060                 1.6151                 8.5955

                     13                     14                     15
                      A                      A                      A
 Frequencies --    468.5299               519.4545               538.0443
 Red. masses --      4.4660                 8.4162                 3.3940
 Frc consts  --      0.5776                 1.3380                 0.5789
 IR Inten    --    127.3747                 8.6210                 3.5293

                     16                     17                     18
                      A                      A                      A
 Frequencies --    565.0255               574.8030               586.2865
 Red. masses --      7.2607                 3.6970                 7.8111
 Frc consts  --      1.3657                 0.7197                 1.5819
 IR Inten    --     13.7516                 0.0849                 1.3834

                     19                     20                     21
                      A                      A                      A
 Frequencies --    648.6849               688.2397               727.9827
 Red. masses --      6.4405                 6.2822                 6.4729
 Frc consts  --      1.5968                 1.7532                 2.0211
 IR Inten    --      0.0066                17.9885                41.8261

                     22                     23                     24
                      A                      A                      A
 Frequencies --    755.3733               768.7719               774.8268
 Red. masses --      2.1086                 2.0559                 1.7872
 Frc consts  --      0.7089                 0.7159                 0.6322
 IR Inten    --     24.1465                17.9863                42.0859

                     25                     26                     27
                      A                      A                      A
 Frequencies --    776.7445               782.9253               855.6731
 Red. masses --      9.2577                 1.8463                 5.8834
 Frc consts  --      3.2909                 0.6668                 2.5380
 IR Inten    --     27.9411                44.5169                14.7725

                     28                     29                     30
                      A                      A                      A
 Frequencies --    880.1442               885.8332               894.8137
 Red. masses --      1.5993                 1.3984                 5.0400
 Frc consts  --      0.7299                 0.6465                 2.3776
 IR Inten    --      6.0188                 0.4369               155.1336

                     31                     32                     33
                      A                      A                      A
 Frequencies --    965.5289               974.5727               997.4472
 Red. masses --      1.3582                 1.3641                 4.5469
 Frc consts  --      0.7460                 0.7634                 2.6653
 IR Inten    --      1.0405                 1.3896               345.9762

                     34                     35                     36
                      A                      A                      A
 Frequencies --   1010.5263              1015.7267              1044.9256
 Red. masses --      1.3034                 1.3057                 3.3161
 Frc consts  --      0.7842                 0.7937                 2.1333
 IR Inten    --      0.2684                 0.0010               207.7635

                     37                     38                     39
                      A                      A                      A
 Frequencies --   1054.7810              1067.3978              1106.6024
 Red. masses --      1.9618                 2.0049                 3.2042
 Frc consts  --      1.2860                 1.3458                 2.3118
 IR Inten    --     14.8563                65.9064                14.2124

                     40                     41                     42
                      A                      A                      A
 Frequencies --   1142.1885              1155.8280              1159.8110
 Red. masses --      1.0565                 1.4705                 1.3762
 Frc consts  --      0.8120                 1.1575                 1.0907
 IR Inten    --     70.3131                 5.2649                 1.2062

                     43                     44                     45
                      A                      A                      A
 Frequencies --   1178.9271              1184.8367              1261.0249
 Red. masses --      1.0932                 1.2075                 1.9937
 Frc consts  --      0.8952                 0.9988                 1.8679
 IR Inten    --    126.0139                22.4312                55.1924

                     46                     47                     48
                      A                      A                      A
 Frequencies --   1289.5498              1314.8040              1348.1918
 Red. masses --      1.5358                 3.8456                 2.7946
 Frc consts  --      1.5048                 3.9168                 2.9928
 IR Inten    --      1.2608               275.0833                23.6287

                     49                     50                     51
                      A                      A                      A
 Frequencies --   1382.2237              1383.3392              1411.4846
 Red. masses --      3.7629                 5.3237                 3.4290
 Frc consts  --      4.2358                 6.0024                 4.0251
 IR Inten    --     19.0213                19.7692                68.1811

                     52                     53                     54
                      A                      A                      A
 Frequencies --   1487.0873              1497.5234              1512.4310
 Red. masses --      2.7569                 2.7842                 3.2693
 Frc consts  --      3.5921                 3.6787                 4.4061
 IR Inten    --     36.5518                17.2745                46.1010

                     55                     56                     57
                      A                      A                      A
 Frequencies --   1576.1537              1603.7969              1634.3540
 Red. masses --      5.9658                 3.8817                 5.4923
 Frc consts  --      8.7320                 5.8826                 8.6437
 IR Inten    --    292.2221               581.2617               699.3647

                     58                     59                     60
                      A                      A                      A
 Frequencies --   1660.0548              1686.4058              1713.3005
 Red. masses --      6.8802                 6.4563                 5.2831
 Frc consts  --     11.1711                10.8183                 9.1370
 IR Inten    --     45.6180               118.5066               252.2584

                     61                     62                     63
                      A                      A                      A
 Frequencies --   1868.0938              3197.4066              3205.0479
 Red. masses --      1.1012                 1.0885                 1.0890
 Frc consts  --      2.2642                 6.5568                 6.5908
 IR Inten    --    100.1649                 3.3435                 8.6175

                     64                     65                     66
                      A                      A                      A
 Frequencies --   3212.7751              3222.7649              3226.7501
 Red. masses --      1.0862                 1.0907                 1.0936
 Frc consts  --      6.6055                 6.6746                 6.7090
 IR Inten    --      1.5549                 2.8221                16.0960

                     67                     68                     69
                      A                      A                      A
 Frequencies --   3232.6690              3236.3988              3239.1439
 Red. masses --      1.0959                 1.0984                 1.0998
 Frc consts  --      6.7478                 6.7788                 6.7989
 IR Inten    --      7.6182                17.7762                13.0788

 - Thermochemistry -
 -------------------
 Temperature   298.150 Kelvin.  Pressure   1.00000 Atm.
 Atom     1 has atomic number  6 and mass  12.00000

 Molecular mass:   227.04049 amu.
 Principal axes and moments of inertia in atomic units:
                           1         2         3
     Eigenvalues --  1272.649086250.739187523.38826
           X            0.70766   0.70655   0.00000
           Y           -0.70655   0.70766  -0.00001
           Z           -0.00001   0.00001   1.00000
 This molecule is an asymmetric top.
 Rotational symmetry number  1.
 Warning -- assumption of classical behavior for rotation
           may cause significant error
 Rotational temperatures (Kelvin)      0.06806     0.01386     0.01151
 Rotational constants (GHZ):           1.41810     0.28872     0.23988
 Zero-point vibrational energy     491108.8 (Joules/Mol)
                                  117.37783 (Kcal/Mol)
 Warning -- explicit consideration of  18 degrees of freedom as
           vibrations may cause significant error
 Vibrational temperatures:     13.75    95.10   129.53   218.87   284.87
          (Kelvin)            349.66   364.60   424.82   471.60   608.14
                              625.46   662.24   674.11   747.38   774.13
                              812.95   827.01   843.54   933.31   990.22
                             1047.40  1086.81  1106.09  1114.80  1117.56
                             1126.45  1231.12  1266.33  1274.52  1287.44
                             1389.18  1402.19  1435.10  1453.92  1461.40
                             1503.41  1517.59  1535.75  1592.15  1643.35
                             1662.98  1668.71  1696.21  1704.72  1814.33
                             1855.37  1891.71  1939.75  1988.71  1990.32
                             2030.81  2139.59  2154.60  2176.05  2267.73
                             2307.51  2351.47  2388.45  2426.36  2465.06
                             2687.77  4600.35  4611.35  4622.47  4636.84
                             4642.57  4651.09  4656.46  4660.41

 Zero-point correction=                           0.187053 (Hartree/Particle)
 Thermal correction to Energy=                    0.198880
 Thermal correction to Enthalpy=                  0.199824
 Thermal correction to Gibbs Free Energy=         0.146834
 Sum of electronic and zero-point Energies=          -1028.632200
 Sum of electronic and thermal Energies=             -1028.620374
 Sum of electronic and thermal Enthalpies=           -1028.619429
 Sum of electronic and thermal Free Energies=        -1028.672420

                     E (Thermal)             CV                S
                      KCal/Mol        Cal/Mol-Kelvin    Cal/Mol-Kelvin
 Total                  124.799             47.465            111.527
 Electronic               0.000              0.000              0.000
 Translational            0.889              2.981             42.162
 Rotational               0.889              2.981             32.459
 Vibrational            123.022             41.504             36.906
 Vibration     1          0.593              1.987              8.101
 Vibration     2          0.597              1.970              4.266
 Vibration     3          0.602              1.956              3.659
 Vibration     4          0.619              1.900              2.646
 Vibration     5          0.637              1.843              2.152
 Vibration     6          0.659              1.774              1.781
 Vibration     7          0.665              1.757              1.707
 Vibration     8          0.689              1.683              1.444
 Vibration     9          0.711              1.620              1.271
 Vibration    10          0.785              1.421              0.883
 Vibration    11          0.795              1.395              0.843
 Vibration    12          0.818              1.338              0.765
 Vibration    13          0.826              1.320              0.742
 Vibration    14          0.874              1.207              0.611
 Vibration    15          0.893              1.166              0.570
 Vibration    16          0.921              1.107              0.514
 Vibration    17          0.931              1.086              0.495
 Vibration    18          0.943              1.061              0.474

                           ! Non-Optimized Parameters !
 Normal termination of Gaussian 16 at Wed Oct 28 00:17:49 2020.
