 Gaussian 16, Revision C.01,
 Gaussian 16:  ES64L-G16RevC.01  3-Jul-2019

 ----------------------------------------------------------------------
 #p opt=addgic freq wb97xd/cc-pvdz nosymm int=ultrafine scrf=(solvent=C
 arbonTetraChloride)
 ----------------------------------------------------------------------

 ------------------------------------------------
 NM 2D-scan of HBT TD-WB97XD pVDZ in CTC Relaxed.
 ------------------------------------------------
 Symbolic Z-matrix:
 Charge =  0 Multiplicity = 1

 SCF Done:  E(RwB97XD) =  -1028.81503185     A.U. after   15 cycles
 SCF Done:  E(RwB97XD) =  -1028.82355915     A.U. after   13 cycles
 SCF Done:  E(RwB97XD) =  -1028.82433048     A.U. after   12 cycles
 SCF Done:  E(RwB97XD) =  -1028.82438499     A.U. after   11 cycles
 SCF Done:  E(RwB97XD) =  -1028.82439089     A.U. after    9 cycles
 SCF Done:  E(RwB97XD) =  -1028.82439413     A.U. after    9 cycles
 SCF Done:  E(RwB97XD) =  -1028.82439390     A.U. after    8 cycles
 SCF Done:  E(RwB97XD) =  -1028.82439448     A.U. after    7 cycles
 Optimization completed.
    -- Stationary point found.
 Normal termination of Gaussian 16 at Wed Oct 28 01:54:25 2020.

 --------------------------------------------------------------------
 #P Geom=AllCheck Guess=TCheck SCRF=Check GenChk RwB97XD/CC-pVDZ Freq
 --------------------------------------------------------------------

 Structure from the checkpoint file:  "config_4_17.chk"
 ------------------------------------------------
 NM 2D-scan of HBT TD-WB97XD pVDZ in CTC Relaxed.
 ------------------------------------------------
 Charge =  0 Multiplicity = 1

                          Input orientation:
 ---------------------------------------------------------------------
 Center     Atomic      Atomic             Coordinates (Angstroms)
 Number     Number       Type             X           Y           Z
 ---------------------------------------------------------------------
      1          6           0        1.536685   -3.258053   -0.000115
      2          6           0        1.001952   -1.973709   -0.000075
      3          6           0        1.785877   -0.808603    0.000017
      4          6           0        3.182450   -0.951141    0.000072
      5          6           0        3.725466   -2.235442    0.000036
      6          6           0        2.916697   -3.382260   -0.000057
      7          1           0        0.885006   -4.132148   -0.000185
      8          1           0        3.826976   -0.071377    0.000147
      9          1           0        4.810544   -2.350020    0.000083
     10          1           0        3.373781   -4.372578   -0.000082
     11          7           0        1.015505    0.357893    0.000055
     12         16           0       -0.689207   -1.573832   -0.000115
     13          6           0       -1.311258    1.115413    0.000039
     14          6           0       -2.663038    0.754607    0.000101
     15          6           0       -0.911860    2.469457   -0.000017
     16          6           0       -3.655150    1.720716    0.000105
     17          1           0       -2.941378   -0.301549    0.000156
     18          6           0       -1.934473    3.445373   -0.000019
     19          6           0       -3.275014    3.068037    0.000038
     20          1           0       -4.706944    1.434848    0.000157
     21          1           0       -1.652413    4.499149   -0.000073
     22          1           0       -4.043429    3.843933    0.000032
     23          6           0       -0.271223    0.103020    0.000008
     24          8           0        0.376452    2.770027   -0.000089
     25          1           0        0.904064    1.880365   -0.000102
 ---------------------------------------------------------------------

 SCF Done:  E(RwB97XD) =  -1028.82439448     A.U. after    1 cycles

 Alpha  occ. eigenvalues --  -89.08545 -19.27255 -14.47441 -10.39371 -10.37221
 Alpha  occ. eigenvalues --  -10.35434 -10.34656 -10.32264 -10.32014 -10.31793
 Alpha  occ. eigenvalues --  -10.31712 -10.31671 -10.31624 -10.31465 -10.30240
 Alpha  occ. eigenvalues --  -10.30182  -8.10717  -6.05556  -6.05195  -6.04770
 Alpha  occ. eigenvalues --   -1.15932  -1.09054  -0.97417  -0.96312  -0.92121
 Alpha  occ. eigenvalues --   -0.88657  -0.85653  -0.84479  -0.82972  -0.75538
 Alpha  occ. eigenvalues --   -0.71601  -0.70728  -0.69403  -0.68016  -0.63396
 Alpha  occ. eigenvalues --   -0.60747  -0.59032  -0.58390  -0.56408  -0.54568
 Alpha  occ. eigenvalues --   -0.54371  -0.53420  -0.52917  -0.50875  -0.50268
 Alpha  occ. eigenvalues --   -0.49301  -0.47170  -0.46091  -0.45482  -0.45098
 Alpha  occ. eigenvalues --   -0.44120  -0.42874  -0.42672  -0.39924  -0.36844
 Alpha  occ. eigenvalues --   -0.36261  -0.32203  -0.31688  -0.29036
 Alpha virt. eigenvalues --   -0.00522   0.04755   0.06711   0.07270   0.08050
 Alpha virt. eigenvalues --    0.11297   0.14679   0.15220   0.17263   0.18041
 Alpha virt. eigenvalues --    0.19006   0.21107   0.21654   0.22596   0.22611

 Mulliken charges:
               1
     1  C    0.018458
     2  C   -0.214284
     3  C    0.226796
     4  C   -0.019251
     5  C    0.002900
     6  C    0.003831
     7  H    0.018494
     8  H    0.021589
     9  H    0.021135
    10  H    0.021845
    11  N   -0.357987
    12  S    0.154703
    13  C   -0.049938
    14  C   -0.032541
    15  C    0.080970
    16  C   -0.007619
    17  H    0.020643
    18  C   -0.005109
    19  C    0.021466
    20  H    0.008996
    21  H    0.015670
    22  H    0.018794
    23  C    0.087393
    24  O   -0.235020
    25  H    0.178066
 Sum of Mulliken charges =  -0.00000

 Dipole moment (field-independent basis, Debye):
    X=             -0.0889    Y=             -3.0016    Z=             -0.0000  Tot=              3.0029
 Quadrupole moment (field-independent basis, Debye-Ang):
   XX=            -82.6734   YY=            -90.6246   ZZ=           -103.9739
   XY=             -7.3345   XZ=             -0.0001   YZ=              0.0003

  Exact polarizability:     273.629     -68.323     254.268       0.000       0.002      62.828
 Approx polarizability:     261.558     -23.479     241.806       0.001       0.002      82.135

 ******    1 imaginary frequencies (negative Signs) ******

                      1                      2                      3
                      A                      A                      A
 Frequencies --    -25.9689                65.2371               128.3090
 Red. masses --      5.4251                 5.9934                 5.6050
 Frc consts  --      0.0022                 0.0150                 0.0544
 IR Inten    --      0.0300                 1.2205                 2.5155

                      4                      5                      6
                      A                      A                      A
 Frequencies --    151.5361               197.1099               244.1338
 Red. masses --      5.0407                 6.1186                 5.5443
 Frc consts  --      0.0682                 0.1401                 0.1947
 IR Inten    --      0.1878                 0.7064                 0.0433

                      7                      8                      9
                      A                      A                      A
 Frequencies --    278.5062               328.1671               330.1047
 Red. masses --      7.3598                 6.2111                 5.1071
 Frc consts  --      0.3363                 0.3941                 0.3279
 IR Inten    --      0.6995                11.9219                 0.0577

                     10                     11                     12
                      A                      A                      A
 Frequencies --    424.2603               436.3476               463.5087
 Red. masses --     10.4755                 3.0940                 3.5740
 Frc consts  --      1.1109                 0.3471                 0.4524
 IR Inten    --      0.0262                 1.5922                 8.2591

                     13                     14                     15
                      A                      A                      A
 Frequencies --    516.5181               526.3570               536.8763
 Red. masses --      7.6939                 6.2532                 3.4605
 Frc consts  --      1.2094                 1.0207                 0.5877
 IR Inten    --      2.3536                16.3664                 3.4228

                     16                     17                     18
                      A                      A                      A
 Frequencies --    561.8709               576.7905               590.4640
 Red. masses --      7.0535                 3.7367                 7.6075
 Frc consts  --      1.3120                 0.7325                 1.5627
 IR Inten    --      4.9224                 0.0430                 2.8843

                     19                     20                     21
                      A                      A                      A
 Frequencies --    647.8480               684.0555               735.3046
 Red. masses --      6.3077                 6.5721                 6.4737
 Frc consts  --      1.5598                 1.8119                 2.0622
 IR Inten    --      0.0073                 4.4944                16.6506

                     22                     23                     24
                      A                      A                      A
 Frequencies --    756.3142               765.7145               767.9006
 Red. masses --      1.9691                 9.9044                 3.3358
 Frc consts  --      0.6636                 3.4215                 1.1589
 IR Inten    --     29.2062                21.3723                 0.7146

                     25                     26                     27
                      A                      A                      A
 Frequencies --    773.7775               785.3793               855.1741
 Red. masses --      1.3446                 1.9568                 5.9286
 Frc consts  --      0.4743                 0.7112                 2.5545
 IR Inten    --     57.8056                41.8537                14.9765

                     28                     29                     30
                      A                      A                      A
 Frequencies --    881.1337               886.8793               896.8391
 Red. masses --      1.5667                 1.4072                 6.7476
 Frc consts  --      0.7167                 0.6522                 3.1976
 IR Inten    --      5.4493                 0.3575                 5.6970

                     31                     32                     33
                      A                      A                      A
 Frequencies --    965.5621               975.2352              1004.2234
 Red. masses --      1.3660                 1.3658                 1.0742
 Frc consts  --      0.7504                 0.7653                 0.6382
 IR Inten    --      1.5330                 1.0793                69.4183

                     34                     35                     36
                      A                      A                      A
 Frequencies --   1011.1729              1013.3873              1015.3588
 Red. masses --      1.2930                 7.6413                 1.3045
 Frc consts  --      0.7790                 4.6235                 0.7924
 IR Inten    --      5.8190                43.0586                 0.4817

                     37                     38                     39
                      A                      A                      A
 Frequencies --   1052.1934              1066.3032              1107.5178
 Red. masses --      1.9982                 1.8673                 3.2851
 Frc consts  --      1.3034                 1.2509                 2.3741
 IR Inten    --      9.0100                 9.1643                 5.0975

                     40                     41                     42
                      A                      A                      A
 Frequencies --   1153.7371              1160.2254              1173.4646
 Red. masses --      1.4312                 1.3887                 1.1198
 Frc consts  --      1.1225                 1.1014                 0.9085
 IR Inten    --     10.6832                 2.3301                38.3042

                     43                     44                     45
                      A                      A                      A
 Frequencies --   1183.4395              1258.2763              1283.4305
 Red. masses --      1.2656                 1.9255                 2.0569
 Frc consts  --      1.0443                 1.7962                 1.9962
 IR Inten    --      0.8175                49.7476                32.7707

                     46                     47                     48
                      A                      A                      A
 Frequencies --   1293.8150              1313.6402              1362.3023
 Red. masses --      2.7502                 2.3872                 3.4819
 Frc consts  --      2.7125                 2.4272                 3.8073
 IR Inten    --    187.4121                46.9123                25.6052

                     49                     50                     51
                      A                      A                      A
 Frequencies --   1375.1179              1380.8217              1481.4042
 Red. masses --      5.1601                 7.3173                 2.7226
 Frc consts  --      5.7490                 8.2200                 3.5203
 IR Inten    --     16.6601                 3.8190                19.3618

                     52                     53                     54
                      A                      A                      A
 Frequencies --   1492.1438              1503.3485              1531.9736
 Red. masses --      2.6448                 2.8510                 4.1568
 Frc consts  --      3.4695                 3.7963                 5.7480
 IR Inten    --     26.4537                23.8788               104.2101

                     55                     56                     57
                      A                      A                      A
 Frequencies --   1576.8514              1616.4261              1651.6457
 Red. masses --      6.8573                 2.9631                 6.9517
 Frc consts  --     10.0458                 4.5615                11.1732
 IR Inten    --    276.8190                 3.9508                 8.6560

                     58                     59                     60
                      A                      A                      A
 Frequencies --   1676.7651              1696.5610              1736.5357
 Red. masses --      6.8146                 6.3048                 1.5814
 Frc consts  --     11.2885                10.6920                 2.8097
 IR Inten    --     38.9641               184.9901               224.2377

                     61                     62                     63
                      A                      A                      A
 Frequencies --   2532.6935              3202.8888              3209.5665
 Red. masses --      1.0885                 1.0879                 1.0893
 Frc consts  --      4.1137                 6.5754                 6.6116
 IR Inten    --   1531.3786                 2.4022                 6.4644

                     64                     65                     66
                      A                      A                      A
 Frequencies --   3209.7308              3219.9929              3227.5227
 Red. masses --      1.0862                 1.0904                 1.0940
 Frc consts  --      6.5931                 6.6610                 6.7143
 IR Inten    --      2.1562                 2.6204                13.8755

                     67                     68                     69
                      A                      A                      A
 Frequencies --   3229.4215              3236.5154              3237.5187
 Red. masses --      1.0958                 1.1000                 1.0990
 Frc consts  --      6.7336                 6.7887                 6.7870
 IR Inten    --      8.9054                18.2433                13.3912

 - Thermochemistry -
 -------------------
 Temperature   298.150 Kelvin.  Pressure   1.00000 Atm.
 Atom     1 has atomic number  6 and mass  12.00000

 Molecular mass:   227.04049 amu.
 Principal axes and moments of inertia in atomic units:
                           1         2         3
     Eigenvalues --  1270.579866284.197667554.77751
           X           -0.70454   0.70966  -0.00000
           Y            0.70966   0.70454  -0.00001
           Z            0.00001   0.00001   1.00000
 This molecule is an asymmetric top.
 Rotational symmetry number  1.
 Warning -- assumption of classical behavior for rotation
           may cause significant error
 Rotational temperatures (Kelvin)      0.06817     0.01378     0.01146
 Rotational constants (GHZ):           1.42041     0.28719     0.23889
    1 imaginary frequencies ignored.
 Zero-point vibrational energy     497713.2 (Joules/Mol)
                                  118.95631 (Kcal/Mol)
 Warning -- explicit consideration of  17 degrees of freedom as
           vibrations may cause significant error
 Vibrational temperatures:     93.86   184.61   218.03   283.60   351.25
          (Kelvin)            400.71   472.16   474.95   610.42   627.81
                              666.89   743.15   757.31   772.45   808.41
                              829.87   849.55   932.11   984.20  1057.94
                             1088.17  1101.69  1104.84  1113.29  1129.99
                             1230.40  1267.75  1276.02  1290.35  1389.23
                             1403.15  1444.85  1454.85  1458.04  1460.87
                             1513.87  1534.17  1593.47  1659.97  1669.31
                             1688.35  1702.71  1810.38  1846.57  1861.51
                             1890.04  1960.05  1978.49  1986.69  2131.41
                             2146.86  2162.98  2204.17  2268.74  2325.68
                             2376.35  2412.49  2440.97  2498.49  3643.98
                             4608.24  4617.85  4618.09  4632.85  4643.69
                             4646.42  4656.62  4658.07

 Zero-point correction=                           0.189569 (Hartree/Particle)
 Thermal correction to Energy=                    0.200272
 Thermal correction to Enthalpy=                  0.201216
 Thermal correction to Gibbs Free Energy=         0.152634
 Sum of electronic and zero-point Energies=          -1028.634826
 Sum of electronic and thermal Energies=             -1028.624123
 Sum of electronic and thermal Enthalpies=           -1028.623179
 Sum of electronic and thermal Free Energies=        -1028.671761

                     E (Thermal)             CV                S
                      KCal/Mol        Cal/Mol-Kelvin    Cal/Mol-Kelvin
 Total                  125.672             45.086            102.250
 Electronic               0.000              0.000              0.000
 Translational            0.889              2.981             42.162
 Rotational               0.889              2.981             32.467
 Vibrational            123.895             39.124             27.620
 Vibration     1          0.597              1.971              4.292
 Vibration     2          0.611              1.925              2.971
 Vibration     3          0.619              1.901              2.653
 Vibration     4          0.636              1.844              2.160
 Vibration     5          0.659              1.772              1.773
 Vibration     6          0.679              1.713              1.543
 Vibration     7          0.711              1.619              1.269
 Vibration     8          0.713              1.615              1.260
 Vibration     9          0.786              1.417              0.878
 Vibration    10          0.797              1.391              0.838
 Vibration    11          0.821              1.331              0.756
 Vibration    12          0.872              1.213              0.618
 Vibration    13          0.881              1.192              0.595
 Vibration    14          0.892              1.168              0.572
 Vibration    15          0.918              1.114              0.520
 Vibration    16          0.933              1.081              0.491
 Vibration    17          0.948              1.052              0.466

 Optimization completed.
    -- Stationary point found.
 Normal termination of Gaussian 16 at Wed Oct 28 02:01:04 2020.
