 Gaussian 16, Revision C.01,
 Gaussian 16:  ES64L-G16RevC.01  3-Jul-2019

 ----------------------------------------------------------------------
 #p opt=addgic freq wb97xd/cc-pvdz nosymm int=ultrafine scrf=(solvent=C
 arbonTetraChloride)
 ----------------------------------------------------------------------

 ------------------------------------------------
 NM 2D-scan of HBT TD-WB97XD pVDZ in CTC Relaxed.
 ------------------------------------------------
 Symbolic Z-matrix:
 Charge =  0 Multiplicity = 1

 SCF Done:  E(RwB97XD) =  -1028.70582826     A.U. after   16 cycles
 SCF Done:  E(RwB97XD) =  -1028.77902438     A.U. after   14 cycles
 SCF Done:  E(RwB97XD) =  -1028.80070612     A.U. after   14 cycles
 SCF Done:  E(RwB97XD) =  -1028.80439253     A.U. after   13 cycles
 SCF Done:  E(RwB97XD) =  -1028.80448147     A.U. after   11 cycles
 SCF Done:  E(RwB97XD) =  -1028.80448758     A.U. after    9 cycles
 Optimization completed.
    -- Stationary point found.
 Normal termination of Gaussian 16 at Wed Oct 28 01:26:07 2020.

 --------------------------------------------------------------------
 #P Geom=AllCheck Guess=TCheck SCRF=Check GenChk RwB97XD/CC-pVDZ Freq
 --------------------------------------------------------------------

 Structure from the checkpoint file:  "config_10_20.chk"
 ------------------------------------------------
 NM 2D-scan of HBT TD-WB97XD pVDZ in CTC Relaxed.
 ------------------------------------------------
 Charge =  0 Multiplicity = 1

                          Input orientation:
 ---------------------------------------------------------------------
 Center     Atomic      Atomic             Coordinates (Angstroms)
 Number     Number       Type             X           Y           Z
 ---------------------------------------------------------------------
      1          6           0        1.507385   -3.276554   -0.000044
      2          6           0        0.997338   -1.985480   -0.000033
      3          6           0        1.817767   -0.859274   -0.000015
      4          6           0        3.206162   -1.010272   -0.000009
      5          6           0        3.722768   -2.308019   -0.000018
      6          6           0        2.888568   -3.431434   -0.000035
      7          1           0        0.839091   -4.137662   -0.000057
      8          1           0        3.866396   -0.142339    0.000006
      9          1           0        4.805100   -2.443358   -0.000011
     10          1           0        3.321704   -4.432042   -0.000042
     11          7           0        1.048168    0.305431   -0.000001
     12         16           0       -0.692482   -1.531065   -0.000035
     13          6           0       -1.290583    1.148000    0.000032
     14          6           0       -2.657977    0.744303    0.000054
     15          6           0       -0.908008    2.553398    0.000017
     16          6           0       -3.672508    1.658549    0.000049
     17          1           0       -2.907448   -0.319952    0.000079
     18          6           0       -2.043269    3.478658    0.000009
     19          6           0       -3.342180    3.045838    0.000020
     20          1           0       -4.713650    1.335673    0.000067
     21          1           0       -1.808497    4.545016   -0.000004
     22          1           0       -4.152187    3.780070    0.000009
     23          6           0       -0.293218    0.157990    0.000007
     24          8           0        0.286790    2.904085    0.000040
     25          1           0        1.473151    1.216398    0.000018
 ---------------------------------------------------------------------

 SCF Done:  E(RwB97XD) =  -1028.80448758     A.U. after    1 cycles

 Alpha  occ. eigenvalues --  -89.09548 -19.21220 -14.52692 -10.41429 -10.37429
 Alpha  occ. eigenvalues --  -10.35975 -10.35694 -10.33168 -10.33144 -10.32589
 Alpha  occ. eigenvalues --  -10.32283 -10.31067 -10.30739 -10.30232 -10.29139
 Alpha  occ. eigenvalues --  -10.28650  -8.11677  -6.06554  -6.06166  -6.05679
 Alpha  occ. eigenvalues --   -1.12792  -1.09858  -0.98639  -0.95702  -0.93284
 Alpha  occ. eigenvalues --   -0.89150  -0.86832  -0.83693  -0.81765  -0.75424
 Alpha  occ. eigenvalues --   -0.73795  -0.72174  -0.69220  -0.67890  -0.64773
 Alpha  occ. eigenvalues --   -0.60912  -0.59709  -0.56760  -0.56029  -0.55920
 Alpha  occ. eigenvalues --   -0.55019  -0.53979  -0.52959  -0.49953  -0.49477
 Alpha  occ. eigenvalues --   -0.48960  -0.48282  -0.46786  -0.45683  -0.44787
 Alpha  occ. eigenvalues --   -0.44462  -0.42774  -0.41931  -0.40361  -0.36884
 Alpha  occ. eigenvalues --   -0.33604  -0.31598  -0.31364  -0.26176
 Alpha virt. eigenvalues --   -0.01277   0.03802   0.05688   0.07231   0.09483
 Alpha virt. eigenvalues --    0.11343   0.14243   0.14844   0.16111   0.17213
 Alpha virt. eigenvalues --    0.17933   0.19743   0.20840   0.21520   0.22644

 Mulliken charges:
               1
     1  C    0.019262
     2  C   -0.227680
     3  C    0.225445
     4  C   -0.012558
     5  C    0.008065
     6  C    0.005521
     7  H    0.023361
     8  H    0.029531
     9  H    0.027177
    10  H    0.025898
    11  N   -0.132144
    12  S    0.178308
    13  C   -0.081224
    14  C   -0.023714
    15  C    0.089709
    16  C   -0.031836
    17  H    0.016427
    18  C   -0.037612
    19  C    0.028837
    20  H    0.001942
    21  H    0.002229
    22  H    0.014004
    23  C    0.089218
    24  O   -0.363186
    25  H    0.125019
 Sum of Mulliken charges =  -0.00000

 Dipole moment (field-independent basis, Debye):
    X=              2.0684    Y=             -5.4858    Z=             -0.0001  Tot=              5.8627
 Quadrupole moment (field-independent basis, Debye-Ang):
   XX=            -80.9890   YY=            -96.9161   ZZ=           -103.9714
   XY=             -6.3020   XZ=             -0.0000   YZ=             -0.0001

  Exact polarizability:     288.215     -90.011     287.348      -0.001       0.002      62.827
 Approx polarizability:     265.527     -33.279     255.040      -0.000       0.001      81.831

                      1                      2                      3
                      A                      A                      A
 Frequencies --     38.0958                60.1659               106.5443
 Red. masses --      4.8500                 5.8333                 5.8459
 Frc consts  --      0.0041                 0.0124                 0.0391
 IR Inten    --      1.7946                 0.8289                 1.4691

                      4                      5                      6
                      A                      A                      A
 Frequencies --    125.9310               193.2415               224.8645
 Red. masses --      5.6258                 6.1428                 5.7140
 Frc consts  --      0.0526                 0.1352                 0.1702
 IR Inten    --      1.7019                 0.0247                 1.0041

                      7                      8                      9
                      A                      A                      A
 Frequencies --    261.6343               292.4433               307.7770
 Red. masses --      8.3486                 6.8709                 5.2583
 Frc consts  --      0.3367                 0.3462                 0.2935
 IR Inten    --      6.1871                 1.2172                 1.1112

                     10                     11                     12
                      A                      A                      A
 Frequencies --    401.7421               425.9852               445.6253
 Red. masses --      8.1673                 3.3171                 3.4515
 Frc consts  --      0.7766                 0.3546                 0.4038
 IR Inten    --      3.6527                 0.0543                10.5675

                     13                     14                     15
                      A                      A                      A
 Frequencies --    510.3197               518.4184               529.9640
 Red. masses --      8.3466                 2.5949                 6.7681
 Frc consts  --      1.2807                 0.4109                 1.1200
 IR Inten    --     11.1498                 8.6568                 4.5382

                     16                     17                     18
                      A                      A                      A
 Frequencies --    546.1461               561.5455               580.6909
 Red. masses --      7.4478                 3.7493                 7.3247
 Frc consts  --      1.3089                 0.6966                 1.4552
 IR Inten    --     15.2319                 0.7238                39.7557

                     19                     20                     21
                      A                      A                      A
 Frequencies --    602.7622               647.7298               654.2241
 Red. masses --      1.3665                 2.9158                 6.2415
 Frc consts  --      0.2925                 0.7208                 1.5739
 IR Inten    --     49.5676                32.3483                 2.0003

                     22                     23                     24
                      A                      A                      A
 Frequencies --    722.2422               741.4972               752.3960
 Red. masses --      5.6975                 7.4001                 2.6456
 Frc consts  --      1.7511                 2.3972                 0.8824
 IR Inten    --     72.7221                47.4916                18.5123

                     25                     26                     27
                      A                      A                      A
 Frequencies --    756.5910               774.6430               779.1771
 Red. masses --      1.4268                 1.5489                 2.4600
 Frc consts  --      0.4812                 0.5476                 0.8799
 IR Inten    --     44.7212                46.4303                14.6429

                     28                     29                     30
                      A                      A                      A
 Frequencies --    833.1779               876.4823               878.2568
 Red. masses --      6.2549                 2.1250                 4.9113
 Frc consts  --      2.5583                 0.9618                 2.2320
 IR Inten    --     17.6837                18.1575                 0.6369

                     31                     32                     33
                      A                      A                      A
 Frequencies --    883.6906               962.4300               969.8610
 Red. masses --      1.3685                 1.3262                 1.3602
 Frc consts  --      0.6296                 0.7238                 0.7538
 IR Inten    --      0.5011                 0.0502                 1.5122

                     34                     35                     36
                      A                      A                      A
 Frequencies --    970.7436              1013.1238              1018.7483
 Red. masses --      4.5900                 1.3027                 1.3085
 Frc consts  --      2.5484                 0.7878                 0.8001
 IR Inten    --     28.9344                 0.0081                 0.3685

                     37                     38                     39
                      A                      A                      A
 Frequencies --   1038.6142              1057.5170              1101.5319
 Red. masses --      2.1251                 2.0675                 3.3324
 Frc consts  --      1.3506                 1.3623                 2.3823
 IR Inten    --     15.1373                11.8137                13.1191

                     40                     41                     42
                      A                      A                      A
 Frequencies --   1141.4798              1162.3897              1165.5992
 Red. masses --      1.8741                 1.2075                 1.3669
 Frc consts  --      1.4387                 0.9613                 1.0942
 IR Inten    --     38.6163                68.8062                34.5620

                     43                     44                     45
                      A                      A                      A
 Frequencies --   1180.7887              1201.6475              1242.3935
 Red. masses --      1.1593                 1.2680                 2.0232
 Frc consts  --      0.9524                 1.0788                 1.8400
 IR Inten    --     16.8258                28.1493                14.5849

                     46                     47                     48
                      A                      A                      A
 Frequencies --   1278.5856              1294.7518              1347.8556
 Red. masses --      2.4056                 1.9494                 2.5970
 Frc consts  --      2.3171                 1.9254                 2.7797
 IR Inten    --     85.7360                94.4606                17.0890

                     49                     50                     51
                      A                      A                      A
 Frequencies --   1384.1859              1398.6156              1411.7501
 Red. masses --      5.8347                 4.8072                 2.1784
 Frc consts  --      6.5866                 5.5404                 2.5580
 IR Inten    --    176.9464                67.6516                 3.8370

                     52                     53                     54
                      A                      A                      A
 Frequencies --   1491.3171              1506.3567              1521.3263
 Red. masses --      2.6620                 2.9221                 3.0568
 Frc consts  --      3.4882                 3.9067                 4.1684
 IR Inten    --     14.1552               320.1654                 2.4871

                     55                     56                     57
                      A                      A                      A
 Frequencies --   1554.2289              1601.9342              1657.4134
 Red. masses --      4.8041                 7.1024                 6.8678
 Frc consts  --      6.8374                10.7386                11.1155
 IR Inten    --   2132.6949                90.1621               110.0600

                     58                     59                     60
                      A                      A                      A
 Frequencies --   1679.8120              1681.1750              1723.9257
 Red. masses --      7.3583                 7.1426                 8.2240
 Frc consts  --     12.2334                11.8941                14.4003
 IR Inten    --     35.2377                33.3036               442.4526

                     61                     62                     63
                      A                      A                      A
 Frequencies --   3188.2574              3192.6724              3214.3211
 Red. masses --      1.0874                 1.0888                 1.0865
 Frc consts  --      6.5126                 6.5387                 6.6137
 IR Inten    --      2.2408                14.8251                 1.0924

                     64                     65                     66
                      A                      A                      A
 Frequencies --   3216.5480              3223.7051              3231.7509
 Red. masses --      1.0951                 1.0907                 1.0960
 Frc consts  --      6.6755                 6.6780                 6.7443
 IR Inten    --     32.9065                 1.6702                 5.7845

                     67                     68                     69
                      A                      A                      A
 Frequencies --   3233.5015              3240.3698              3720.0819
 Red. masses --      1.0973                 1.1000                 1.0801
 Frc consts  --      6.7596                 6.8050                 8.8072
 IR Inten    --     16.9242                12.5635               119.1628

 - Thermochemistry -
 -------------------
 Temperature   298.150 Kelvin.  Pressure   1.00000 Atm.
 Atom     1 has atomic number  6 and mass  12.00000

 Molecular mass:   227.04049 amu.
 Principal axes and moments of inertia in atomic units:
                           1         2         3
     Eigenvalues --  1271.774876413.559167685.33404
           X           -0.70227   0.71191   0.00000
           Y            0.71191   0.70227  -0.00001
           Z            0.00001   0.00001   1.00000
 This molecule is an asymmetric top.
 Rotational symmetry number  1.
 Warning -- assumption of classical behavior for rotation
           may cause significant error
 Rotational temperatures (Kelvin)      0.06810     0.01350     0.01127
 Rotational constants (GHZ):           1.41907     0.28139     0.23483
 Zero-point vibrational energy     497977.4 (Joules/Mol)
                                  119.01945 (Kcal/Mol)
 Warning -- explicit consideration of  19 degrees of freedom as
           vibrations may cause significant error
 Vibrational temperatures:     54.81    86.57   153.29   181.19   278.03
          (Kelvin)            323.53   376.43   420.76   442.82   578.02
                              612.90   641.16   734.24   745.89   762.50
                              785.78   807.94   835.48   867.24   931.94
                              941.28  1039.15  1066.85  1082.53  1088.57
                             1114.54  1121.06  1198.76  1261.06  1263.62
                             1271.43  1384.72  1395.41  1396.68  1457.66
                             1465.75  1494.33  1521.53  1584.86  1642.33
                             1672.42  1677.04  1698.89  1728.90  1787.53
                             1839.60  1862.86  1939.26  1991.53  2012.30
                             2031.19  2145.67  2167.31  2188.85  2236.19
                             2304.83  2384.65  2416.87  2418.84  2480.34
                             4587.19  4593.54  4624.69  4627.90  4638.19
                             4649.77  4652.29  4662.17  5352.37

 Zero-point correction=                           0.189670 (Hartree/Particle)
 Thermal correction to Energy=                    0.201728
 Thermal correction to Enthalpy=                  0.202672
 Thermal correction to Gibbs Free Energy=         0.150435
 Sum of electronic and zero-point Energies=          -1028.614818
 Sum of electronic and thermal Energies=             -1028.602760
 Sum of electronic and thermal Enthalpies=           -1028.601816
 Sum of electronic and thermal Free Energies=        -1028.654052

                     E (Thermal)             CV                S
                      KCal/Mol        Cal/Mol-Kelvin    Cal/Mol-Kelvin
 Total                  126.586             48.620            109.941
 Electronic               0.000              0.000              0.000
 Translational            0.889              2.981             42.162
 Rotational               0.889              2.981             32.505
 Vibrational            124.809             42.658             35.274
 Vibration     1          0.594              1.982              5.356
 Vibration     2          0.597              1.973              4.452
 Vibration     3          0.605              1.944              3.331
 Vibration     4          0.611              1.927              3.007
 Vibration     5          0.635              1.849              2.197
 Vibration     6          0.650              1.803              1.920
 Vibration     7          0.669              1.743              1.651
 Vibration     8          0.688              1.688              1.460
 Vibration     9          0.698              1.659              1.374
 Vibration    10          0.767              1.466              0.956
 Vibration    11          0.788              1.414              0.872
 Vibration    12          0.805              1.371              0.809
 Vibration    13          0.865              1.227              0.633
 Vibration    14          0.873              1.209              0.614
 Vibration    15          0.885              1.184              0.587
 Vibration    16          0.901              1.148              0.552
 Vibration    17          0.917              1.114              0.521
 Vibration    18          0.937              1.073              0.484
 Vibration    19          0.961              1.026              0.445

 Optimization completed.
    -- Stationary point found.
 Normal termination of Gaussian 16 at Wed Oct 28 01:32:08 2020.
