 Gaussian 16, Revision C.01,
 Gaussian 16:  ES64L-G16RevC.01  3-Jul-2019

 ----------------------------------------------------------------------
 #p opt=addgic freq wb97xd/cc-pvdz nosymm int=ultrafine scrf=(solvent=C
 arbonTetraChloride)
 ----------------------------------------------------------------------

 ------------------------------------------------
 NM 2D-scan of HBT TD-WB97XD pVDZ in CTC Relaxed.
 ------------------------------------------------
 Symbolic Z-matrix:
 Charge =  0 Multiplicity = 1

 SCF Done:  E(RwB97XD) =  -1028.75487677     A.U. after   15 cycles
 SCF Done:  E(RwB97XD) =  -1028.82198229     A.U. after   13 cycles
 SCF Done:  E(RwB97XD) =  -1028.82654360     A.U. after   13 cycles
 SCF Done:  E(RwB97XD) =  -1028.83073833     A.U. after   12 cycles
 SCF Done:  E(RwB97XD) =  -1028.83082088     A.U. after   10 cycles
 SCF Done:  E(RwB97XD) =  -1028.83084446     A.U. after   10 cycles
 SCF Done:  E(RwB97XD) =  -1028.83084616     A.U. after    9 cycles
 SCF Done:  E(RwB97XD) =  -1028.83084624     A.U. after    7 cycles
 SCF Done:  E(RwB97XD) =  -1028.83084628     A.U. after    6 cycles
 Optimization completed.
    -- Stationary point found.
 Normal termination of Gaussian 16 at Tue Oct 27 23:54:20 2020.

 --------------------------------------------------------------------
 #P Geom=AllCheck Guess=TCheck SCRF=Check GenChk RwB97XD/CC-pVDZ Freq
 --------------------------------------------------------------------

 Structure from the checkpoint file:  "config_2_13.chk"
 ------------------------------------------------
 NM 2D-scan of HBT TD-WB97XD pVDZ in CTC Relaxed.
 ------------------------------------------------
 Charge =  0 Multiplicity = 1

                          Input orientation:
 ---------------------------------------------------------------------
 Center     Atomic      Atomic             Coordinates (Angstroms)
 Number     Number       Type             X           Y           Z
 ---------------------------------------------------------------------
      1          6           0        1.601817   -3.303140   -0.000043
      2          6           0        0.978116   -2.052949   -0.000034
      3          6           0        1.725917   -0.860377    0.000002
      4          6           0        3.125240   -0.912089    0.000032
      5          6           0        3.746414   -2.152095    0.000021
      6          6           0        2.991508   -3.337057   -0.000016
      7          1           0        1.018895   -4.224609   -0.000070
      8          1           0        3.697963    0.015892    0.000060
      9          1           0        4.835853   -2.209625    0.000043
     10          1           0        3.502323   -4.301133   -0.000023
     11          7           0        0.972233    0.299226    0.000005
     12         16           0       -0.727645   -1.666984   -0.000056
     13          6           0       -1.319893    1.108737   -0.000018
     14          6           0       -2.694730    0.809123   -0.000003
     15          6           0       -0.917741    2.469467    0.000003
     16          6           0       -3.653171    1.807602    0.000057
     17          1           0       -3.013260   -0.236054   -0.000023
     18          6           0       -1.897837    3.473740    0.000070
     19          6           0       -3.243434    3.147643    0.000099
     20          1           0       -4.712629    1.551542    0.000077
     21          1           0       -1.561942    4.511264    0.000082
     22          1           0       -3.988320    3.945593    0.000145
     23          6           0       -0.307867    0.052814   -0.000035
     24          8           0        0.360961    2.861581   -0.000080
     25          1           0        0.923400    2.051651   -0.000181
 ---------------------------------------------------------------------

 SCF Done:  E(RwB97XD) =  -1028.83084628     A.U. after    1 cycles

 Alpha  occ. eigenvalues --  -89.08552 -19.28427 -14.46917 -10.39368 -10.37489
 Alpha  occ. eigenvalues --  -10.34826 -10.34738 -10.32420 -10.32279 -10.31906
 Alpha  occ. eigenvalues --  -10.31555 -10.31544 -10.31447 -10.31396 -10.30312
 Alpha  occ. eigenvalues --  -10.30186  -8.10582  -6.05435  -6.05080  -6.04630
 Alpha  occ. eigenvalues --   -1.16648  -1.08809  -0.97258  -0.96203  -0.91521
 Alpha  occ. eigenvalues --   -0.88555  -0.85383  -0.84628  -0.82869  -0.75463
 Alpha  occ. eigenvalues --   -0.71461  -0.70626  -0.69427  -0.68156  -0.63167
 Alpha  occ. eigenvalues --   -0.60393  -0.58728  -0.58464  -0.56488  -0.54525
 Alpha  occ. eigenvalues --   -0.53925  -0.53152  -0.52813  -0.50798  -0.50429
 Alpha  occ. eigenvalues --   -0.49220  -0.47742  -0.45864  -0.45398  -0.44993
 Alpha  occ. eigenvalues --   -0.43942  -0.43017  -0.42494  -0.39701  -0.37394
 Alpha  occ. eigenvalues --   -0.36187  -0.32025  -0.31755  -0.29172
 Alpha virt. eigenvalues --   -0.00434   0.04893   0.06787   0.07125   0.07822
 Alpha virt. eigenvalues --    0.11509   0.14143   0.15200   0.16543   0.17994
 Alpha virt. eigenvalues --    0.18885   0.20730   0.21625   0.22529   0.22825

 Mulliken charges:
               1
     1  C    0.008867
     2  C   -0.209736
     3  C    0.215982
     4  C   -0.015268
     5  C    0.005415
     6  C    0.000096
     7  H    0.018650
     8  H    0.017135
     9  H    0.019279
    10  H    0.021131
    11  N   -0.342959
    12  S    0.141107
    13  C   -0.048651
    14  C   -0.026727
    15  C    0.060900
    16  C   -0.004941
    17  H    0.017050
    18  C    0.012040
    19  C    0.020469
    20  H    0.010134
    21  H    0.017290
    22  H    0.018887
    23  C    0.081631
    24  O   -0.197281
    25  H    0.159501
 Sum of Mulliken charges =  -0.00000

 Dipole moment (field-independent basis, Debye):
    X=             -0.1175    Y=             -2.3212    Z=             -0.0001  Tot=              2.3241
 Quadrupole moment (field-independent basis, Debye-Ang):
   XX=            -82.7135   YY=            -89.9392   ZZ=           -104.1306
   XY=             -7.0776   XZ=             -0.0003   YZ=              0.0003

  Exact polarizability:     273.907     -66.575     254.951      -0.001       0.003      62.963
 Approx polarizability:     262.078     -22.734     242.392      -0.000       0.003      82.171

                      1                      2                      3
                      A                      A                      A
 Frequencies --     48.1047                60.4904               117.5589
 Red. masses --      5.9067                 5.3206                 5.6507
 Frc consts  --      0.0081                 0.0115                 0.0460
 IR Inten    --      0.2883                 0.8882                 1.2680

                      4                      5                      6
                      A                      A                      A
 Frequencies --    151.6155               198.6819               246.2334
 Red. masses --      4.9958                 5.9663                 5.6884
 Frc consts  --      0.0677                 0.1388                 0.2032
 IR Inten    --      0.0060                 0.6822                 0.0195

                      7                      8                      9
                      A                      A                      A
 Frequencies --    267.7897               299.5258               328.5467
 Red. masses --      7.9421                 6.3147                 5.0828
 Frc consts  --      0.3356                 0.3338                 0.3233
 IR Inten    --      1.7569                 6.6081                 0.1604

                     10                     11                     12
                      A                      A                      A
 Frequencies --    409.7311               438.6519               468.6493
 Red. masses --      9.1556                 3.1362                 3.7040
 Frc consts  --      0.9056                 0.3555                 0.4793
 IR Inten    --      0.2131                 1.9732                 8.0524

                     13                     14                     15
                      A                      A                      A
 Frequencies --    511.7185               516.2052               537.8845
 Red. masses --      4.9901                 8.5293                 3.4515
 Frc consts  --      0.7699                 1.3391                 0.5883
 IR Inten    --      7.0194                 0.0447                 3.7886

                     16                     17                     18
                      A                      A                      A
 Frequencies --    548.4150               575.3576               592.1621
 Red. masses --      8.3013                 3.7384                 7.7072
 Frc consts  --      1.4710                 0.7291                 1.5923
 IR Inten    --      2.1280                 0.0187                 5.9335

                     19                     20                     21
                      A                      A                      A
 Frequencies --    645.5425               678.1391               716.9471
 Red. masses --      5.6001                 6.6171                 7.7018
 Frc consts  --      1.3750                 1.7929                 2.3325
 IR Inten    --      0.5064                 3.8108                37.2201

                     22                     23                     24
                      A                      A                      A
 Frequencies --    732.3056               752.0698               756.8040
 Red. masses --      8.4919                 1.8349                 1.8719
 Frc consts  --      2.6831                 0.6115                 0.6317
 IR Inten    --      4.2864                52.4328                10.1686

                     25                     26                     27
                      A                      A                      A
 Frequencies --    775.1678               785.7342               796.3812
 Red. masses --      1.4439                 1.8105                 1.5209
 Frc consts  --      0.5112                 0.6586                 0.5683
 IR Inten    --     71.6311                18.3424                60.6529

                     28                     29                     30
                      A                      A                      A
 Frequencies --    845.6534               884.3884               888.0206
 Red. masses --      5.9558                 1.5418                 1.4242
 Frc consts  --      2.5094                 0.7105                 0.6617
 IR Inten    --     21.0073                 3.8832                 0.9716

                     31                     32                     33
                      A                      A                      A
 Frequencies --    891.5988               970.7053               976.2600
 Red. masses --      6.4952                 1.3598                 1.3656
 Frc consts  --      3.0422                 0.7549                 0.7669
 IR Inten    --      3.4224                 1.0944                 1.6075

                     34                     35                     36
                      A                      A                      A
 Frequencies --    989.8127              1011.6404              1015.5065
 Red. masses --      7.6542                 1.3028                 1.3048
 Frc consts  --      4.4183                 0.7856                 0.7928
 IR Inten    --     58.9407                 0.3700                 0.0196

                     37                     38                     39
                      A                      A                      A
 Frequencies --   1052.0385              1069.9410              1101.2406
 Red. masses --      2.0002                 1.9590                 4.0631
 Frc consts  --      1.3043                 1.3213                 2.9031
 IR Inten    --      8.4293                11.8141                 6.0033

                     40                     41                     42
                      A                      A                      A
 Frequencies --   1150.5435              1153.9450              1176.0622
 Red. masses --      1.4827                 1.3252                 1.1221
 Frc consts  --      1.1564                 1.0397                 0.9144
 IR Inten    --      5.1412                 3.8293                41.0829

                     43                     44                     45
                      A                      A                      A
 Frequencies --   1184.9178              1247.6192              1281.8977
 Red. masses --      1.2145                 1.8461                 2.3888
 Frc consts  --      1.0047                 1.6930                 2.3128
 IR Inten    --      0.3743               132.4704               104.6278

                     46                     47                     48
                      A                      A                      A
 Frequencies --   1284.4845              1331.0506              1339.8835
 Red. masses --      1.6058                 4.2600                 3.1948
 Frc consts  --      1.5609                 4.4468                 3.3794
 IR Inten    --     14.7957                37.6593                 0.1431

                     49                     50                     51
                      A                      A                      A
 Frequencies --   1370.5285              1378.7718              1454.8232
 Red. masses --      7.6560                 3.8940                 1.7424
 Frc consts  --      8.4729                 4.3615                 2.1728
 IR Inten    --     15.7025                14.6833                51.7145

                     52                     53                     54
                      A                      A                      A
 Frequencies --   1488.5408              1504.1263              1524.9832
 Red. masses --      2.6282                 2.8818                 3.5141
 Frc consts  --      3.4311                 3.8414                 4.8149
 IR Inten    --     42.0397                 6.9084                91.3730

                     55                     56                     57
                      A                      A                      A
 Frequencies --   1542.4439              1594.8361              1645.8306
 Red. masses --      2.3588                 7.5875                 6.7486
 Frc consts  --      3.3065                11.3706                10.7704
 IR Inten    --    131.7508               190.1717                 5.9051

                     58                     59                     60
                      A                      A                      A
 Frequencies --   1662.2499              1680.7947              1708.8164
 Red. masses --      4.7229                 6.8849                 5.9800
 Frc consts  --      7.6886                11.4597                10.2883
 IR Inten    --    125.3477                 7.3001               114.8347

                     61                     62                     63
                      A                      A                      A
 Frequencies --   3201.8409              3211.8577              3212.8447
 Red. masses --      1.0884                 1.0861                 1.0887
 Frc consts  --      6.5739                 6.6012                 6.6213
 IR Inten    --      2.7727                 1.4053                 7.5383

                     64                     65                     66
                      A                      A                      A
 Frequencies --   3223.2047              3231.0488              3233.9258
 Red. masses --      1.0906                 1.0941                 1.0959
 Frc consts  --      6.6754                 6.7296                 6.7529
 IR Inten    --      5.3741                10.8648                11.4588

                     67                     68                     69
                      A                      A                      A
 Frequencies --   3238.6023              3239.6654              3393.7682
 Red. masses --      1.0995                 1.0994                 1.0680
 Frc consts  --      6.7944                 6.7987                 7.2473
 IR Inten    --     18.5303                12.3047               725.3264

 - Thermochemistry -
 -------------------
 Temperature   298.150 Kelvin.  Pressure   1.00000 Atm.
 Atom     1 has atomic number  6 and mass  12.00000

 Molecular mass:   227.04049 amu.
 Principal axes and moments of inertia in atomic units:
                           1         2         3
     Eigenvalues --  1310.078746359.379427669.45816
           X           -0.69702   0.71705   0.00000
           Y            0.71705   0.69702  -0.00001
           Z            0.00001   0.00001   1.00000
 This molecule is an asymmetric top.
 Rotational symmetry number  1.
 Warning -- assumption of classical behavior for rotation
           may cause significant error
 Rotational temperatures (Kelvin)      0.06611     0.01362     0.01129
 Rotational constants (GHZ):           1.37758     0.28379     0.23532
 Zero-point vibrational energy     499722.8 (Joules/Mol)
                                  119.43662 (Kcal/Mol)
 Warning -- explicit consideration of  18 degrees of freedom as
           vibrations may cause significant error
 Vibrational temperatures:     69.21    87.03   169.14   218.14   285.86
          (Kelvin)            354.27   385.29   430.95   472.71   589.51
                              631.12   674.28   736.25   742.70   773.90
                              789.05   827.81   851.99   928.79   975.69
                             1031.53  1053.62  1082.06  1088.87  1115.29
                             1130.50  1145.81  1216.71  1272.44  1277.66
                             1282.81  1396.63  1404.62  1424.12  1455.52
                             1461.09  1513.65  1539.41  1584.44  1655.38
                             1660.27  1692.09  1704.83  1795.05  1844.36
                             1848.09  1915.08  1927.79  1971.88  1983.75
                             2093.17  2141.68  2164.10  2194.11  2219.23
                             2294.61  2367.98  2391.61  2418.29  2458.61
                             4606.73  4621.15  4622.57  4637.47  4648.76
                             4652.90  4659.63  4661.16  4882.88

 Zero-point correction=                           0.190334 (Hartree/Particle)
 Thermal correction to Energy=                    0.202055
 Thermal correction to Enthalpy=                  0.202999
 Thermal correction to Gibbs Free Energy=         0.151675
 Sum of electronic and zero-point Energies=          -1028.640512
 Sum of electronic and thermal Energies=             -1028.628792
 Sum of electronic and thermal Enthalpies=           -1028.627848
 Sum of electronic and thermal Free Energies=        -1028.679171

                     E (Thermal)             CV                S
                      KCal/Mol        Cal/Mol-Kelvin    Cal/Mol-Kelvin
 Total                  126.791             47.724            108.019
 Electronic               0.000              0.000              0.000
 Translational            0.889              2.981             42.162
 Rotational               0.889              2.981             32.524
 Vibrational            125.014             41.763             33.333
 Vibration     1          0.595              1.978              4.894
 Vibration     2          0.597              1.973              4.441
 Vibration     3          0.608              1.935              3.140
 Vibration     4          0.619              1.901              2.652
 Vibration     5          0.637              1.842              2.145
 Vibration     6          0.661              1.769              1.757
 Vibration     7          0.673              1.732              1.610
 Vibration     8          0.692              1.675              1.420
 Vibration     9          0.712              1.618              1.267
 Vibration    10          0.774              1.449              0.928
 Vibration    11          0.799              1.386              0.831
 Vibration    12          0.826              1.320              0.741
 Vibration    13          0.867              1.224              0.629
 Vibration    14          0.871              1.214              0.619
 Vibration    15          0.893              1.166              0.570
 Vibration    16          0.904              1.143              0.547
 Vibration    17          0.932              1.085              0.494
 Vibration    18          0.950              1.048              0.463

 Optimization completed.
    -- Stationary point found.
 Normal termination of Gaussian 16 at Wed Oct 28 00:00:14 2020.
