 Gaussian 16, Revision C.01,
 Gaussian 16:  ES64L-G16RevC.01  3-Jul-2019

 ----------------------------------------------------------------------
 #p opt=addgic freq wb97xd/cc-pvdz nosymm int=ultrafine scrf=(solvent=C
 arbonTetraChloride)
 ----------------------------------------------------------------------

 ------------------------------------------------
 NM 2D-scan of HBT TD-WB97XD pVDZ in CTC Relaxed.
 ------------------------------------------------
 Symbolic Z-matrix:
 Charge =  0 Multiplicity = 1

 SCF Done:  E(RwB97XD) =  -1028.70940702     A.U. after   16 cycles
 SCF Done:  E(RwB97XD) =  -1028.78680726     A.U. after   14 cycles
 SCF Done:  E(RwB97XD) =  -1028.79870916     A.U. after   14 cycles
 SCF Done:  E(RwB97XD) =  -1028.80273953     A.U. after   13 cycles
 SCF Done:  E(RwB97XD) =  -1028.80317442     A.U. after   12 cycles
 SCF Done:  E(RwB97XD) =  -1028.80324530     A.U. after   10 cycles
 Optimization completed.
    -- Stationary point found.
 Normal termination of Gaussian 16 at Tue Oct 27 22:23:48 2020.

 --------------------------------------------------------------------
 #P Geom=AllCheck Guess=TCheck SCRF=Check GenChk RwB97XD/CC-pVDZ Freq
 --------------------------------------------------------------------

 Structure from the checkpoint file:  "config_11_8.chk"
 ------------------------------------------------
 NM 2D-scan of HBT TD-WB97XD pVDZ in CTC Relaxed.
 ------------------------------------------------
 Charge =  0 Multiplicity = 1

                          Input orientation:
 ---------------------------------------------------------------------
 Center     Atomic      Atomic             Coordinates (Angstroms)
 Number     Number       Type             X           Y           Z
 ---------------------------------------------------------------------
      1          6           0        1.674328   -3.276618   -0.000021
      2          6           0        1.009752   -2.054509   -0.000011
      3          6           0        1.727648   -0.870382   -0.000012
      4          6           0        3.120865   -0.841700   -0.000018
      5          6           0        3.782766   -2.065583   -0.000026
      6          6           0        3.067793   -3.268135   -0.000029
      7          1           0        1.122521   -4.216428   -0.000023
      8          1           0        3.662555    0.104692   -0.000018
      9          1           0        4.873206   -2.084094   -0.000031
     10          1           0        3.606371   -4.216204   -0.000036
     11          7           0        0.872913    0.209415   -0.000013
     12         16           0       -0.732994   -1.706212    0.000002
     13          6           0       -1.389740    1.084227    0.000009
     14          6           0       -2.790612    0.861853   -0.000001
     15          6           0       -0.838548    2.443668    0.000033
     16          6           0       -3.686450    1.904954    0.000019
     17          1           0       -3.163649   -0.166826   -0.000026
     18          6           0       -1.847797    3.499522    0.000058
     19          6           0       -3.192912    3.237621    0.000051
     20          1           0       -4.759394    1.711954    0.000011
     21          1           0       -1.473780    4.525252    0.000082
     22          1           0       -3.904784    4.067171    0.000069
     23          6           0       -0.455064    0.016996   -0.000002
     24          8           0        0.386141    2.665490    0.000035
     25          1           0        1.296838    1.110390   -0.000025
 ---------------------------------------------------------------------

 SCF Done:  E(RwB97XD) =  -1028.80324530     A.U. after    1 cycles

 Alpha  occ. eigenvalues --  -89.10074 -19.21315 -14.51653 -10.41636 -10.36894
 Alpha  occ. eigenvalues --  -10.36099 -10.35908 -10.33355 -10.33016 -10.32628
 Alpha  occ. eigenvalues --  -10.32315 -10.31139 -10.30636 -10.30604 -10.29076
 Alpha  occ. eigenvalues --  -10.28539  -8.12081  -6.06972  -6.06579  -6.06085
 Alpha  occ. eigenvalues --   -1.13336  -1.10148  -0.98638  -0.95213  -0.93239
 Alpha  occ. eigenvalues --   -0.89273  -0.86556  -0.84017  -0.81673  -0.75639
 Alpha  occ. eigenvalues --   -0.73844  -0.71760  -0.69419  -0.67852  -0.64573
 Alpha  occ. eigenvalues --   -0.60909  -0.59794  -0.56659  -0.56032  -0.55950
 Alpha  occ. eigenvalues --   -0.55022  -0.53625  -0.52978  -0.50412  -0.49501
 Alpha  occ. eigenvalues --   -0.49032  -0.48234  -0.46716  -0.45638  -0.44741
 Alpha  occ. eigenvalues --   -0.44545  -0.42939  -0.41784  -0.40431  -0.36892
 Alpha  occ. eigenvalues --   -0.33601  -0.31682  -0.31479  -0.26213
 Alpha virt. eigenvalues --   -0.01300   0.03741   0.06047   0.06788   0.09464
 Alpha virt. eigenvalues --    0.11194   0.13017   0.14625   0.15969   0.17090
 Alpha virt. eigenvalues --    0.18600   0.19883   0.21122   0.21630   0.23081

 Mulliken charges:
               1
     1  C    0.011687
     2  C   -0.246668
     3  C    0.236743
     4  C   -0.011006
     5  C    0.012346
     6  C    0.002745
     7  H    0.024949
     8  H    0.031983
     9  H    0.027607
    10  H    0.026075
    11  N   -0.093740
    12  S    0.179581
    13  C   -0.120921
    14  C   -0.007316
    15  C    0.110047
    16  C   -0.034500
    17  H    0.003560
    18  C   -0.033639
    19  C    0.028266
    20  H    0.002482
    21  H    0.001101
    22  H    0.013499
    23  C    0.092850
    24  O   -0.376433
    25  H    0.118704
 Sum of Mulliken charges =  -0.00000

 Dipole moment (field-independent basis, Debye):
    X=              2.0073    Y=             -5.1851    Z=             -0.0001  Tot=              5.5600
 Quadrupole moment (field-independent basis, Debye-Ang):
   XX=            -81.7719   YY=            -94.9843   ZZ=           -104.0184
   XY=             -6.7515   XZ=             -0.0002   YZ=              0.0000

  Exact polarizability:     289.756     -89.494     287.768      -0.001       0.003      62.954
 Approx polarizability:     267.833     -34.944     255.566      -0.001       0.002      81.967

                      1                      2                      3
                      A                      A                      A
 Frequencies --     29.3538                65.3821               110.6012
 Red. masses --      4.7587                 6.5657                 5.6681
 Frc consts  --      0.0024                 0.0165                 0.0409
 IR Inten    --      0.9701                 2.1804                 0.7906

                      4                      5                      6
                      A                      A                      A
 Frequencies --    119.7280               193.1326               230.1260
 Red. masses --      5.2359                 5.8850                 5.8845
 Frc consts  --      0.0442                 0.1293                 0.1836
 IR Inten    --      0.3289                 0.0291                 1.2219

                      7                      8                      9
                      A                      A                      A
 Frequencies --    267.5230               305.5980               315.8142
 Red. masses --      7.4938                 5.1011                 6.9372
 Frc consts  --      0.3160                 0.2807                 0.4077
 IR Inten    --      4.1091                 2.6809                 4.6493

                     10                     11                     12
                      A                      A                      A
 Frequencies --    389.9352               426.5027               444.1429
 Red. masses --      8.7855                 3.2659                 3.5292
 Frc consts  --      0.7871                 0.3500                 0.4102
 IR Inten    --      5.2574                 1.7458                10.9698

                     13                     14                     15
                      A                      A                      A
 Frequencies --    503.3971               522.7875               537.0065
 Red. masses --      7.9908                 2.5262                 8.4903
 Frc consts  --      1.1931                 0.4068                 1.4425
 IR Inten    --      9.4144                16.7146                 9.7719

                     16                     17                     18
                      A                      A                      A
 Frequencies --    550.7805               561.3570               567.6294
 Red. masses --      6.6222                 3.3124                 1.2574
 Frc consts  --      1.1836                 0.6150                 0.2387
 IR Inten    --      2.6809                 2.9256                43.2874

                     19                     20                     21
                      A                      A                      A
 Frequencies --    583.4136               642.2895               660.4240
 Red. masses --      7.2827                 4.9661                 5.9941
 Frc consts  --      1.4605                 1.2071                 1.5403
 IR Inten    --     38.3833                 9.8173                 5.0715

                     22                     23                     24
                      A                      A                      A
 Frequencies --    703.2637               739.8747               751.9676
 Red. masses --      5.9475                 7.6934                 2.8111
 Frc consts  --      1.7331                 2.4813                 0.9365
 IR Inten    --     45.4802                49.1740                 8.0889

                     25                     26                     27
                      A                      A                      A
 Frequencies --    760.5274               776.6417               780.4503
 Red. masses --      1.4284                 1.5179                 2.4314
 Frc consts  --      0.4868                 0.5394                 0.8726
 IR Inten    --     47.1108                44.8186                31.4257

                     28                     29                     30
                      A                      A                      A
 Frequencies --    830.6925               876.9256               883.2789
 Red. masses --      6.2295                 1.9971                 1.3707
 Frc consts  --      2.5327                 0.9049                 0.6301
 IR Inten    --     22.7818                15.1994                 1.0615

                     31                     32                     33
                      A                      A                      A
 Frequencies --    897.2755               964.8105               968.8901
 Red. masses --      5.0342                 4.1232                 1.3211
 Frc consts  --      2.3880                 2.2614                 0.7307
 IR Inten    --      1.0027                36.5534                 0.1744

                     34                     35                     36
                      A                      A                      A
 Frequencies --    972.2996              1015.2661              1016.4628
 Red. masses --      1.3564                 1.3013                 1.3051
 Frc consts  --      0.7555                 0.7903                 0.7945
 IR Inten    --      1.4638                 0.0102                 0.3546

                     37                     38                     39
                      A                      A                      A
 Frequencies --   1044.4652              1057.8162              1087.6106
 Red. masses --      2.1337                 2.1018                 3.3462
 Frc consts  --      1.3714                 1.3857                 2.3321
 IR Inten    --      9.0118                12.4607                27.5589

                     40                     41                     42
                      A                      A                      A
 Frequencies --   1112.0484              1155.9514              1158.4278
 Red. masses --      2.1316                 1.3342                 1.2082
 Frc consts  --      1.5531                 1.0504                 0.9553
 IR Inten    --     76.9917                 1.0092                69.4558

                     43                     44                     45
                      A                      A                      A
 Frequencies --   1183.3384              1193.2800              1242.3788
 Red. masses --      1.1480                 1.1985                 2.1024
 Frc consts  --      0.9471                 1.0055                 1.9119
 IR Inten    --     23.2637                10.6713                14.7573

                     46                     47                     48
                      A                      A                      A
 Frequencies --   1288.9720              1299.6977              1365.9384
 Red. masses --      1.9198                 1.9678                 2.5756
 Frc consts  --      1.8793                 1.9584                 2.8313
 IR Inten    --     72.5234               138.0175                53.7526

                     49                     50                     51
                      A                      A                      A
 Frequencies --   1385.1600              1393.7030              1415.4571
 Red. masses --      7.2647                 6.0203                 2.2290
 Frc consts  --      8.2124                 6.8898                 2.6312
 IR Inten    --     29.3522               110.5318                10.9764

                     52                     53                     54
                      A                      A                      A
 Frequencies --   1490.6068              1506.3220              1531.9925
 Red. masses --      2.8553                 2.9927                 3.0195
 Frc consts  --      3.7379                 4.0009                 4.1754
 IR Inten    --    199.2780               692.3045               222.6935

                     55                     56                     57
                      A                      A                      A
 Frequencies --   1548.4883              1595.8207              1648.6382
 Red. masses --      4.5928                 6.7426                 6.4863
 Frc consts  --      6.4885                10.1169                10.3871
 IR Inten    --   1193.6387               116.7180                77.1458

                     58                     59                     60
                      A                      A                      A
 Frequencies --   1681.9053              1696.3943              1726.2763
 Red. masses --      7.2034                 7.7682                 8.1653
 Frc consts  --     12.0058                13.1711                14.3365
 IR Inten    --     65.8674                67.5585               393.9683

                     61                     62                     63
                      A                      A                      A
 Frequencies --   3179.5834              3191.8879              3217.8246
 Red. masses --      1.0892                 1.0878                 1.0919
 Frc consts  --      6.4879                 6.5298                 6.6614
 IR Inten    --      5.1619                14.5851                19.7159

                     64                     65                     66
                      A                      A                      A
 Frequencies --   3217.8716              3228.5514              3232.3411
 Red. masses --      1.0891                 1.0908                 1.0968
 Frc consts  --      6.6445                 6.6989                 6.7516
 IR Inten    --     10.8990                 2.0114                19.4240

                     67                     68                     69
                      A                      A                      A
 Frequencies --   3236.7102              3244.2633              3780.3909
 Red. masses --      1.0965                 1.0997                 1.0801
 Frc consts  --      6.7680                 6.8196                 9.0950
 IR Inten    --      4.0417                12.0112               142.6350

 - Thermochemistry -
 -------------------
 Temperature   298.150 Kelvin.  Pressure   1.00000 Atm.
 Atom     1 has atomic number  6 and mass  12.00000

 Molecular mass:   227.04049 amu.
 Principal axes and moments of inertia in atomic units:
                           1         2         3
     Eigenvalues --  1293.204876377.023077670.22794
           X           -0.70583   0.70838   0.00000
           Y            0.70838   0.70583  -0.00001
           Z            0.00001   0.00000   1.00000
 This molecule is an asymmetric top.
 Rotational symmetry number  1.
 Warning -- assumption of classical behavior for rotation
           may cause significant error
 Rotational temperatures (Kelvin)      0.06698     0.01358     0.01129
 Rotational constants (GHZ):           1.39556     0.28301     0.23529
 Zero-point vibrational energy     498278.5 (Joules/Mol)
                                  119.09143 (Kcal/Mol)
 Warning -- explicit consideration of  19 degrees of freedom as
           vibrations may cause significant error
 Vibrational temperatures:     42.23    94.07   159.13   172.26   277.87
          (Kelvin)            331.10   384.91   439.69   454.39   561.03
                              613.64   639.02   724.28   752.17   772.63
                              792.45   807.67   816.69   839.40   924.11
                              950.20  1011.84  1064.51  1081.91  1094.23
                             1117.41  1122.89  1195.18  1261.70  1270.84
                             1290.98  1388.15  1394.02  1398.92  1460.74
                             1462.46  1502.75  1521.96  1564.83  1599.99
                             1663.16  1666.72  1702.56  1716.86  1787.51
                             1854.54  1869.98  1965.28  1992.94  2005.23
                             2036.53  2144.65  2167.26  2204.20  2227.93
                             2296.03  2372.02  2419.89  2440.73  2483.73
                             4574.71  4592.41  4629.73  4629.80  4645.17
                             4650.62  4656.90  4667.77  5439.14

 Zero-point correction=                           0.189784 (Hartree/Particle)
 Thermal correction to Energy=                    0.201843
 Thermal correction to Enthalpy=                  0.202787
 Thermal correction to Gibbs Free Energy=         0.150411
 Sum of electronic and zero-point Energies=          -1028.613461
 Sum of electronic and thermal Energies=             -1028.601403
 Sum of electronic and thermal Enthalpies=           -1028.600458
 Sum of electronic and thermal Free Energies=        -1028.652834

                     E (Thermal)             CV                S
                      KCal/Mol        Cal/Mol-Kelvin    Cal/Mol-Kelvin
 Total                  126.658             48.667            110.234
 Electronic               0.000              0.000              0.000
 Translational            0.889              2.981             42.162
 Rotational               0.889              2.981             32.514
 Vibrational            124.881             42.706             35.558
 Vibration     1          0.593              1.984              5.873
 Vibration     2          0.597              1.971              4.288
 Vibration     3          0.606              1.941              3.258
 Vibration     4          0.609              1.933              3.105
 Vibration     5          0.635              1.849              2.198
 Vibration     6          0.652              1.795              1.878
 Vibration     7          0.673              1.733              1.612
 Vibration     8          0.696              1.663              1.386
 Vibration     9          0.703              1.643              1.332
 Vibration    10          0.758              1.492              1.000
 Vibration    11          0.788              1.413              0.870
 Vibration    12          0.804              1.374              0.814
 Vibration    13          0.859              1.242              0.650
 Vibration    14          0.878              1.200              0.604
 Vibration    15          0.892              1.168              0.572
 Vibration    16          0.906              1.138              0.543
 Vibration    17          0.917              1.115              0.521
 Vibration    18          0.924              1.101              0.509
 Vibration    19          0.940              1.067              0.479

                           ! Non-Optimized Parameters !
 Normal termination of Gaussian 16 at Tue Oct 27 22:30:09 2020.
