 Gaussian 16, Revision C.01,
 Gaussian 16:  ES64L-G16RevC.01  3-Jul-2019

 ----------------------------------------------------------------------
 #p opt=addgic freq wb97xd/cc-pvdz nosymm int=ultrafine scrf=(solvent=C
 arbonTetraChloride)
 ----------------------------------------------------------------------

 ------------------------------------------------
 NM 2D-scan of HBT TD-WB97XD pVDZ in CTC Relaxed.
 ------------------------------------------------
 Symbolic Z-matrix:
 Charge =  0 Multiplicity = 1

 SCF Done:  E(RwB97XD) =  -1028.81150007     A.U. after   15 cycles
 SCF Done:  E(RwB97XD) =  -1028.81945951     A.U. after   13 cycles
 SCF Done:  E(RwB97XD) =  -1028.82009801     A.U. after   12 cycles
 SCF Done:  E(RwB97XD) =  -1028.82043584     A.U. after   12 cycles
 SCF Done:  E(RwB97XD) =  -1028.82084984     A.U. after   11 cycles
 SCF Done:  E(RwB97XD) =  -1028.82085877     A.U. after   10 cycles
 SCF Done:  E(RwB97XD) =  -1028.82083365     A.U. after   11 cycles
 SCF Done:  E(RwB97XD) =  -1028.82086008     A.U. after   10 cycles
 SCF Done:  E(RwB97XD) =  -1028.82086098     A.U. after    9 cycles
 Optimization completed.
    -- Stationary point found.
 Normal termination of Gaussian 16 at Wed Oct 28 01:31:21 2020.

 --------------------------------------------------------------------
 #P Geom=AllCheck Guess=TCheck SCRF=Check GenChk RwB97XD/CC-pVDZ Freq
 --------------------------------------------------------------------

 Structure from the checkpoint file:  "config_5_16.chk"
 ------------------------------------------------
 NM 2D-scan of HBT TD-WB97XD pVDZ in CTC Relaxed.
 ------------------------------------------------
 Charge =  0 Multiplicity = 1

                          Input orientation:
 ---------------------------------------------------------------------
 Center     Atomic      Atomic             Coordinates (Angstroms)
 Number     Number       Type             X           Y           Z
 ---------------------------------------------------------------------
      1          6           0        1.547595   -3.247591   -0.000110
      2          6           0        1.007907   -1.966366   -0.000073
      3          6           0        1.784436   -0.798235    0.000014
      4          6           0        3.181603   -0.932704    0.000058
      5          6           0        3.730044   -2.215749    0.000021
      6          6           0        2.927839   -3.366415   -0.000060
      7          1           0        0.898768   -4.123782   -0.000169
      8          1           0        3.823497   -0.051088    0.000124
      9          1           0        4.815682   -2.324627    0.000060
     10          1           0        3.389404   -4.354575   -0.000081
     11          7           0        0.994411    0.355396    0.000058
     12         16           0       -0.688939   -1.582979   -0.000096
     13          6           0       -1.324631    1.107141    0.000042
     14          6           0       -2.678479    0.759398    0.000101
     15          6           0       -0.896907    2.454966   -0.000008
     16          6           0       -3.658890    1.737770    0.000098
     17          1           0       -2.967581   -0.294082    0.000160
     18          6           0       -1.914072    3.442659   -0.000024
     19          6           0       -3.259196    3.079951    0.000026
     20          1           0       -4.714498    1.466359    0.000148
     21          1           0       -1.623400    4.494210   -0.000081
     22          1           0       -4.018112    3.865368    0.000010
     23          6           0       -0.292922    0.091675    0.000016
     24          8           0        0.392655    2.717236   -0.000063
     25          1           0        0.912014    1.784953   -0.000063
 ---------------------------------------------------------------------

 SCF Done:  E(RwB97XD) =  -1028.82086098     A.U. after    1 cycles

 Alpha  occ. eigenvalues --  -89.08715 -19.26458 -14.47699 -10.39499 -10.37061
 Alpha  occ. eigenvalues --  -10.35663 -10.34771 -10.32359 -10.32175 -10.31785
 Alpha  occ. eigenvalues --  -10.31721 -10.31716 -10.31491 -10.31381 -10.30086
 Alpha  occ. eigenvalues --  -10.30046  -8.10896  -6.05735  -6.05372  -6.04948
 Alpha  occ. eigenvalues --   -1.15389  -1.09256  -0.97512  -0.96228  -0.92292
 Alpha  occ. eigenvalues --   -0.88707  -0.85772  -0.84285  -0.83025  -0.75584
 Alpha  occ. eigenvalues --   -0.71593  -0.70801  -0.69341  -0.67999  -0.63447
 Alpha  occ. eigenvalues --   -0.60838  -0.59161  -0.58226  -0.56299  -0.54570
 Alpha  occ. eigenvalues --   -0.54569  -0.53498  -0.52840  -0.50934  -0.50109
 Alpha  occ. eigenvalues --   -0.49400  -0.46986  -0.46212  -0.45410  -0.45139
 Alpha  occ. eigenvalues --   -0.44172  -0.42829  -0.42693  -0.40061  -0.36319
 Alpha  occ. eigenvalues --   -0.36292  -0.32352  -0.31635  -0.28812
 Alpha virt. eigenvalues --   -0.00575   0.04653   0.06659   0.07455   0.07935
 Alpha virt. eigenvalues --    0.11226   0.14749   0.15162   0.17233   0.17986
 Alpha virt. eigenvalues --    0.19035   0.21023   0.21709   0.22471   0.22668

 Mulliken charges:
               1
     1  C    0.019475
     2  C   -0.218493
     3  C    0.238812
     4  C   -0.018519
     5  C    0.003244
     6  C    0.004584
     7  H    0.019158
     8  H    0.023223
     9  H    0.022042
    10  H    0.022406
    11  N   -0.347883
    12  S    0.160398
    13  C   -0.057325
    14  C   -0.031341
    15  C    0.091516
    16  C   -0.010631
    17  H    0.018697
    18  C   -0.010674
    19  C    0.021668
    20  H    0.008104
    21  H    0.013976
    22  H    0.018201
    23  C    0.084369
    24  O   -0.261428
    25  H    0.186423
 Sum of Mulliken charges =  -0.00000

 Dipole moment (field-independent basis, Debye):
    X=              0.1047    Y=             -3.3132    Z=             -0.0000  Tot=              3.3148
 Quadrupole moment (field-independent basis, Debye-Ang):
   XX=            -82.6363   YY=            -91.0225   ZZ=           -103.9431
   XY=             -7.3074   XZ=             -0.0000   YZ=              0.0002

  Exact polarizability:     274.677     -69.511     255.699      -0.000       0.002      62.813
 Approx polarizability:     262.034     -24.081     242.478       0.001       0.002      82.133

 ******    1 imaginary frequencies (negative Signs) ******

                      1                      2                      3
                      A                      A                      A
 Frequencies --    -30.4247                65.9964               129.0011
 Red. masses --      5.3605                 6.0983                 5.5560
 Frc consts  --      0.0029                 0.0156                 0.0545
 IR Inten    --      0.0339                 1.2366                 5.1229

                      4                      5                      6
                      A                      A                      A
 Frequencies --    151.6531               197.2915               243.2609
 Red. masses --      5.0613                 6.1581                 5.5673
 Frc consts  --      0.0686                 0.1412                 0.1941
 IR Inten    --      0.3297                 0.5640                 0.0851

                      7                      8                      9
                      A                      A                      A
 Frequencies --    279.0707               329.4423               332.3541
 Red. masses --      7.2757                 5.1367                 5.8240
 Frc consts  --      0.3339                 0.3285                 0.3790
 IR Inten    --      0.8194                 0.0897                25.8385

                     10                     11                     12
                      A                      A                      A
 Frequencies --    426.7915               435.4873               461.6889
 Red. masses --     10.7405                 3.0936                 3.5572
 Frc consts  --      1.1527                 0.3457                 0.4467
 IR Inten    --      0.0852                 1.5246                 8.4244

                     13                     14                     15
                      A                      A                      A
 Frequencies --    511.2082               523.3044               537.2419
 Red. masses --      6.1964                 7.1766                 3.4396
 Frc consts  --      0.9541                 1.1579                 0.5849
 IR Inten    --     22.1419                19.2476                 3.4007

                     16                     17                     18
                      A                      A                      A
 Frequencies --    565.3382               576.2705               589.9423
 Red. masses --      7.0372                 3.7219                 7.6019
 Frc consts  --      1.3251                 0.7282                 1.5588
 IR Inten    --      8.5781                 0.0628                 1.6490

                     19                     20                     21
                      A                      A                      A
 Frequencies --    648.2216               687.0367               735.1083
 Red. masses --      6.3756                 6.4710                 6.4790
 Frc consts  --      1.5784                 1.7996                 2.0628
 IR Inten    --      0.0090                 6.4492                20.0682

                     22                     23                     24
                      A                      A                      A
 Frequencies --    755.9584               768.8154               773.6580
 Red. masses --      2.0251                 2.7088                 1.4855
 Frc consts  --      0.6818                 0.9434                 0.5239
 IR Inten    --     27.2946                 6.1429                52.0410

                     25                     26                     27
                      A                      A                      A
 Frequencies --    774.1078               784.1705               857.2631
 Red. masses --      9.4910                 1.9137                 6.0000
 Frc consts  --      3.3509                 0.6933                 2.5980
 IR Inten    --     23.4423                43.9238                13.2694

                     28                     29                     30
                      A                      A                      A
 Frequencies --    880.3601               886.4865               903.8779
 Red. masses --      1.5776                 1.4012                 6.8001
 Frc consts  --      0.7204                 0.6488                 3.2733
 IR Inten    --      5.6753                 0.4086                10.7905

                     31                     32                     33
                      A                      A                      A
 Frequencies --    964.7300               974.9595              1010.5767
 Red. masses --      1.3644                 1.3651                 1.3039
 Frc consts  --      0.7482                 0.7645                 0.7845
 IR Inten    --      1.1745                 1.4262                 0.1880

                     34                     35                     36
                      A                      A                      A
 Frequencies --   1015.3958              1016.8418              1052.4678
 Red. masses --      1.3057                 7.6004                 2.0079
 Frc consts  --      0.7931                 4.6301                 1.3104
 IR Inten    --      0.0000                45.7259                10.1111

                     37                     38                     39
                      A                      A                      A
 Frequencies --   1066.6424              1081.5938              1108.4417
 Red. masses --      1.8647                 1.0594                 3.2295
 Frc consts  --      1.2499                 0.7302                 2.3378
 IR Inten    --      7.2736                72.5992                 4.7817

                     40                     41                     42
                      A                      A                      A
 Frequencies --   1155.1620              1160.9833              1172.9583
 Red. masses --      1.4364                 1.3985                 1.1487
 Frc consts  --      1.1293                 1.1107                 0.9312
 IR Inten    --     15.3005                 2.1830                31.7761

                     43                     44                     45
                      A                      A                      A
 Frequencies --   1183.4995              1260.7079              1282.1138
 Red. masses --      1.2604                 1.9705                 2.5874
 Frc consts  --      1.0402                 1.8452                 2.5059
 IR Inten    --      1.7929                49.4625               103.3366

                     46                     47                     48
                      A                      A                      A
 Frequencies --   1293.7014              1311.4242              1362.1532
 Red. masses --      1.8070                 3.0331                 3.8289
 Frc consts  --      1.7818                 3.0734                 4.1857
 IR Inten    --    106.6788               152.3183                13.6761

                     49                     50                     51
                      A                      A                      A
 Frequencies --   1376.8420              1382.7873              1483.0195
 Red. masses --      3.6891                 7.5535                 3.0767
 Frc consts  --      4.1204                 8.5096                 3.9868
 IR Inten    --     14.4728                 5.3963                10.6539

                     52                     53                     54
                      A                      A                      A
 Frequencies --   1488.8805              1494.6504              1515.0615
 Red. masses --      2.5469                 2.7135                 3.6503
 Frc consts  --      3.3264                 3.5716                 4.9367
 IR Inten    --     50.6514                19.0529                54.7490

                     55                     56                     57
                      A                      A                      A
 Frequencies --   1575.3918              1621.6560              1654.1886
 Red. masses --      6.1802                 3.9697                 6.9331
 Frc consts  --      9.0371                 6.1507                11.1776
 IR Inten    --    269.9601                 3.9696                34.7901

                     58                     59                     60
                      A                      A                      A
 Frequencies --   1673.5440              1697.5688              1764.8471
 Red. masses --      6.4972                 7.1222                 1.4230
 Frc consts  --     10.7214                12.0926                 2.6114
 IR Inten    --    143.4957               237.2890               508.4210

                     61                     62                     63
                      A                      A                      A
 Frequencies --   2030.2272              3200.8061              3207.7337
 Red. masses --      1.1560                 1.0880                 1.0892
 Frc consts  --      2.8073                 6.5675                 6.6033
 IR Inten    --   1558.4582                 3.3491                 8.2328

                     64                     65                     66
                      A                      A                      A
 Frequencies --   3210.4617              3220.5458              3226.7825
 Red. masses --      1.0862                 1.0905                 1.0938
 Frc consts  --      6.5960                 6.6639                 6.7100
 IR Inten    --      1.7014                 2.4664                15.3510

                     67                     68                     69
                      A                      A                      A
 Frequencies --   3230.0086              3236.8067              3237.1244
 Red. masses --      1.0958                 1.0989                 1.0999
 Frc consts  --      6.7360                 6.7834                 6.7910
 IR Inten    --      8.0988                22.8224                 8.2898

 - Thermochemistry -
 -------------------
 Temperature   298.150 Kelvin.  Pressure   1.00000 Atm.
 Atom     1 has atomic number  6 and mass  12.00000

 Molecular mass:   227.04049 amu.
 Principal axes and moments of inertia in atomic units:
                           1         2         3
     Eigenvalues --  1266.381736262.265897528.64761
           X           -0.70673   0.70748  -0.00000
           Y            0.70748   0.70673  -0.00001
           Z            0.00001   0.00001   1.00000
 This molecule is an asymmetric top.
 Rotational symmetry number  1.
 Warning -- assumption of classical behavior for rotation
           may cause significant error
 Rotational temperatures (Kelvin)      0.06839     0.01383     0.01150
 Rotational constants (GHZ):           1.42512     0.28819     0.23972
    1 imaginary frequencies ignored.
 Zero-point vibrational energy     495335.9 (Joules/Mol)
                                  118.38812 (Kcal/Mol)
 Warning -- explicit consideration of  17 degrees of freedom as
           vibrations may cause significant error
 Vibrational temperatures:     94.95   185.60   218.19   283.86   350.00
          (Kelvin)            401.52   473.99   478.18   614.06   626.57
                              664.27   735.51   752.92   772.97   813.40
                              829.12   848.80   932.65   988.49  1057.66
                             1087.66  1106.15  1113.12  1113.77  1128.25
                             1233.41  1266.64  1275.46  1300.48  1388.03
                             1402.75  1453.99  1460.93  1463.01  1514.27
                             1534.66  1556.17  1594.80  1662.02  1670.40
                             1687.63  1702.79  1813.88  1844.68  1861.35
                             1886.85  1959.83  1980.97  1989.52  2133.73
                             2142.17  2150.47  2179.84  2266.64  2333.20
                             2380.01  2407.86  2442.42  2539.22  2921.04
                             4605.25  4615.21  4619.14  4633.65  4642.62
                             4647.26  4657.04  4657.50

 Zero-point correction=                           0.188663 (Hartree/Particle)
 Thermal correction to Energy=                    0.199349
 Thermal correction to Enthalpy=                  0.200293
 Thermal correction to Gibbs Free Energy=         0.151752
 Sum of electronic and zero-point Energies=          -1028.632197
 Sum of electronic and thermal Energies=             -1028.621512
 Sum of electronic and thermal Enthalpies=           -1028.620568
 Sum of electronic and thermal Free Energies=        -1028.669109

                     E (Thermal)             CV                S
                      KCal/Mol        Cal/Mol-Kelvin    Cal/Mol-Kelvin
 Total                  125.093             44.990            102.162
 Electronic               0.000              0.000              0.000
 Translational            0.889              2.981             42.162
 Rotational               0.889              2.981             32.457
 Vibrational            123.316             39.028             27.543
 Vibration     1          0.597              1.970              4.269
 Vibration     2          0.611              1.924              2.961
 Vibration     3          0.619              1.901              2.651
 Vibration     4          0.637              1.844              2.158
 Vibration     5          0.659              1.774              1.779
 Vibration     6          0.679              1.712              1.539
 Vibration     7          0.712              1.617              1.263
 Vibration     8          0.714              1.611              1.249
 Vibration     9          0.788              1.412              0.869
 Vibration    10          0.796              1.393              0.841
 Vibration    11          0.819              1.335              0.761
 Vibration    12          0.866              1.225              0.631
 Vibration    13          0.878              1.198              0.602
 Vibration    14          0.892              1.168              0.571
 Vibration    15          0.921              1.106              0.513
 Vibration    16          0.933              1.083              0.492
 Vibration    17          0.947              1.053              0.467

 Optimization completed.
    -- Stationary point found.
 Normal termination of Gaussian 16 at Wed Oct 28 01:38:32 2020.
