 Gaussian 16, Revision C.01,
 Gaussian 16:  ES64L-G16RevC.01  3-Jul-2019

 ----------------------------------------------------------------------
 #p opt=addgic freq wb97xd/cc-pvdz nosymm int=ultrafine scrf=(solvent=C
 arbonTetraChloride)
 ----------------------------------------------------------------------

 ------------------------------------------------
 NM 2D-scan of HBT TD-WB97XD pVDZ in CTC Relaxed.
 ------------------------------------------------
 Symbolic Z-matrix:
 Charge =  0 Multiplicity = 1

 SCF Done:  E(RwB97XD) =  -1028.74394795     A.U. after   16 cycles
 SCF Done:  E(RwB97XD) =  -1028.79676508     A.U. after   13 cycles
 SCF Done:  E(RwB97XD) =  -1028.80766126     A.U. after   13 cycles
 SCF Done:  E(RwB97XD) =  -1028.80864806     A.U. after   12 cycles
 SCF Done:  E(RwB97XD) =  -1028.80868100     A.U. after   11 cycles
 SCF Done:  E(RwB97XD) =  -1028.80868351     A.U. after    9 cycles
 SCF Done:  E(RwB97XD) =  -1028.80868378     A.U. after    9 cycles
 Optimization completed.
    -- Stationary point found.
 Normal termination of Gaussian 16 at Wed Oct 28 00:08:38 2020.

 --------------------------------------------------------------------
 #P Geom=AllCheck Guess=TCheck SCRF=Check GenChk RwB97XD/CC-pVDZ Freq
 --------------------------------------------------------------------

 Structure from the checkpoint file:  "config_10_15.chk"
 ------------------------------------------------
 NM 2D-scan of HBT TD-WB97XD pVDZ in CTC Relaxed.
 ------------------------------------------------
 Charge =  0 Multiplicity = 1

                          Input orientation:
 ---------------------------------------------------------------------
 Center     Atomic      Atomic             Coordinates (Angstroms)
 Number     Number       Type             X           Y           Z
 ---------------------------------------------------------------------
      1          6           0        1.573372   -3.275103   -0.000056
      2          6           0        0.999467   -2.009610   -0.000028
      3          6           0        1.778376   -0.854541    0.000004
      4          6           0        3.171336   -0.935640    0.000011
      5          6           0        3.747815   -2.205195   -0.000019
      6          6           0        2.961816   -3.363007   -0.000052
      7          1           0        0.951538   -4.170376   -0.000081
      8          1           0        3.785378   -0.034675    0.000037
      9          1           0        4.834990   -2.292885   -0.000015
     10          1           0        3.439388   -4.343230   -0.000074
     11          7           0        0.974816    0.277327    0.000029
     12         16           0       -0.712895   -1.605082   -0.000023
     13          6           0       -1.329237    1.117306    0.000037
     14          6           0       -2.712710    0.785961    0.000047
     15          6           0       -0.874750    2.503599    0.000057
     16          6           0       -3.677363    1.757068    0.000057
     17          1           0       -3.011561   -0.266264    0.000047
     18          6           0       -1.953860    3.486472    0.000010
     19          6           0       -3.274441    3.123564    0.000030
     20          1           0       -4.734703    1.492068    0.000069
     21          1           0       -1.659176    4.537739   -0.000033
     22          1           0       -4.044014    3.899968    0.000018
     23          6           0       -0.357827    0.097437    0.000015
     24          8           0        0.337572    2.802416   -0.000049
     25          1           0        1.352073    1.213276    0.000055
 ---------------------------------------------------------------------

 SCF Done:  E(RwB97XD) =  -1028.80868378     A.U. after    1 cycles

 Alpha  occ. eigenvalues --  -89.09784 -19.21353 -14.52207 -10.41378 -10.37260
 Alpha  occ. eigenvalues --  -10.36043 -10.35820 -10.33215 -10.33052 -10.32567
 Alpha  occ. eigenvalues --  -10.32278 -10.31135 -10.30723 -10.30343 -10.29138
 Alpha  occ. eigenvalues --  -10.28623  -8.11862  -6.06742  -6.06357  -6.05868
 Alpha  occ. eigenvalues --   -1.12974  -1.09904  -0.98609  -0.95488  -0.93269
 Alpha  occ. eigenvalues --   -0.89203  -0.86715  -0.83816  -0.81794  -0.75534
 Alpha  occ. eigenvalues --   -0.73545  -0.72067  -0.69186  -0.67923  -0.64754
 Alpha  occ. eigenvalues --   -0.60917  -0.59736  -0.56709  -0.55943  -0.55939
 Alpha  occ. eigenvalues --   -0.55024  -0.53835  -0.52996  -0.50157  -0.49528
 Alpha  occ. eigenvalues --   -0.49002  -0.48307  -0.46762  -0.45638  -0.44763
 Alpha  occ. eigenvalues --   -0.44505  -0.42924  -0.41889  -0.40404  -0.36861
 Alpha  occ. eigenvalues --   -0.33571  -0.31636  -0.31559  -0.26259
 Alpha virt. eigenvalues --   -0.01253   0.03800   0.05836   0.06991   0.09399
 Alpha virt. eigenvalues --    0.11275   0.14004   0.14746   0.16109   0.17226
 Alpha virt. eigenvalues --    0.18328   0.19878   0.20968   0.21564   0.22895

 Mulliken charges:
               1
     1  C    0.016917
     2  C   -0.235472
     3  C    0.237975
     4  C   -0.011137
     5  C    0.009654
     6  C    0.004193
     7  H    0.024035
     8  H    0.030237
     9  H    0.027163
    10  H    0.025889
    11  N   -0.122382
    12  S    0.180677
    13  C   -0.096905
    14  C   -0.017024
    15  C    0.100515
    16  C   -0.032033
    17  H    0.010623
    18  C   -0.032745
    19  C    0.027902
    20  H    0.002183
    21  H    0.001981
    22  H    0.013851
    23  C    0.084622
    24  O   -0.376578
    25  H    0.125860
 Sum of Mulliken charges =  -0.00000

 Dipole moment (field-independent basis, Debye):
    X=              1.9348    Y=             -5.3358    Z=              0.0001  Tot=              5.6758
 Quadrupole moment (field-independent basis, Debye-Ang):
   XX=            -81.4997   YY=            -95.9224   ZZ=           -103.9873
   XY=             -6.5972   XZ=              0.0001   YZ=              0.0006

  Exact polarizability:     287.960     -88.753     286.342      -0.002       0.002      62.865
 Approx polarizability:     266.063     -33.367     255.044      -0.001       0.001      81.883

                      1                      2                      3
                      A                      A                      A
 Frequencies --     54.4509                60.2311               108.7113
 Red. masses --      4.5028                 6.5170                 5.7284
 Frc consts  --      0.0079                 0.0139                 0.0399
 IR Inten    --      0.8258                 1.7367                 1.4281

                      4                      5                      6
                      A                      A                      A
 Frequencies --    128.0969               194.8376               227.2333
 Red. masses --      5.4991                 6.1703                 5.8325
 Frc consts  --      0.0532                 0.1380                 0.1774
 IR Inten    --      1.3286                 0.0105                 0.8650

                      7                      8                      9
                      A                      A                      A
 Frequencies --    266.4316               298.4275               307.6974
 Red. masses --      7.8835                 6.8659                 5.2842
 Frc consts  --      0.3297                 0.3603                 0.2948
 IR Inten    --      6.2123                 2.3140                 1.1968

                     10                     11                     12
                      A                      A                      A
 Frequencies --    399.8754               427.0162               445.9674
 Red. masses --      8.7008                 3.2886                 3.5059
 Frc consts  --      0.8197                 0.3533                 0.4108
 IR Inten    --      4.0187                 0.1181                10.1451

                     13                     14                     15
                      A                      A                      A
 Frequencies --    508.2191               522.1681               535.0565
 Red. masses --      8.3109                 2.6768                 7.4659
 Frc consts  --      1.2647                 0.4300                 1.2593
 IR Inten    --     10.5111                 7.2720                 7.6943

                     16                     17                     18
                      A                      A                      A
 Frequencies --    548.1921               561.8147               582.1290
 Red. masses --      6.9119                 3.8249                 7.2415
 Frc consts  --      1.2238                 0.7113                 1.4458
 IR Inten    --      8.1690                 0.0930                37.9606

                     19                     20                     21
                      A                      A                      A
 Frequencies --    622.0619               655.6631               680.9596
 Red. masses --      2.7068                 6.0528                 1.4126
 Frc consts  --      0.6171                 1.5331                 0.3859
 IR Inten    --     12.5580                 3.7140                60.3031

                     22                     23                     24
                      A                      A                      A
 Frequencies --    717.3511               741.1315               751.8711
 Red. masses --      5.8022                 7.6308                 2.5634
 Frc consts  --      1.7592                 2.4695                 0.8538
 IR Inten    --     51.2087                59.9526                19.2568

                     25                     26                     27
                      A                      A                      A
 Frequencies --    759.4740               774.8989               780.9883
 Red. masses --      1.4172                 1.5803                 2.4660
 Frc consts  --      0.4816                 0.5591                 0.8862
 IR Inten    --     43.3442                45.2288                23.3874

                     28                     29                     30
                      A                      A                      A
 Frequencies --    834.7524               877.0581               880.3902
 Red. masses --      6.2287                 2.0376                 4.5059
 Frc consts  --      2.5572                 0.9235                 2.0577
 IR Inten    --     18.4829                17.0994                 1.7281

                     31                     32                     33
                      A                      A                      A
 Frequencies --    882.6042               965.1393               965.9109
 Red. masses --      1.3756                 1.3233                 4.3709
 Frc consts  --      0.6314                 0.7262                 2.4027
 IR Inten    --      0.8000                 0.1069                33.6634

                     34                     35                     36
                      A                      A                      A
 Frequencies --    970.0110              1013.3653              1018.3655
 Red. masses --      1.3606                 1.3036                 1.3072
 Frc consts  --      0.7543                 0.7887                 0.7987
 IR Inten    --      1.5637                 0.0107                 0.3553

                     37                     38                     39
                      A                      A                      A
 Frequencies --   1040.1377              1057.9135              1093.0723
 Red. masses --      2.1368                 2.0915                 3.4390
 Frc consts  --      1.3621                 1.3791                 2.4209
 IR Inten    --     13.8141                12.1864                20.7352

                     40                     41                     42
                      A                      A                      A
 Frequencies --   1130.3745              1160.7742              1163.2289
 Red. masses --      1.9501                 1.3638                 1.2092
 Frc consts  --      1.4681                 1.0827                 0.9640
 IR Inten    --     65.2650                 4.9231                76.1582

                     43                     44                     45
                      A                      A                      A
 Frequencies --   1180.2695              1196.9195              1246.6035
 Red. masses --      1.1433                 1.2489                 1.9921
 Frc consts  --      0.9383                 1.0542                 1.8239
 IR Inten    --     18.1898                20.0845                 9.3348

                     46                     47                     48
                      A                      A                      A
 Frequencies --   1287.6807              1298.6617              1356.1546
 Red. masses --      1.9209                 2.2173                 2.7976
 Frc consts  --      1.8766                 2.2032                 3.0314
 IR Inten    --     49.1826               129.2074                19.8792

                     49                     50                     51
                      A                      A                      A
 Frequencies --   1385.9205              1398.2339              1415.2945
 Red. masses --      5.8183                 5.3992                 2.2665
 Frc consts  --      6.5845                 6.2193                 2.6749
 IR Inten    --    146.0823                40.4820                 6.4192

                     52                     53                     54
                      A                      A                      A
 Frequencies --   1492.0725              1506.3803              1523.6472
 Red. masses --      2.7458                 2.8799                 3.1609
 Frc consts  --      3.6016                 3.8504                 4.3234
 IR Inten    --     11.0811               360.5801                28.3748

                     55                     56                     57
                      A                      A                      A
 Frequencies --   1555.5774              1601.6722              1648.8161
 Red. masses --      4.5982                 6.7876                 7.0075
 Frc consts  --      6.5557                10.2592                11.2243
 IR Inten    --   1908.6910               136.8492               133.9288

                     58                     59                     60
                      A                      A                      A
 Frequencies --   1680.0069              1682.2897              1720.1660
 Red. masses --      7.3451                 7.1939                 7.7519
 Frc consts  --     12.2144                11.9955                13.5145
 IR Inten    --      2.5683               106.8982               412.0739

                     61                     62                     63
                      A                      A                      A
 Frequencies --   3184.8007              3194.4650              3216.2168
 Red. masses --      1.0886                 1.0878                 1.0863
 Frc consts  --      6.5053                 6.5402                 6.6206
 IR Inten    --      3.1804                14.2270                 1.1844

                     64                     65                     66
                      A                      A                      A
 Frequencies --   3218.3661              3226.2604              3232.2943
 Red. masses --      1.0949                 1.0907                 1.0974
 Frc consts  --      6.6818                 6.6889                 6.7552
 IR Inten    --     30.8627                 2.5729                18.9757

                     67                     68                     69
                      A                      A                      A
 Frequencies --   3235.0109              3241.7460              3628.4487
 Red. masses --      1.0960                 1.0999                 1.0817
 Frc consts  --      6.7579                 6.8105                 8.3906
 IR Inten    --      4.9795                11.2535               149.9217

 - Thermochemistry -
 -------------------
 Temperature   298.150 Kelvin.  Pressure   1.00000 Atm.
 Atom     1 has atomic number  6 and mass  12.00000

 Molecular mass:   227.04049 amu.
 Principal axes and moments of inertia in atomic units:
                           1         2         3
     Eigenvalues --  1281.846276378.705747660.55201
           X           -0.70391   0.71029   0.00001
           Y            0.71029   0.70391  -0.00001
           Z            0.00001   0.00000   1.00000
 This molecule is an asymmetric top.
 Rotational symmetry number  1.
 Warning -- assumption of classical behavior for rotation
           may cause significant error
 Rotational temperatures (Kelvin)      0.06757     0.01358     0.01131
 Rotational constants (GHZ):           1.40792     0.28293     0.23559
 Zero-point vibrational energy     498053.4 (Joules/Mol)
                                  119.03762 (Kcal/Mol)
 Warning -- explicit consideration of  18 degrees of freedom as
           vibrations may cause significant error
 Vibrational temperatures:     78.34    86.66   156.41   184.30   280.33
          (Kelvin)            326.94   383.34   429.37   442.71   575.33
                              614.38   641.65   731.21   751.28   769.83
                              788.73   808.33   837.55   895.01   943.35
                              979.75  1032.11  1066.32  1081.77  1092.71
                             1114.91  1123.67  1201.02  1261.89  1266.69
                             1269.87  1388.62  1389.73  1395.63  1458.01
                             1465.20  1496.53  1522.10  1572.69  1626.36
                             1670.10  1673.63  1698.14  1722.10  1793.58
                             1852.69  1868.48  1951.20  1994.03  2011.75
                             2036.29  2146.76  2167.35  2192.19  2238.13
                             2304.45  2372.28  2417.16  2420.44  2474.94
                             4582.22  4596.12  4627.42  4630.51  4641.87
                             4650.55  4654.46  4664.15  5220.53

 Zero-point correction=                           0.189699 (Hartree/Particle)
 Thermal correction to Energy=                    0.201663
 Thermal correction to Enthalpy=                  0.202607
 Thermal correction to Gibbs Free Energy=         0.150835
 Sum of electronic and zero-point Energies=          -1028.618985
 Sum of electronic and thermal Energies=             -1028.607021
 Sum of electronic and thermal Enthalpies=           -1028.606077
 Sum of electronic and thermal Free Energies=        -1028.657849

                     E (Thermal)             CV                S
                      KCal/Mol        Cal/Mol-Kelvin    Cal/Mol-Kelvin
 Total                  126.545             48.460            108.964
 Electronic               0.000              0.000              0.000
 Translational            0.889              2.981             42.162
 Rotational               0.889              2.981             32.504
 Vibrational            124.768             42.498             34.298
 Vibration     1          0.596              1.976              4.649
 Vibration     2          0.597              1.973              4.450
 Vibration     3          0.606              1.942              3.292
 Vibration     4          0.611              1.925              2.974
 Vibration     5          0.636              1.847              2.181
 Vibration     6          0.651              1.800              1.901
 Vibration     7          0.672              1.735              1.619
 Vibration     8          0.692              1.677              1.426
 Vibration     9          0.698              1.659              1.375
 Vibration    10          0.766              1.470              0.963
 Vibration    11          0.789              1.411              0.868
 Vibration    12          0.805              1.370              0.808
 Vibration    13          0.863              1.232              0.638
 Vibration    14          0.877              1.201              0.605
 Vibration    15          0.890              1.172              0.576
 Vibration    16          0.903              1.144              0.548
 Vibration    17          0.918              1.114              0.520
 Vibration    18          0.939              1.070              0.481

 Optimization completed.
    -- Stationary point found.
 Normal termination of Gaussian 16 at Wed Oct 28 00:14:44 2020.
