 Gaussian 16, Revision C.01,
 Gaussian 16:  ES64L-G16RevC.01  3-Jul-2019

 ----------------------------------------------------------------------
 #p opt=addgic freq wb97xd/cc-pvdz nosymm int=ultrafine scrf=(solvent=C
 arbonTetraChloride)
 ----------------------------------------------------------------------

 ------------------------------------------------
 NM 2D-scan of HBT TD-WB97XD pVDZ in CTC Relaxed.
 ------------------------------------------------
 Symbolic Z-matrix:
 Charge =  0 Multiplicity = 1

 SCF Done:  E(RwB97XD) =  -1028.80478674     A.U. after   15 cycles
 SCF Done:  E(RwB97XD) =  -1028.80632748     A.U. after   14 cycles
 SCF Done:  E(RwB97XD) =  -1028.80433458     A.U. after   14 cycles
 SCF Done:  E(RwB97XD) =  -1028.81089818     A.U. after   13 cycles
 SCF Done:  E(RwB97XD) =  -1028.81207194     A.U. after   13 cycles
 SCF Done:  E(RwB97XD) =  -1028.81232456     A.U. after   12 cycles
 SCF Done:  E(RwB97XD) =  -1028.81228960     A.U. after   12 cycles
 SCF Done:  E(RwB97XD) =  -1028.81223078     A.U. after   12 cycles
 SCF Done:  E(RwB97XD) =  -1028.81235124     A.U. after   12 cycles
 SCF Done:  E(RwB97XD) =  -1028.81236911     A.U. after   10 cycles
 Optimization completed.
    -- Stationary point found.
 Normal termination of Gaussian 16 at Tue Oct 27 20:37:38 2020.

 --------------------------------------------------------------------
 #P Geom=AllCheck Guess=TCheck SCRF=Check GenChk RwB97XD/CC-pVDZ Freq
 --------------------------------------------------------------------

 Structure from the checkpoint file:  "config_8_1.chk"
 ------------------------------------------------
 NM 2D-scan of HBT TD-WB97XD pVDZ in CTC Relaxed.
 ------------------------------------------------
 Charge =  0 Multiplicity = 1

                          Input orientation:
 ---------------------------------------------------------------------
 Center     Atomic      Atomic             Coordinates (Angstroms)
 Number     Number       Type             X           Y           Z
 ---------------------------------------------------------------------
      1          6           0        1.758012   -3.255424   -0.000039
      2          6           0        1.008980   -2.076526   -0.000025
      3          6           0        1.656534   -0.838746    0.000005
      4          6           0        3.048656   -0.729555   -0.000027
      5          6           0        3.788149   -1.902218   -0.000043
      6          6           0        3.147024   -3.150375   -0.000042
      7          1           0        1.275071   -4.232732   -0.000083
      8          1           0        3.519891    0.253410   -0.000016
      9          1           0        4.877811   -1.854920   -0.000059
     10          1           0        3.746548   -4.061656   -0.000070
     11          7           0        0.776674    0.210628    0.000069
     12         16           0       -0.746917   -1.826635   -0.000177
     13          6           0       -1.432338    1.036058    0.000151
     14          6           0       -2.835434    0.918588    0.000073
     15          6           0       -0.821080    2.347932    0.000330
     16          6           0       -3.652446    2.036494    0.000032
     17          1           0       -3.283570   -0.078766    0.000004
     18          6           0       -1.695937    3.469797    0.000077
     19          6           0       -3.066529    3.316679   -0.000016
     20          1           0       -4.736944    1.925835   -0.000048
     21          1           0       -1.232378    4.457285    0.000008
     22          1           0       -3.706053    4.202259   -0.000126
     23          6           0       -0.504857   -0.083216    0.000082
     24          8           0        0.461707    2.522985    0.000106
     25          1           0        0.904959    1.414313   -0.000089
 ---------------------------------------------------------------------

 SCF Done:  E(RwB97XD) =  -1028.81236911     A.U. after    1 cycles

 Alpha  occ. eigenvalues --  -89.09838 -19.23878 -14.48525 -10.40681 -10.36579
 Alpha  occ. eigenvalues --  -10.35910 -10.35645 -10.33038 -10.32326 -10.32134
 Alpha  occ. eigenvalues --  -10.32080 -10.31679 -10.31486 -10.30871 -10.29477
 Alpha  occ. eigenvalues --  -10.29073  -8.11789  -6.06666  -6.06290  -6.05820
 Alpha  occ. eigenvalues --   -1.14068  -1.10022  -0.97915  -0.95326  -0.92340
 Alpha  occ. eigenvalues --   -0.88967  -0.85803  -0.84050  -0.82576  -0.75786
 Alpha  occ. eigenvalues --   -0.71856  -0.70638  -0.68942  -0.68568  -0.63646
 Alpha  occ. eigenvalues --   -0.60793  -0.59403  -0.57434  -0.55881  -0.55165
 Alpha  occ. eigenvalues --   -0.54577  -0.53572  -0.52261  -0.51106  -0.50006
 Alpha  occ. eigenvalues --   -0.49490  -0.47522  -0.46397  -0.45283  -0.45095
 Alpha  occ. eigenvalues --   -0.44102  -0.43049  -0.41917  -0.40437  -0.36422
 Alpha  occ. eigenvalues --   -0.34150  -0.33015  -0.31518  -0.27655
 Alpha virt. eigenvalues --   -0.00900   0.04184   0.06689   0.07038   0.08245
 Alpha virt. eigenvalues --    0.10943   0.12909   0.14868   0.16020   0.17706
 Alpha virt. eigenvalues --    0.19199   0.20612   0.21621   0.22095   0.22772

 Mulliken charges:
               1
     1  C    0.008416
     2  C   -0.242253
     3  C    0.281515
     4  C   -0.009833
     5  C    0.010670
     6  C    0.001129
     7  H    0.023671
     8  H    0.028512
     9  H    0.024526
    10  H    0.024697
    11  N   -0.252967
    12  S    0.170775
    13  C   -0.124095
    14  C   -0.007412
    15  C    0.109858
    16  C   -0.023829
    17  H    0.003152
    18  C   -0.007655
    19  C    0.024095
    20  H    0.005588
    21  H    0.007116
    22  H    0.014755
    23  C    0.075593
    24  O   -0.336504
    25  H    0.190479
 Sum of Mulliken charges =  -0.00000

 Dipole moment (field-independent basis, Debye):
    X=              1.0166    Y=             -3.9858    Z=             -0.0005  Tot=              4.1134
 Quadrupole moment (field-independent basis, Debye-Ang):
   XX=            -82.7609   YY=            -91.9200   ZZ=           -104.0690
   XY=             -7.0638   XZ=              0.0002   YZ=             -0.0002

  Exact polarizability:     280.732     -74.370     268.492       0.002       0.005      63.023
 Approx polarizability:     265.798     -27.245     249.745       0.003       0.004      82.230

 ******    1 imaginary frequencies (negative Signs) ******

                      1                      2                      3
                      A                      A                      A
 Frequencies --   -760.4029                30.9058                62.9788
 Red. masses --      1.1802                 5.1724                 6.1824
 Frc consts  --      0.4021                 0.0029                 0.0144
 IR Inten    --   1321.7759                 0.0423                 1.8441

                      4                      5                      6
                      A                      A                      A
 Frequencies --    132.5934               149.8630               197.8654
 Red. masses --      5.6744                 5.0477                 5.8611
 Frc consts  --      0.0588                 0.0668                 0.1352
 IR Inten    --      0.8605                 0.5350                 0.1465

                      7                      8                      9
                      A                      A                      A
 Frequencies --    242.7082               275.0111               319.1900
 Red. masses --      5.9779                 7.2188                 5.2513
 Frc consts  --      0.2075                 0.3217                 0.3152
 IR Inten    --      0.3783                 3.4994                 0.6776

                     10                     11                     12
                      A                      A                      A
 Frequencies --    382.9778               414.9733               433.7450
 Red. masses --      6.1428                10.9933                 3.1332
 Frc consts  --      0.5308                 1.1154                 0.3473
 IR Inten    --      2.3202                 5.6351                 1.8689

                     13                     14                     15
                      A                      A                      A
 Frequencies --    456.6792               515.1260               539.4299
 Red. masses --      3.6461                 8.8715                 3.2996
 Frc consts  --      0.4480                 1.3870                 0.5657
 IR Inten    --      9.2909                 3.6481                 4.1690

                     16                     17                     18
                      A                      A                      A
 Frequencies --    555.0661               569.6237               583.9652
 Red. masses --      8.5321                 3.6160                 7.8476
 Frc consts  --      1.5488                 0.6913                 1.5767
 IR Inten    --      8.9275                 0.1424                 6.4363

                     19                     20                     21
                      A                      A                      A
 Frequencies --    629.6245               648.2291               691.5396
 Red. masses --      7.4259                 6.5509                 6.5244
 Frc consts  --      1.7345                 1.6218                 1.8383
 IR Inten    --     48.5388                 0.0127                 6.5220

                     22                     23                     24
                      A                      A                      A
 Frequencies --    711.7922               752.2691               766.9001
 Red. masses --      6.5616                 2.2609                 1.7033
 Frc consts  --      1.9587                 0.7538                 0.5902
 IR Inten    --      5.9982                17.9731                31.0685

                     25                     26                     27
                      A                      A                      A
 Frequencies --    775.2803               779.1436               780.4354
 Red. masses --      2.0957                 8.2945                 1.7290
 Frc consts  --      0.7422                 2.9667                 0.6205
 IR Inten    --     40.6502                21.0627                34.5842

                     28                     29                     30
                      A                      A                      A
 Frequencies --    848.1555               880.1363               882.6406
 Red. masses --      6.1810                 1.6543                 1.4119
 Frc consts  --      2.6197                 0.7550                 0.6481
 IR Inten    --     18.0384                 7.7368                 0.0671

                     31                     32                     33
                      A                      A                      A
 Frequencies --    932.4312               968.5049               973.3177
 Red. masses --      7.0316                 1.3431                 1.3603
 Frc consts  --      3.6019                 0.7423                 0.7593
 IR Inten    --     17.3900                 0.7672                 0.9413

                     34                     35                     36
                      A                      A                      A
 Frequencies --   1011.5931              1012.1373              1015.5867
 Red. masses --      1.3009                 7.2793                 1.3060
 Frc consts  --      0.7844                 4.3936                 0.7936
 IR Inten    --      0.2424                11.8590                 0.0045

                     37                     38                     39
                      A                      A                      A
 Frequencies --   1053.1442              1059.4459              1094.7773
 Red. masses --      2.0654                 1.9741                 4.0339
 Frc consts  --      1.3497                 1.3055                 2.8485
 IR Inten    --      7.5607                 9.7135                 4.7111

                     40                     41                     42
                      A                      A                      A
 Frequencies --   1149.7125              1154.9993              1171.4996
 Red. masses --      1.4588                 1.2851                 1.0621
 Frc consts  --      1.1361                 1.0100                 0.8588
 IR Inten    --     13.8193                 0.4220                66.1518

                     43                     44                     45
                      A                      A                      A
 Frequencies --   1175.1997              1184.0622              1257.2711
 Red. masses --      1.1019                 1.1637                 1.9089
 Frc consts  --      0.8967                 0.9613                 1.7778
 IR Inten    --    100.7055                 0.0624                93.1270

                     46                     47                     48
                      A                      A                      A
 Frequencies --   1288.4491              1320.0816              1350.8750
 Red. masses --      1.5285                 2.8203                 6.3613
 Frc consts  --      1.4951                 2.8957                 6.8395
 IR Inten    --     11.1441               368.7179                19.9584

                     49                     50                     51
                      A                      A                      A
 Frequencies --   1380.2304              1387.4722              1404.7452
 Red. masses --      7.3963                 2.9994                 2.4158
 Frc consts  --      8.3018                 3.4020                 2.8088
 IR Inten    --     16.9527                14.5197                10.3537

                     52                     53                     54
                      A                      A                      A
 Frequencies --   1495.5535              1504.1518              1530.1304
 Red. masses --      2.7187                 2.9036                 3.7801
 Frc consts  --      3.5828                 3.8705                 5.2145
 IR Inten    --     18.4426                34.9782                89.6335

                     55                     56                     57
                      A                      A                      A
 Frequencies --   1566.4190              1586.3407              1603.6500
 Red. masses --      7.2173                 4.8908                 5.6943
 Frc consts  --     10.4338                 7.2514                 8.6280
 IR Inten    --   1440.3682               237.3253                30.0448

                     58                     59                     60
                      A                      A                      A
 Frequencies --   1662.0377              1683.8333              1711.5435
 Red. masses --      7.0755                 6.7780                 6.5202
 Frc consts  --     11.5156                11.3226                11.2535
 IR Inten    --      1.6330                 4.3608               167.7870

                     61                     62                     63
                      A                      A                      A
 Frequencies --   1930.8881              3186.2437              3199.6855
 Red. masses --      1.1062                 1.0895                 1.0883
 Frc consts  --      2.4299                 6.5166                 6.5646
 IR Inten    --    118.8057                 4.7811                 9.3218

                     64                     65                     66
                      A                      A                      A
 Frequencies --   3215.3136              3224.1014              3225.2958
 Red. masses --      1.0862                 1.0936                 1.0906
 Frc consts  --      6.6162                 6.6978                 6.6845
 IR Inten    --      1.1016                14.7484                 2.8210

                     67                     68                     69
                      A                      A                      A
 Frequencies --   3231.7714              3234.5317              3241.3060
 Red. masses --      1.0983                 1.0961                 1.1001
 Frc consts  --      6.7584                 6.7568                 6.8093
 IR Inten    --     21.1857                 7.9661                11.7922

 - Thermochemistry -
 -------------------
 Temperature   298.150 Kelvin.  Pressure   1.00000 Atm.
 Atom     1 has atomic number  6 and mass  12.00000

 Molecular mass:   227.04049 amu.
 Principal axes and moments of inertia in atomic units:
                           1         2         3
     Eigenvalues --  1320.644526245.661217566.30572
           X           -0.70543   0.70878  -0.00002
           Y            0.70878   0.70543  -0.00005
           Z            0.00002   0.00005   1.00000
 This molecule is an asymmetric top.
 Rotational symmetry number  1.
 Warning -- assumption of classical behavior for rotation
           may cause significant error
 Rotational temperatures (Kelvin)      0.06558     0.01387     0.01145
 Rotational constants (GHZ):           1.36656     0.28896     0.23852
    1 imaginary frequencies ignored.
 Zero-point vibrational energy     486803.4 (Joules/Mol)
                                  116.34882 (Kcal/Mol)
 Warning -- explicit consideration of  17 degrees of freedom as
           vibrations may cause significant error
 Vibrational temperatures:     44.47    90.61   190.77   215.62   284.68
          (Kelvin)            349.20   395.68   459.24   551.02   597.05
                              624.06   657.06   741.15   776.12   798.62
                              819.56   840.20   905.89   932.66   994.97
                             1024.11  1082.35  1103.40  1115.46  1121.01
                             1122.87  1220.31  1266.32  1269.92  1341.56
                             1393.46  1400.39  1455.46  1456.24  1461.20
                             1515.24  1524.31  1575.14  1654.18  1661.79
                             1685.53  1690.85  1703.60  1808.93  1853.79
                             1899.30  1943.61  1985.84  1996.26  2021.11
                             2151.77  2164.14  2201.52  2253.73  2282.39
                             2307.29  2391.30  2422.66  2462.53  2778.12
                             4584.29  4603.63  4626.12  4638.76  4640.48
                             4649.80  4653.77  4663.52

 Zero-point correction=                           0.185414 (Hartree/Particle)
 Thermal correction to Energy=                    0.196894
 Thermal correction to Enthalpy=                  0.197839
 Thermal correction to Gibbs Free Energy=         0.146636
 Sum of electronic and zero-point Energies=          -1028.626955
 Sum of electronic and thermal Energies=             -1028.615475
 Sum of electronic and thermal Enthalpies=           -1028.614530
 Sum of electronic and thermal Free Energies=        -1028.665733

                     E (Thermal)             CV                S
                      KCal/Mol        Cal/Mol-Kelvin    Cal/Mol-Kelvin
 Total                  123.553             46.613            107.764
 Electronic               0.000              0.000              0.000
 Translational            0.889              2.981             42.162
 Rotational               0.889              2.981             32.501
 Vibrational            121.776             40.651             33.101
 Vibration     1          0.594              1.984              5.770
 Vibration     2          0.597              1.972              4.362
 Vibration     3          0.613              1.921              2.908
 Vibration     4          0.618              1.903              2.674
 Vibration     5          0.637              1.843              2.153
 Vibration     6          0.659              1.775              1.783
 Vibration     7          0.677              1.720              1.565
 Vibration     8          0.705              1.637              1.314
 Vibration     9          0.752              1.506              1.027
 Vibration    10          0.778              1.438              0.909
 Vibration    11          0.794              1.397              0.847
 Vibration    12          0.815              1.346              0.776
 Vibration    13          0.870              1.216              0.621
 Vibration    14          0.894              1.163              0.567
 Vibration    15          0.911              1.129              0.534
 Vibration    16          0.926              1.097              0.505
 Vibration    17          0.941              1.066              0.478

 Optimization completed.
    -- Stationary point found.
 Normal termination of Gaussian 16 at Tue Oct 27 20:43:42 2020.
