 Gaussian 16, Revision C.01,
 Gaussian 16:  ES64L-G16RevC.01  3-Jul-2019

 ----------------------------------------------------------------------
 #p opt=addgic freq wb97xd/cc-pvdz nosymm int=ultrafine scrf=(solvent=C
 arbonTetraChloride)
 ----------------------------------------------------------------------

 ------------------------------------------------
 NM 2D-scan of HBT TD-WB97XD pVDZ in CTC Relaxed.
 ------------------------------------------------
 Symbolic Z-matrix:
 Charge =  0 Multiplicity = 1

 SCF Done:  E(RwB97XD) =  -1028.62526628     A.U. after   15 cycles
 SCF Done:  E(RwB97XD) =  -1028.78454791     A.U. after   13 cycles
 SCF Done:  E(RwB97XD) =  -1028.80450285     A.U. after   15 cycles
 SCF Done:  E(RwB97XD) =  -1028.82054287     A.U. after   13 cycles
 SCF Done:  E(RwB97XD) =  -1028.82179922     A.U. after   12 cycles
 SCF Done:  E(RwB97XD) =  -1028.82194030     A.U. after   11 cycles
 SCF Done:  E(RwB97XD) =  -1028.82195410     A.U. after    9 cycles
 Optimization completed.
    -- Stationary point found.
 Normal termination of Gaussian 16 at Tue Oct 27 21:23:11 2020.

 --------------------------------------------------------------------
 #P Geom=AllCheck Guess=TCheck SCRF=Check GenChk RwB97XD/CC-pVDZ Freq
 --------------------------------------------------------------------

 Structure from the checkpoint file:  "config_2_4.chk"
 ------------------------------------------------
 NM 2D-scan of HBT TD-WB97XD pVDZ in CTC Relaxed.
 ------------------------------------------------
 Charge =  0 Multiplicity = 1

                          Input orientation:
 ---------------------------------------------------------------------
 Center     Atomic      Atomic             Coordinates (Angstroms)
 Number     Number       Type             X           Y           Z
 ---------------------------------------------------------------------
      1          6           0        1.733706   -3.322027   -0.000030
      2          6           0        0.972418   -2.141969   -0.000013
      3          6           0        1.638456   -0.902217   -0.000004
      4          6           0        3.032766   -0.803230   -0.000005
      5          6           0        3.777723   -1.964928   -0.000021
      6          6           0        3.124978   -3.211017   -0.000035
      7          1           0        1.262498   -4.305509   -0.000038
      8          1           0        3.489737    0.186830    0.000004
      9          1           0        4.867588   -1.921252   -0.000023
     10          1           0        3.722417   -4.124345   -0.000048
     11          7           0        0.846116    0.210505    0.000003
     12         16           0       -0.769200   -1.838005    0.000005
     13          6           0       -1.379965    1.070456    0.000002
     14          6           0       -2.784753    0.907001   -0.000010
     15          6           0       -0.889944    2.415516    0.000026
     16          6           0       -3.651690    1.988190    0.000017
     17          1           0       -3.196675   -0.105378   -0.000039
     18          6           0       -1.779479    3.496431    0.000065
     19          6           0       -3.141342    3.295275    0.000063
     20          1           0       -4.728750    1.819900    0.000008
     21          1           0       -1.340293    4.494346    0.000091
     22          1           0       -3.816708    4.152626    0.000093
     23          6           0       -0.422490   -0.054963   -0.000001
     24          8           0        0.395041    2.815301    0.000005
     25          1           0        0.960644    2.028965   -0.000017
 ---------------------------------------------------------------------

 SCF Done:  E(RwB97XD) =  -1028.82195410     A.U. after    1 cycles

 Alpha  occ. eigenvalues --  -89.08871 -19.28465 -14.46542 -10.39628 -10.37550
 Alpha  occ. eigenvalues --  -10.35063 -10.34469 -10.33026 -10.32509 -10.31914
 Alpha  occ. eigenvalues --  -10.31622 -10.31390 -10.31331 -10.31256 -10.30257
 Alpha  occ. eigenvalues --  -10.29906  -8.10734  -6.05609  -6.05255  -6.04769
 Alpha  occ. eigenvalues --   -1.16606  -1.08898  -0.97140  -0.95999  -0.90999
 Alpha  occ. eigenvalues --   -0.88470  -0.85208  -0.84439  -0.82891  -0.75452
 Alpha  occ. eigenvalues --   -0.71252  -0.70652  -0.69502  -0.68000  -0.62942
 Alpha  occ. eigenvalues --   -0.60165  -0.58557  -0.58321  -0.56329  -0.54441
 Alpha  occ. eigenvalues --   -0.53724  -0.53087  -0.52392  -0.50919  -0.50315
 Alpha  occ. eigenvalues --   -0.49211  -0.47821  -0.45741  -0.45235  -0.44882
 Alpha  occ. eigenvalues --   -0.43702  -0.42903  -0.42556  -0.39627  -0.37250
 Alpha  occ. eigenvalues --   -0.36102  -0.32087  -0.31679  -0.29055
 Alpha virt. eigenvalues --   -0.00408   0.04842   0.06797   0.07187   0.07293
 Alpha virt. eigenvalues --    0.11581   0.12700   0.15107   0.15793   0.17574
 Alpha virt. eigenvalues --    0.18974   0.20299   0.21708   0.22431   0.22821

 Mulliken charges:
               1
     1  C   -0.002866
     2  C   -0.211737
     3  C    0.230871
     4  C   -0.012439
     5  C    0.008326
     6  C   -0.002772
     7  H    0.021207
     8  H    0.015867
     9  H    0.018917
    10  H    0.021418
    11  N   -0.318726
    12  S    0.132991
    13  C   -0.070832
    14  C   -0.015122
    15  C    0.066204
    16  C   -0.007678
    17  H    0.009749
    18  C    0.020023
    19  C    0.018846
    20  H    0.010523
    21  H    0.016862
    22  H    0.017959
    23  C    0.069823
    24  O   -0.188802
    25  H    0.151388
 Sum of Mulliken charges =  -0.00000

 Dipole moment (field-independent basis, Debye):
    X=              0.2103    Y=             -2.0067    Z=             -0.0000  Tot=              2.0177
 Quadrupole moment (field-independent basis, Debye-Ang):
   XX=            -82.6350   YY=            -89.7422   ZZ=           -104.3020
   XY=             -6.8120   XZ=             -0.0001   YZ=              0.0003

  Exact polarizability:     275.464     -64.948     256.959      -0.001       0.003      63.182
 Approx polarizability:     263.812     -22.065     243.990      -0.001       0.002      82.332

                      1                      2                      3
                      A                      A                      A
 Frequencies --     46.7717                49.8684               111.3354
 Red. masses --      6.0918                 5.3807                 5.6678
 Frc consts  --      0.0079                 0.0079                 0.0414
 IR Inten    --      0.4614                 0.6963                 0.8807

                      4                      5                      6
                      A                      A                      A
 Frequencies --    149.9183               199.6991               244.4748
 Red. masses --      4.8253                 5.6510                 5.8496
 Frc consts  --      0.0639                 0.1328                 0.2060
 IR Inten    --      0.0018                 0.2752                 0.1455

                      7                      8                      9
                      A                      A                      A
 Frequencies --    258.2787               290.0824               324.0495
 Red. masses --      8.3643                 6.2194                 4.9922
 Frc consts  --      0.3287                 0.3083                 0.3089
 IR Inten    --      2.8717                 4.9847                 0.7072

                     10                     11                     12
                      A                      A                      A
 Frequencies --    395.4782               440.2446               469.9845
 Red. masses --      8.5646                 3.1720                 3.7533
 Frc consts  --      0.7892                 0.3622                 0.4885
 IR Inten    --      0.2783                 1.9190                 9.6299

                     13                     14                     15
                      A                      A                      A
 Frequencies --    493.1599               512.1669               539.1756
 Red. masses --      4.6057                 8.9153                 3.4537
 Frc consts  --      0.6600                 1.3779                 0.5916
 IR Inten    --      3.2271                 0.4461                 4.1372

                     16                     17                     18
                      A                      A                      A
 Frequencies --    545.4862               572.7628               595.4742
 Red. masses --      8.6813                 3.6834                 7.7074
 Frc consts  --      1.5220                 0.7119                 1.6102
 IR Inten    --      2.9578                 0.0950                 6.5043

                     19                     20                     21
                      A                      A                      A
 Frequencies --    612.4521               660.1372               674.8546
 Red. masses --      1.4116                 2.6333                 6.9219
 Frc consts  --      0.3120                 0.6761                 1.8574
 IR Inten    --     55.3254                32.6723                38.7936

                     22                     23                     24
                      A                      A                      A
 Frequencies --    680.1642               716.3130               754.3406
 Red. masses --      8.2343                 7.2868                 1.9489
 Frc consts  --      2.2444                 2.2029                 0.6534
 IR Inten    --     20.5476                 1.8251                22.0593

                     25                     26                     27
                      A                      A                      A
 Frequencies --    767.1825               778.2620               787.7977
 Red. masses --      3.7016                 1.3145                 1.9067
 Frc consts  --      1.2836                 0.4691                 0.6972
 IR Inten    --     10.1633                56.8964                35.9767

                     28                     29                     30
                      A                      A                      A
 Frequencies --    835.9553               885.8154               886.7229
 Red. masses --      6.1498                 1.4999                 1.4655
 Frc consts  --      2.5321                 0.6934                 0.6789
 IR Inten    --     28.3101                 5.0336                 0.0076

                     31                     32                     33
                      A                      A                      A
 Frequencies --    894.3424               969.3806               973.5451
 Red. masses --      6.3805                 7.6139                 1.3545
 Frc consts  --      3.0068                 4.2155                 0.7564
 IR Inten    --      1.0589                75.7157                 1.3479

                     34                     35                     36
                      A                      A                      A
 Frequencies --    975.4896              1011.7051              1014.5863
 Red. masses --      1.3643                 1.3001                 1.3056
 Frc consts  --      0.7649                 0.7840                 0.7918
 IR Inten    --      1.2462                 0.2972                 0.0078

                     37                     38                     39
                      A                      A                      A
 Frequencies --   1049.3922              1069.3444              1089.0594
 Red. masses --      2.0428                 2.0639                 4.7955
 Frc consts  --      1.3254                 1.3905                 3.3511
 IR Inten    --      7.9483                16.3219                 5.8631

                     40                     41                     42
                      A                      A                      A
 Frequencies --   1142.1897              1149.2554              1175.6391
 Red. masses --      1.6065                 1.2656                 1.1132
 Frc consts  --      1.2348                 0.9849                 0.9065
 IR Inten    --     10.9549                 7.0118                49.5513

                     43                     44                     45
                      A                      A                      A
 Frequencies --   1182.6958              1224.9363              1272.3745
 Red. masses --      1.1845                 1.5705                 2.1562
 Frc consts  --      0.9762                 1.3884                 2.0567
 IR Inten    --      0.1778               183.0316                65.2649

                     46                     47                     48
                      A                      A                      A
 Frequencies --   1280.0297              1292.1075              1352.5223
 Red. masses --      1.6109                 4.8553                 2.9105
 Frc consts  --      1.5551                 4.7760                 3.1370
 IR Inten    --      2.8669                27.6633                13.7250

                     49                     50                     51
                      A                      A                      A
 Frequencies --   1364.8620              1376.2394              1401.8669
 Red. masses --      5.2102                 2.8007                 2.0777
 Frc consts  --      5.7186                 3.1253                 2.4057
 IR Inten    --     15.0171                 1.3414                91.9334

                     52                     53                     54
                      A                      A                      A
 Frequencies --   1489.2252              1495.4448              1515.2525
 Red. masses --      2.6301                 3.0927                 3.2825
 Frc consts  --      3.4367                 4.0749                 4.4405
 IR Inten    --     23.4854                18.8139               121.1683

                     55                     56                     57
                      A                      A                      A
 Frequencies --   1531.5269              1607.9268              1640.3718
 Red. masses --      2.9238                 8.7256                 6.1940
 Frc consts  --      4.0406                13.2916                 9.8199
 IR Inten    --     22.4605               191.1972                27.8064

                     58                     59                     60
                      A                      A                      A
 Frequencies --   1647.1298              1685.2212              1709.0934
 Red. masses --      6.2967                 6.9218                 6.5946
 Frc consts  --     10.0651                11.5819                11.3494
 IR Inten    --     83.6653                 2.5769                80.0170

                     61                     62                     63
                      A                      A                      A
 Frequencies --   3193.4557              3209.4337              3210.3198
 Red. masses --      1.0893                 1.0883                 1.0861
 Frc consts  --      6.5452                 6.6048                 6.5948
 IR Inten    --      3.9537                 5.7286                 0.4703

                     64                     65                     66
                      A                      A                      A
 Frequencies --   3220.9544              3229.6440              3229.6913
 Red. masses --      1.0900                 1.0940                 1.0958
 Frc consts  --      6.6626                 6.7232                 6.7346
 IR Inten    --      3.3985                 8.4701                16.1559

                     67                     68                     69
                      A                      A                      A
 Frequencies --   3236.8259              3237.9096              3683.5716
 Red. masses --      1.0995                 1.1002                 1.0660
 Frc consts  --      6.7870                 6.7960                 8.5223
 IR Inten    --     18.5553                12.7437               526.0529

 - Thermochemistry -
 -------------------
 Temperature   298.150 Kelvin.  Pressure   1.00000 Atm.
 Atom     1 has atomic number  6 and mass  12.00000

 Molecular mass:   227.04049 amu.
 Principal axes and moments of inertia in atomic units:
                           1         2         3
     Eigenvalues --  1361.484196384.918207746.40238
           X           -0.69249   0.72143   0.00000
           Y            0.72143   0.69249  -0.00001
           Z            0.00001   0.00000   1.00000
 This molecule is an asymmetric top.
 Rotational symmetry number  1.
 Warning -- assumption of classical behavior for rotation
           may cause significant error
 Rotational temperatures (Kelvin)      0.06362     0.01357     0.01118
 Rotational constants (GHZ):           1.32557     0.28266     0.23298
 Zero-point vibrational energy     498322.2 (Joules/Mol)
                                  119.10187 (Kcal/Mol)
 Warning -- explicit consideration of  19 degrees of freedom as
           vibrations may cause significant error
 Vibrational temperatures:     67.29    71.75   160.19   215.70   287.32
          (Kelvin)            351.74   371.61   417.36   466.23   569.00
                              633.41   676.20   709.55   736.89   775.75
                              784.83   824.08   856.75   881.18   949.79
                              970.97   978.60  1030.61  1085.33  1103.80
                             1119.75  1133.47  1202.75  1274.49  1275.80
                             1286.76  1394.72  1400.71  1403.51  1455.62
                             1459.76  1509.84  1538.55  1566.91  1643.36
                             1653.52  1691.48  1701.64  1762.41  1830.66
                             1841.68  1859.05  1945.98  1963.73  1980.10
                             2016.97  2142.66  2151.61  2180.11  2203.53
                             2313.45  2360.13  2369.85  2424.66  2459.00
                             4594.67  4617.66  4618.93  4634.23  4646.74
                             4646.81  4657.07  4658.63  5299.84

 Zero-point correction=                           0.189801 (Hartree/Particle)
 Thermal correction to Energy=                    0.201717
 Thermal correction to Enthalpy=                  0.202661
 Thermal correction to Gibbs Free Energy=         0.150796
 Sum of electronic and zero-point Energies=          -1028.632153
 Sum of electronic and thermal Energies=             -1028.620237
 Sum of electronic and thermal Enthalpies=           -1028.619293
 Sum of electronic and thermal Free Energies=        -1028.671158

                     E (Thermal)             CV                S
                      KCal/Mol        Cal/Mol-Kelvin    Cal/Mol-Kelvin
 Total                  126.579             48.372            109.160
 Electronic               0.000              0.000              0.000
 Translational            0.889              2.981             42.162
 Rotational               0.889              2.981             32.576
 Vibrational            124.802             42.411             34.421
 Vibration     1          0.595              1.979              4.949
 Vibration     2          0.595              1.978              4.823
 Vibration     3          0.607              1.940              3.245
 Vibration     4          0.618              1.903              2.673
 Vibration     5          0.638              1.840              2.136
 Vibration     6          0.660              1.772              1.770
 Vibration     7          0.667              1.749              1.673
 Vibration     8          0.686              1.692              1.473
 Vibration     9          0.709              1.627              1.290
 Vibration    10          0.762              1.480              0.979
 Vibration    11          0.800              1.382              0.826
 Vibration    12          0.827              1.317              0.738
 Vibration    13          0.849              1.265              0.675
 Vibration    14          0.867              1.223              0.628
 Vibration    15          0.894              1.163              0.567
 Vibration    16          0.901              1.150              0.554
 Vibration    17          0.929              1.090              0.499
 Vibration    18          0.953              1.041              0.458
 Vibration    19          0.972              1.005              0.429

                           ! Non-Optimized Parameters !
 Normal termination of Gaussian 16 at Tue Oct 27 21:29:07 2020.
