 Gaussian 16, Revision C.01,
 Gaussian 16:  ES64L-G16RevC.01  3-Jul-2019

 ----------------------------------------------------------------------
 #p opt=addgic freq wb97xd/cc-pvdz nosymm int=ultrafine scrf=(solvent=C
 arbonTetraChloride)
 ----------------------------------------------------------------------

 ------------------------------------------------
 NM 2D-scan of HBT TD-WB97XD pVDZ in CTC Relaxed.
 ------------------------------------------------
 Symbolic Z-matrix:
 Charge =  0 Multiplicity = 1

 SCF Done:  E(RwB97XD) =  -1028.79671317     A.U. after   15 cycles
 SCF Done:  E(RwB97XD) =  -1028.82782275     A.U. after   13 cycles
 SCF Done:  E(RwB97XD) =  -1028.82997156     A.U. after   12 cycles
 SCF Done:  E(RwB97XD) =  -1028.83022443     A.U. after   11 cycles
 SCF Done:  E(RwB97XD) =  -1028.83026474     A.U. after   10 cycles
 SCF Done:  E(RwB97XD) =  -1028.83026816     A.U. after    9 cycles
 Optimization completed.
    -- Stationary point found.
 Normal termination of Gaussian 16 at Tue Oct 27 23:30:10 2020.

 --------------------------------------------------------------------
 #P Geom=AllCheck Guess=TCheck SCRF=Check GenChk RwB97XD/CC-pVDZ Freq
 --------------------------------------------------------------------

 Structure from the checkpoint file:  "config_3_10.chk"
 ------------------------------------------------
 NM 2D-scan of HBT TD-WB97XD pVDZ in CTC Relaxed.
 ------------------------------------------------
 Charge =  0 Multiplicity = 1

                          Input orientation:
 ---------------------------------------------------------------------
 Center     Atomic      Atomic             Coordinates (Angstroms)
 Number     Number       Type             X           Y           Z
 ---------------------------------------------------------------------
      1          6           0        1.641640   -3.296652   -0.000007
      2          6           0        0.983089   -2.063875    0.000004
      3          6           0        1.704864   -0.857203   -0.000025
      4          6           0        3.104442   -0.868070   -0.000064
      5          6           0        3.758354   -2.090121   -0.000074
      6          6           0        3.032485   -3.293051   -0.000045
      7          1           0        1.085525   -4.234535    0.000012
      8          1           0        3.649786    0.076209   -0.000086
      9          1           0        4.848851   -2.119987   -0.000105
     10          1           0        3.567536   -4.243886   -0.000056
     11          7           0        0.926140    0.280357   -0.000008
     12         16           0       -0.735096   -1.709756    0.000035
     13          6           0       -1.347824    1.090161    0.000048
     14          6           0       -2.730765    0.835118    0.000025
     15          6           0       -0.900036    2.440082    0.000060
     16          6           0       -3.655600    1.866767   -0.000007
     17          1           0       -3.081994   -0.199766    0.000015
     18          6           0       -1.848082    3.475440    0.000022
     19          6           0       -3.203149    3.193096   -0.000012
     20          1           0       -4.722992    1.645867   -0.000033
     21          1           0       -1.478253    4.501393    0.000036
     22          1           0       -3.922122    4.014557   -0.000034
     23          6           0       -0.351347    0.018311    0.000042
     24          8           0        0.387744    2.786797    0.000142
     25          1           0        0.917941    1.946327    0.000222
 ---------------------------------------------------------------------

 SCF Done:  E(RwB97XD) =  -1028.83026816     A.U. after    1 cycles

 Alpha  occ. eigenvalues --  -89.08746 -19.27957 -14.46891 -10.39483 -10.37365
 Alpha  occ. eigenvalues --  -10.34882 -10.34834 -10.32378 -10.32377 -10.31873
 Alpha  occ. eigenvalues --  -10.31610 -10.31600 -10.31463 -10.31372 -10.30228
 Alpha  occ. eigenvalues --  -10.30053  -8.10750  -6.05607  -6.05250  -6.04797
 Alpha  occ. eigenvalues --   -1.16429  -1.08975  -0.97257  -0.96138  -0.91534
 Alpha  occ. eigenvalues --   -0.88571  -0.85355  -0.84529  -0.82951  -0.75490
 Alpha  occ. eigenvalues --   -0.71387  -0.70579  -0.69434  -0.68191  -0.63125
 Alpha  occ. eigenvalues --   -0.60485  -0.58766  -0.58392  -0.56388  -0.54500
 Alpha  occ. eigenvalues --   -0.54033  -0.53202  -0.52694  -0.50893  -0.50329
 Alpha  occ. eigenvalues --   -0.49342  -0.47677  -0.45901  -0.45370  -0.44984
 Alpha  occ. eigenvalues --   -0.43883  -0.42918  -0.42632  -0.39771  -0.37179
 Alpha  occ. eigenvalues --   -0.36190  -0.32131  -0.31698  -0.29060
 Alpha virt. eigenvalues --   -0.00458   0.04827   0.06848   0.07195   0.07686
 Alpha virt. eigenvalues --    0.11442   0.13972   0.15159   0.16349   0.17939
 Alpha virt. eigenvalues --    0.18946   0.20810   0.21700   0.22550   0.22769

 Mulliken charges:
               1
     1  C    0.007734
     2  C   -0.215860
     3  C    0.229146
     4  C   -0.014052
     5  C    0.006262
     6  C   -0.000039
     7  H    0.019383
     8  H    0.018120
     9  H    0.019737
    10  H    0.021514
    11  N   -0.344788
    12  S    0.145362
    13  C   -0.061280
    14  C   -0.022838
    15  C    0.068109
    16  C   -0.007274
    17  H    0.013583
    18  C    0.010231
    19  C    0.020454
    20  H    0.009794
    21  H    0.016256
    22  H    0.018428
    23  C    0.083431
    24  O   -0.203908
    25  H    0.162495
 Sum of Mulliken charges =  -0.00000

 Dipole moment (field-independent basis, Debye):
    X=              0.0134    Y=             -2.4592    Z=              0.0000  Tot=              2.4592
 Quadrupole moment (field-independent basis, Debye-Ang):
   XX=            -82.7335   YY=            -90.0135   ZZ=           -104.1279
   XY=             -7.1246   XZ=              0.0001   YZ=             -0.0000

  Exact polarizability:     274.645     -66.732     255.569      -0.001       0.001      62.987
 Approx polarizability:     262.525     -22.947     242.634      -0.001       0.000      82.196

                      1                      2                      3
                      A                      A                      A
 Frequencies --     49.0700                59.6645               121.6777
 Red. masses --      5.6713                 5.6150                 5.6626
 Frc consts  --      0.0080                 0.0118                 0.0494
 IR Inten    --      0.1303                 1.1181                 1.3145

                      4                      5                      6
                      A                      A                      A
 Frequencies --    152.9081               199.0656               245.6200
 Red. masses --      4.9854                 5.9285                 5.7357
 Frc consts  --      0.0687                 0.1384                 0.2039
 IR Inten    --      0.0196                 0.6260                 0.0314

                      7                      8                      9
                      A                      A                      A
 Frequencies --    272.0094               311.0865               327.9421
 Red. masses --      7.7588                 6.4318                 5.1094
 Frc consts  --      0.3382                 0.3667                 0.3238
 IR Inten    --      1.0799                 6.9582                 0.2304

                     10                     11                     12
                      A                      A                      A
 Frequencies --    408.7581               438.4650               467.5975
 Red. masses --      9.4108                 3.1440                 3.7060
 Frc consts  --      0.9264                 0.3561                 0.4774
 IR Inten    --      0.1978                 2.0824                 7.9538

                     13                     14                     15
                      A                      A                      A
 Frequencies --    515.6648               518.2826               538.6524
 Red. masses --      7.7840                 5.3137                 3.4662
 Frc consts  --      1.2195                 0.8410                 0.5926
 IR Inten    --      2.0642                 6.2957                 3.7020

                     16                     17                     18
                      A                      A                      A
 Frequencies --    549.1835               574.8974               592.5703
 Red. masses --      8.2688                 3.7226                 7.6873
 Frc consts  --      1.4694                 0.7249                 1.5904
 IR Inten    --      2.3663                 0.0305                 5.6086

                     19                     20                     21
                      A                      A                      A
 Frequencies --    646.8936               680.2582               715.5849
 Red. masses --      5.9821                 6.5045                 7.2193
 Frc consts  --      1.4749                 1.7734                 2.1780
 IR Inten    --      0.0828                 5.6959                32.1115

                     22                     23                     24
                      A                      A                      A
 Frequencies --    735.0311               755.9297               762.7695
 Red. masses --      9.3768                 2.0248                 2.8080
 Frc consts  --      2.9848                 0.6817                 0.9626
 IR Inten    --      8.2678                30.8255                 2.2106

                     25                     26                     27
                      A                      A                      A
 Frequencies --    776.4815               787.0691               845.4849
 Red. masses --      1.3430                 1.8925                 1.1520
 Frc consts  --      0.4771                 0.6907                 0.4852
 IR Inten    --     65.9392                33.1431                76.4461

                     28                     29                     30
                      A                      A                      A
 Frequencies --    846.2621               884.7254               888.2960
 Red. masses --      6.0023                 1.5352                 1.4212
 Frc consts  --      2.5327                 0.7080                 0.6607
 IR Inten    --     20.1804                 3.4617                 1.9482

                     31                     32                     33
                      A                      A                      A
 Frequencies --    896.7299               971.7032               976.6079
 Red. masses --      6.5306                 1.3569                 1.3639
 Frc consts  --      3.0940                 0.7549                 0.7665
 IR Inten    --      2.3352                 1.1089                 1.6867

                     34                     35                     36
                      A                      A                      A
 Frequencies --    991.1775              1011.2259              1015.9211
 Red. masses --      7.6126                 1.3014                 1.3045
 Frc consts  --      4.4064                 0.7841                 0.7933
 IR Inten    --     59.4364                 0.3681                 0.0193

                     37                     38                     39
                      A                      A                      A
 Frequencies --   1052.4176              1070.8181              1098.5761
 Red. masses --      2.0038                 1.9686                 4.2731
 Frc consts  --      1.3076                 1.3299                 3.0385
 IR Inten    --      8.4134                10.6237                 6.1534

                     40                     41                     42
                      A                      A                      A
 Frequencies --   1149.7978              1153.1923              1176.4139
 Red. masses --      1.4838                 1.3047                 1.1338
 Frc consts  --      1.1558                 1.0223                 0.9245
 IR Inten    --      6.6103                 3.5548                43.9936

                     43                     44                     45
                      A                      A                      A
 Frequencies --   1185.2914              1252.8259              1285.4965
 Red. masses --      1.1992                 1.9053                 1.6298
 Frc consts  --      0.9927                 1.7619                 1.5868
 IR Inten    --      0.2587               131.5617                 7.5430

                     46                     47                     48
                      A                      A                      A
 Frequencies --   1291.1895              1335.7314              1345.8063
 Red. masses --      2.2503                 4.7980                 3.1379
 Frc consts  --      2.2104                 5.0437                 3.3485
 IR Inten    --    122.0678                26.9714                 4.3862

                     49                     50                     51
                      A                      A                      A
 Frequencies --   1372.9277              1378.5460              1470.2978
 Red. masses --      7.7937                 3.7074                 1.9098
 Frc consts  --      8.6554                 4.1511                 2.4324
 IR Inten    --     15.2301                16.9417                34.4661

                     52                     53                     54
                      A                      A                      A
 Frequencies --   1491.2861              1503.5653              1523.3063
 Red. masses --      2.6351                 2.9511                 3.7979
 Frc consts  --      3.4527                 3.9308                 5.1924
 IR Inten    --     38.9578                 4.7302               121.2795

                     55                     56                     57
                      A                      A                      A
 Frequencies --   1554.1861              1592.2307              1648.0349
 Red. masses --      2.2079                 6.6017                 6.7546
 Frc consts  --      3.1421                 9.8609                10.8089
 IR Inten    --    128.1406               184.9702                 5.9937

                     58                     59                     60
                      A                      A                      A
 Frequencies --   1665.3654              1681.0409              1709.2431
 Red. masses --      3.9520                 6.8679                 5.6708
 Frc consts  --      6.4578                11.4349                 9.7611
 IR Inten    --    143.0428                12.4543               125.9691

                     61                     62                     63
                      A                      A                      A
 Frequencies --   3198.8441              3209.8185              3212.1478
 Red. masses --      1.0887                 1.0885                 1.0862
 Frc consts  --      6.5635                 6.6076                 6.6030
 IR Inten    --      0.8211                19.8413                 1.8946

                     64                     65                     66
                      A                      A                      A
 Frequencies --   3223.4160              3229.5155              3234.1560
 Red. masses --      1.0906                 1.0941                 1.0955
 Frc consts  --      6.6764                 6.7232                 6.7511
 IR Inten    --     10.4272                 8.6946                48.3427

                     67                     68                     69
                      A                      A                      A
 Frequencies --   3237.5349              3238.8382              3240.0409
 Red. masses --      1.0980                 1.0718                 1.0982
 Frc consts  --      6.7805                 6.6241                 6.7928
 IR Inten    --     88.2813               808.1846                11.3453

 - Thermochemistry -
 -------------------
 Temperature   298.150 Kelvin.  Pressure   1.00000 Atm.
 Atom     1 has atomic number  6 and mass  12.00000

 Molecular mass:   227.04049 amu.
 Principal axes and moments of inertia in atomic units:
                           1         2         3
     Eigenvalues --  1313.705616337.788557651.49416
           X           -0.69871   0.71541   0.00000
           Y            0.71541   0.69871  -0.00001
           Z            0.00001   0.00000   1.00000
 This molecule is an asymmetric top.
 Rotational symmetry number  1.
 Warning -- assumption of classical behavior for rotation
           may cause significant error
 Rotational temperatures (Kelvin)      0.06593     0.01367     0.01132
 Rotational constants (GHZ):           1.37378     0.28476     0.23587
 Zero-point vibrational energy     499699.1 (Joules/Mol)
                                  119.43095 (Kcal/Mol)
 Warning -- explicit consideration of  18 degrees of freedom as
           vibrations may cause significant error
 Vibrational temperatures:     70.60    85.84   175.07   220.00   286.41
          (Kelvin)            353.39   391.36   447.58   471.84   588.11
                              630.85   672.77   741.93   745.69   775.00
                              790.15   827.15   852.58   930.74   978.74
                             1029.57  1057.55  1087.61  1097.46  1117.18
                             1132.42  1216.46  1217.58  1272.92  1278.06
                             1290.19  1398.06  1405.12  1426.08  1454.93
                             1461.68  1514.19  1540.67  1580.61  1654.30
                             1659.19  1692.60  1705.37  1802.54  1849.54
                             1857.73  1921.82  1936.32  1975.34  1983.42
                             2115.43  2145.63  2163.30  2191.70  2236.13
                             2290.86  2371.15  2396.09  2418.64  2459.22
                             4602.42  4618.21  4621.56  4637.78  4646.55
                             4653.23  4658.09  4659.97  4661.70

 Zero-point correction=                           0.190325 (Hartree/Particle)
 Thermal correction to Energy=                    0.201990
 Thermal correction to Enthalpy=                  0.202935
 Thermal correction to Gibbs Free Energy=         0.151734
 Sum of electronic and zero-point Energies=          -1028.639943
 Sum of electronic and thermal Energies=             -1028.628278
 Sum of electronic and thermal Enthalpies=           -1028.627334
 Sum of electronic and thermal Free Energies=        -1028.678534

                     E (Thermal)             CV                S
                      KCal/Mol        Cal/Mol-Kelvin    Cal/Mol-Kelvin
 Total                  126.751             47.539            107.761
 Electronic               0.000              0.000              0.000
 Translational            0.889              2.981             42.162
 Rotational               0.889              2.981             32.521
 Vibrational            124.973             41.577             33.078
 Vibration     1          0.595              1.978              4.855
 Vibration     2          0.597              1.974              4.468
 Vibration     3          0.609              1.931              3.074
 Vibration     4          0.619              1.899              2.636
 Vibration     5          0.637              1.841              2.142
 Vibration     6          0.660              1.770              1.762
 Vibration     7          0.675              1.725              1.583
 Vibration     8          0.700              1.653              1.357
 Vibration     9          0.711              1.620              1.270
 Vibration    10          0.773              1.451              0.931
 Vibration    11          0.799              1.386              0.831
 Vibration    12          0.825              1.322              0.744
 Vibration    13          0.871              1.215              0.620
 Vibration    14          0.873              1.209              0.614
 Vibration    15          0.894              1.165              0.568
 Vibration    16          0.904              1.141              0.546
 Vibration    17          0.931              1.086              0.495
 Vibration    18          0.950              1.048              0.463

 Optimization completed.
    -- Stationary point found.
 Normal termination of Gaussian 16 at Tue Oct 27 23:36:19 2020.
