 Gaussian 16, Revision C.01,
 Gaussian 16:  ES64L-G16RevC.01  3-Jul-2019

 ----------------------------------------------------------------------
 #p opt=addgic freq wb97xd/cc-pvdz nosymm int=ultrafine scrf=(solvent=C
 arbonTetraChloride)
 ----------------------------------------------------------------------

 ------------------------------------------------
 NM 2D-scan of HBT TD-WB97XD pVDZ in CTC Relaxed.
 ------------------------------------------------
 Symbolic Z-matrix:
 Charge =  0 Multiplicity = 1

 SCF Done:  E(RwB97XD) =  -1028.79527160     A.U. after   16 cycles
 SCF Done:  E(RwB97XD) =  -1028.81109296     A.U. after   14 cycles
 SCF Done:  E(RwB97XD) =  -1028.81237349     A.U. after   13 cycles
 SCF Done:  E(RwB97XD) =  -1028.81296291     A.U. after   12 cycles
 SCF Done:  E(RwB97XD) =  -1028.81299385     A.U. after   10 cycles
 SCF Done:  E(RwB97XD) =  -1028.81299744     A.U. after    9 cycles
 Optimization completed.
    -- Stationary point found.
 Normal termination of Gaussian 16 at Tue Oct 27 23:25:51 2020.

 --------------------------------------------------------------------
 #P Geom=AllCheck Guess=TCheck SCRF=Check GenChk RwB97XD/CC-pVDZ Freq
 --------------------------------------------------------------------

 Structure from the checkpoint file:  "config_9_12.chk"
 ------------------------------------------------
 NM 2D-scan of HBT TD-WB97XD pVDZ in CTC Relaxed.
 ------------------------------------------------
 Charge =  0 Multiplicity = 1

                          Input orientation:
 ---------------------------------------------------------------------
 Center     Atomic      Atomic             Coordinates (Angstroms)
 Number     Number       Type             X           Y           Z
 ---------------------------------------------------------------------
      1          6           0        1.607637   -3.268634   -0.000043
      2          6           0        0.996120   -2.018422   -0.000024
      3          6           0        1.747887   -0.837420   -0.000004
      4          6           0        3.142574   -0.884434   -0.000001
      5          6           0        3.753731   -2.135181   -0.000019
      6          6           0        2.998383   -3.314909   -0.000040
      7          1           0        1.013795   -4.182894   -0.000058
      8          1           0        3.728478    0.034919    0.000015
      9          1           0        4.842821   -2.194580   -0.000018
     10          1           0        3.503482   -4.281400   -0.000054
     11          7           0        0.932975    0.283770    0.000012
     12         16           0       -0.725993   -1.655938   -0.000018
     13          6           0       -1.343731    1.092605    0.000019
     14          6           0       -2.736109    0.804334    0.000027
     15          6           0       -0.854354    2.464559    0.000022
     16          6           0       -3.666065    1.808481    0.000040
     17          1           0       -3.066075   -0.238588    0.000026
     18          6           0       -1.885235    3.479793    0.000027
     19          6           0       -3.217116    3.159359    0.000039
     20          1           0       -4.732101    1.581814    0.000048
     21          1           0       -1.551551    4.518985    0.000020
     22          1           0       -3.958701    3.962291    0.000044
     23          6           0       -0.384973    0.056314    0.000005
     24          8           0        0.375386    2.749655   -0.000008
     25          1           0        1.175591    1.301456    0.000036
 ---------------------------------------------------------------------

 SCF Done:  E(RwB97XD) =  -1028.81299744     A.U. after    1 cycles

 Alpha  occ. eigenvalues --  -89.09899 -19.21776 -14.51621 -10.41159 -10.37212
 Alpha  occ. eigenvalues --  -10.36177 -10.35922 -10.33212 -10.32866 -10.32460
 Alpha  occ. eigenvalues --  -10.32252 -10.31242 -10.30778 -10.30537 -10.29207
 Alpha  occ. eigenvalues --  -10.28682  -8.11946  -6.06822  -6.06446  -6.05957
 Alpha  occ. eigenvalues --   -1.12953  -1.09804  -0.98493  -0.95366  -0.93191
 Alpha  occ. eigenvalues --   -0.89227  -0.86581  -0.83836  -0.81991  -0.75664
 Alpha  occ. eigenvalues --   -0.72746  -0.72013  -0.68933  -0.67996  -0.64712
 Alpha  occ. eigenvalues --   -0.60897  -0.59711  -0.56791  -0.55816  -0.55737
 Alpha  occ. eigenvalues --   -0.54995  -0.53755  -0.52986  -0.50330  -0.49743
 Alpha  occ. eigenvalues --   -0.49068  -0.48234  -0.46727  -0.45556  -0.44801
 Alpha  occ. eigenvalues --   -0.44484  -0.43047  -0.41862  -0.40484  -0.36767
 Alpha  occ. eigenvalues --   -0.33479  -0.32175  -0.31612  -0.26548
 Alpha virt. eigenvalues --   -0.01202   0.03857   0.05938   0.06839   0.09115
 Alpha virt. eigenvalues --    0.11145   0.13911   0.14757   0.16189   0.17431
 Alpha virt. eigenvalues --    0.18821   0.20145   0.21080   0.21590   0.23108

 Mulliken charges:
               1
     1  C    0.016125
     2  C   -0.236164
     3  C    0.259204
     4  C   -0.010237
     5  C    0.009872
     6  C    0.003227
     7  H    0.024526
     8  H    0.030484
     9  H    0.026621
    10  H    0.025762
    11  N   -0.147254
    12  S    0.183507
    13  C   -0.109908
    14  C   -0.013491
    15  C    0.110517
    16  C   -0.029695
    17  H    0.008666
    18  C   -0.020316
    19  C    0.026253
    20  H    0.002703
    21  H    0.002907
    22  H    0.013904
    23  C    0.072517
    24  O   -0.398674
    25  H    0.148945
 Sum of Mulliken charges =  -0.00000

 Dipole moment (field-independent basis, Debye):
    X=              1.5878    Y=             -5.1436    Z=              0.0000  Tot=              5.3831
 Quadrupole moment (field-independent basis, Debye-Ang):
   XX=            -82.0526   YY=            -95.0184   ZZ=           -104.0122
   XY=             -6.9119   XZ=             -0.0000   YZ=              0.0003

  Exact polarizability:     285.771     -85.327     282.959      -0.001       0.002      62.884
 Approx polarizability:     265.614     -31.708     255.316      -0.001       0.002      81.958

                      1                      2                      3
                      A                      A                      A
 Frequencies --     55.9310                73.8635               107.4229
 Red. masses --      5.6771                 4.9014                 5.6710
 Frc consts  --      0.0105                 0.0158                 0.0386
 IR Inten    --      0.9523                 1.2021                 2.5760

                      4                      5                      6
                      A                      A                      A
 Frequencies --    138.6267               198.9511               232.8017
 Red. masses --      5.3903                 6.2217                 6.1107
 Frc consts  --      0.0610                 0.1451                 0.1951
 IR Inten    --      1.4939                 0.0042                 0.7963

                      7                      8                      9
                      A                      A                      A
 Frequencies --    265.7936               307.0624               309.5827
 Red. masses --      7.6229                 6.3896                 5.3783
 Frc consts  --      0.3173                 0.3550                 0.3037
 IR Inten    --      9.1419                 4.2217                 0.7845

                     10                     11                     12
                      A                      A                      A
 Frequencies --    408.7637               429.3522               449.7257
 Red. masses --     10.0763                 3.2335                 3.5643
 Frc consts  --      0.9920                 0.3512                 0.4247
 IR Inten    --      3.0939                 0.1884                10.3381

                     13                     14                     15
                      A                      A                      A
 Frequencies --    511.2694               528.5727               536.4258
 Red. masses --      8.6516                 2.7963                 7.2120
 Frc consts  --      1.3324                 0.4603                 1.2227
 IR Inten    --     10.4217                 5.3758                 6.0530

                     16                     17                     18
                      A                      A                      A
 Frequencies --    553.5139               562.2574               583.0394
 Red. masses --      6.8339                 3.8057                 6.9285
 Frc consts  --      1.2336                 0.7088                 1.3877
 IR Inten    --      5.9894                 0.0199                36.4133

                     19                     20                     21
                      A                      A                      A
 Frequencies --    637.7136               650.1435               719.5930
 Red. masses --      5.8094                 5.6944                 6.1324
 Frc consts  --      1.3920                 1.4181                 1.8709
 IR Inten    --      0.2444                 4.0060                31.8589

                     22                     23                     24
                      A                      A                      A
 Frequencies --    737.2505               751.4185               761.2353
 Red. masses --      8.1805                 2.6568                 1.4623
 Frc consts  --      2.6197                 0.8838                 0.4992
 IR Inten    --     70.1775                 8.0111                57.1148

                     25                     26                     27
                      A                      A                      A
 Frequencies --    775.9723               777.6790               833.9153
 Red. masses --      1.6527                 2.1865                 5.1141
 Frc consts  --      0.5863                 0.7791                 2.0954
 IR Inten    --     19.8790                38.2027                18.3565

                     28                     29                     30
                      A                      A                      A
 Frequencies --    861.8493               875.6384               883.3911
 Red. masses --      4.0375                 1.7012                 1.3796
 Frc consts  --      1.7669                 0.7685                 0.6343
 IR Inten    --      9.4640                 0.7549                 0.3810

                     31                     32                     33
                      A                      A                      A
 Frequencies --    902.0741               961.6739               967.5344
 Red. masses --      1.1881                 4.7342                 1.3230
 Frc consts  --      0.5696                 2.5796                 0.7297
 IR Inten    --     91.1803                36.4939                 0.1608

                     34                     35                     36
                      A                      A                      A
 Frequencies --    970.8840              1014.5155              1017.4766
 Red. masses --      1.3608                 1.3042                 1.3072
 Frc consts  --      0.7557                 0.7909                 0.7974
 IR Inten    --      1.2436                 0.0394                 0.4306

                     37                     38                     39
                      A                      A                      A
 Frequencies --   1039.2447              1056.3476              1082.7508
 Red. masses --      2.1902                 2.0638                 3.5293
 Frc consts  --      1.3937                 1.3569                 2.4378
 IR Inten    --     15.0679                11.4062                30.4457

                     40                     41                     42
                      A                      A                      A
 Frequencies --   1129.1048              1160.3185              1161.8376
 Red. masses --      2.1238                 1.3850                 1.2178
 Frc consts  --      1.5952                 1.0986                 0.9685
 IR Inten    --     79.3948                 0.7736                58.5175

                     43                     44                     45
                      A                      A                      A
 Frequencies --   1181.8859              1195.7880              1253.8268
 Red. masses --      1.1477                 1.2683                 1.9351
 Frc consts  --      0.9445                 1.0685                 1.7924
 IR Inten    --     15.2581                14.9430                17.2199

                     46                     47                     48
                      A                      A                      A
 Frequencies --   1288.7900              1316.3315              1361.9946
 Red. masses --      1.5788                 2.7272                 3.5008
 Frc consts  --      1.5450                 2.7841                 3.8262
 IR Inten    --     15.9500               128.6602                11.4674

                     49                     50                     51
                      A                      A                      A
 Frequencies --   1382.3019              1398.4154              1419.8998
 Red. masses --      4.1454                 5.6733                 2.7002
 Frc consts  --      4.6668                 6.5367                 3.2075
 IR Inten    --     89.1993                25.9205                17.6108

                     52                     53                     54
                      A                      A                      A
 Frequencies --   1492.7486              1505.0624              1519.6329
 Red. masses --      2.6806                 2.7216                 3.3212
 Frc consts  --      3.5194                 3.6323                 4.5187
 IR Inten    --     14.1607               148.7528                64.4507

                     55                     56                     57
                      A                      A                      A
 Frequencies --   1570.7793              1603.1691              1626.2934
 Red. masses --      4.1948                 5.1722                 8.2681
 Frc consts  --      6.0981                 7.8323                12.8841
 IR Inten    --   1646.9515               187.7393               403.6811

                     58                     59                     60
                      A                      A                      A
 Frequencies --   1667.9280              1681.8622              1712.5800
 Red. masses --      7.0571                 7.0153                 6.6502
 Frc consts  --     11.5673                11.6917                11.4917
 IR Inten    --     37.5669                86.9771               275.4748

                     61                     62                     63
                      A                      A                      A
 Frequencies --   3085.9286              3185.2740              3196.2984
 Red. masses --      1.0906                 1.0890                 1.0880
 Frc consts  --      6.1191                 6.5100                 6.5490
 IR Inten    --    356.9136                 3.2964                14.3876

                     64                     65                     66
                      A                      A                      A
 Frequencies --   3217.1155              3222.3875              3227.2656
 Red. masses --      1.0863                 1.0948                 1.0909
 Frc consts  --      6.6244                 6.6977                 6.6940
 IR Inten    --      1.2873                25.5535                 3.2026

                     67                     68                     69
                      A                      A                      A
 Frequencies --   3234.6890              3236.7930              3242.9353
 Red. masses --      1.0974                 1.0960                 1.0998
 Frc consts  --      6.7649                 6.7656                 6.8146
 IR Inten    --     18.6498                 6.5066                 9.3483

 - Thermochemistry -
 -------------------
 Temperature   298.150 Kelvin.  Pressure   1.00000 Atm.
 Atom     1 has atomic number  6 and mass  12.00000

 Molecular mass:   227.04049 amu.
 Principal axes and moments of inertia in atomic units:
                           1         2         3
     Eigenvalues --  1295.831656315.623707611.45535
           X           -0.70384   0.71036   0.00000
           Y            0.71036   0.70384  -0.00001
           Z            0.00001   0.00000   1.00000
 This molecule is an asymmetric top.
 Rotational symmetry number  1.
 Warning -- assumption of classical behavior for rotation
           may cause significant error
 Rotational temperatures (Kelvin)      0.06684     0.01371     0.01138
 Rotational constants (GHZ):           1.39273     0.28576     0.23711
 Zero-point vibrational energy     496513.0 (Joules/Mol)
                                  118.66946 (Kcal/Mol)
 Warning -- explicit consideration of  18 degrees of freedom as
           vibrations may cause significant error
 Vibrational temperatures:     80.47   106.27   154.56   199.45   286.25
          (Kelvin)            334.95   382.42   441.79   445.42   588.12
                              617.74   647.05   735.60   760.50   771.80
                              796.38   808.96   838.86   917.53   935.41
                             1035.33  1060.74  1081.12  1095.25  1116.45
                             1118.91  1199.82  1240.01  1259.85  1271.00
                             1297.88  1383.63  1392.07  1396.89  1459.66
                             1463.92  1495.24  1519.85  1557.84  1624.53
                             1669.44  1671.63  1700.47  1720.47  1803.98
                             1854.28  1893.91  1959.61  1988.82  2012.01
                             2042.92  2147.73  2165.45  2186.41  2260.00
                             2306.60  2339.87  2399.78  2419.82  2464.02
                             4439.96  4582.90  4598.76  4628.71  4636.30
                             4643.32  4654.00  4657.02  4665.86

 Zero-point correction=                           0.189112 (Hartree/Particle)
 Thermal correction to Energy=                    0.200910
 Thermal correction to Enthalpy=                  0.201854
 Thermal correction to Gibbs Free Energy=         0.150559
 Sum of electronic and zero-point Energies=          -1028.623886
 Sum of electronic and thermal Energies=             -1028.612087
 Sum of electronic and thermal Enthalpies=           -1028.611143
 Sum of electronic and thermal Free Energies=        -1028.662438

                     E (Thermal)             CV                S
                      KCal/Mol        Cal/Mol-Kelvin    Cal/Mol-Kelvin
 Total                  126.073             47.985            107.959
 Electronic               0.000              0.000              0.000
 Translational            0.889              2.981             42.162
 Rotational               0.889              2.981             32.499
 Vibrational            124.296             42.023             33.298
 Vibration     1          0.596              1.975              4.596
 Vibration     2          0.599              1.966              4.048
 Vibration     3          0.606              1.943              3.315
 Vibration     4          0.614              1.915              2.823
 Vibration     5          0.637              1.841              2.143
 Vibration     6          0.654              1.791              1.857
 Vibration     7          0.672              1.736              1.623
 Vibration     8          0.697              1.660              1.378
 Vibration     9          0.699              1.655              1.365
 Vibration    10          0.773              1.451              0.931
 Vibration    11          0.791              1.406              0.861
 Vibration    12          0.809              1.361              0.797
 Vibration    13          0.866              1.225              0.631
 Vibration    14          0.884              1.187              0.590
 Vibration    15          0.891              1.169              0.573
 Vibration    16          0.909              1.132              0.537
 Vibration    17          0.918              1.113              0.519
 Vibration    18          0.940              1.068              0.480

                           ! Non-Optimized Parameters !
 Normal termination of Gaussian 16 at Tue Oct 27 23:32:14 2020.
