 Gaussian 16, Revision C.01,
 Gaussian 16:  ES64L-G16RevC.01  3-Jul-2019

 ----------------------------------------------------------------------
 #p opt=addgic freq wb97xd/cc-pvdz nosymm int=ultrafine scrf=(solvent=C
 arbonTetraChloride)
 ----------------------------------------------------------------------

 ------------------------------------------------
 NM 2D-scan of HBT TD-WB97XD pVDZ in CTC Relaxed.
 ------------------------------------------------
 Symbolic Z-matrix:
 Charge =  0 Multiplicity = 1

 SCF Done:  E(RwB97XD) =  -1028.80836128     A.U. after   15 cycles
 SCF Done:  E(RwB97XD) =  -1028.81383188     A.U. after   13 cycles
 SCF Done:  E(RwB97XD) =  -1028.81421035     A.U. after   13 cycles
 SCF Done:  E(RwB97XD) =  -1028.81429394     A.U. after   13 cycles
 SCF Done:  E(RwB97XD) =  -1028.81448945     A.U. after   11 cycles
 SCF Done:  E(RwB97XD) =  -1028.81449610     A.U. after   10 cycles
 SCF Done:  E(RwB97XD) =  -1028.81446093     A.U. after   11 cycles
 SCF Done:  E(RwB97XD) =  -1028.81449911     A.U. after   11 cycles
 SCF Done:  E(RwB97XD) =  -1028.81450224     A.U. after    9 cycles
 Optimization completed.
    -- Stationary point found.
 Normal termination of Gaussian 16 at Tue Oct 27 22:34:51 2020.

 --------------------------------------------------------------------
 #P Geom=AllCheck Guess=TCheck SCRF=Check GenChk RwB97XD/CC-pVDZ Freq
 --------------------------------------------------------------------

 Structure from the checkpoint file:  "config_8_7.chk"
 ------------------------------------------------
 NM 2D-scan of HBT TD-WB97XD pVDZ in CTC Relaxed.
 ------------------------------------------------
 Charge =  0 Multiplicity = 1

                          Input orientation:
 ---------------------------------------------------------------------
 Center     Atomic      Atomic             Coordinates (Angstroms)
 Number     Number       Type             X           Y           Z
 ---------------------------------------------------------------------
      1          6           0        1.670993   -3.255707   -0.000050
      2          6           0        1.001587   -2.033270   -0.000023
      3          6           0        1.705606   -0.822071    0.000004
      4          6           0        3.102248   -0.807018    0.000008
      5          6           0        3.768399   -2.026564   -0.000019
      6          6           0        3.062124   -3.237988   -0.000049
      7          1           0        1.122071   -4.197599   -0.000071
      8          1           0        3.642058    0.140070    0.000030
      9          1           0        4.859057   -2.040398   -0.000019
     10          1           0        3.608715   -4.181778   -0.000070
     11          7           0        0.861264    0.270216    0.000024
     12         16           0       -0.734373   -1.728576   -0.000013
     13          6           0       -1.385341    1.061065    0.000017
     14          6           0       -2.780756    0.848059    0.000022
     15          6           0       -0.836197    2.397580    0.000009
     16          6           0       -3.658668    1.909427    0.000031
     17          1           0       -3.163882   -0.176312    0.000023
     18          6           0       -1.785007    3.467188    0.000025
     19          6           0       -3.140664    3.224729    0.000035
     20          1           0       -4.735316    1.739709    0.000037
     21          1           0       -1.389777    4.484105    0.000029
     22          1           0       -3.833197    4.069850    0.000046
     23          6           0       -0.432694   -0.008391    0.000012
     24          8           0        0.430775    2.616025    0.000012
     25          1           0        0.976092    1.417983    0.000035
 ---------------------------------------------------------------------

 SCF Done:  E(RwB97XD) =  -1028.81450224     A.U. after    1 cycles

 Alpha  occ. eigenvalues --  -89.09833 -19.23062 -14.49737 -10.40735 -10.36513
 Alpha  occ. eigenvalues --  -10.36408 -10.35727 -10.33056 -10.32536 -10.32240
 Alpha  occ. eigenvalues --  -10.32136 -10.31424 -10.31062 -10.30891 -10.29391
 Alpha  occ. eigenvalues --  -10.28983  -8.11855  -6.06724  -6.06353  -6.05884
 Alpha  occ. eigenvalues --   -1.13339  -1.09957  -0.98117  -0.95395  -0.92809
 Alpha  occ. eigenvalues --   -0.89080  -0.86161  -0.83936  -0.82421  -0.75770
 Alpha  occ. eigenvalues --   -0.71972  -0.71260  -0.68814  -0.68275  -0.64022
 Alpha  occ. eigenvalues --   -0.60855  -0.59567  -0.57163  -0.55766  -0.55411
 Alpha  occ. eigenvalues --   -0.54717  -0.53587  -0.52620  -0.50846  -0.49976
 Alpha  occ. eigenvalues --   -0.49347  -0.47690  -0.46543  -0.45371  -0.44980
 Alpha  occ. eigenvalues --   -0.44329  -0.43170  -0.41828  -0.40585  -0.36543
 Alpha  occ. eigenvalues --   -0.33604  -0.33153  -0.31558  -0.27304
 Alpha virt. eigenvalues --   -0.01021   0.04083   0.06372   0.06956   0.08511
 Alpha virt. eigenvalues --    0.10988   0.13819   0.14815   0.16217   0.17631
 Alpha virt. eigenvalues --    0.19140   0.20523   0.21487   0.21884   0.22961

 Mulliken charges:
               1
     1  C    0.013750
     2  C   -0.237167
     3  C    0.273684
     4  C   -0.009844
     5  C    0.009533
     6  C    0.002601
     7  H    0.023620
     8  H    0.028939
     9  H    0.025238
    10  H    0.025015
    11  N   -0.227251
    12  S    0.179432
    13  C   -0.115907
    14  C   -0.011529
    15  C    0.115808
    16  C   -0.025061
    17  H    0.006046
    18  C   -0.012217
    19  C    0.024478
    20  H    0.004276
    21  H    0.005627
    22  H    0.014643
    23  C    0.072599
    24  O   -0.381439
    25  H    0.195126
 Sum of Mulliken charges =  -0.00000

 Dipole moment (field-independent basis, Debye):
    X=              1.1091    Y=             -4.4885    Z=             -0.0000  Tot=              4.6235
 Quadrupole moment (field-independent basis, Debye-Ang):
   XX=            -82.6277   YY=            -92.9914   ZZ=           -104.0101
   XY=             -7.0745   XZ=             -0.0001   YZ=              0.0003

  Exact polarizability:     282.047     -78.295     272.894      -0.001       0.002      62.923
 Approx polarizability:     265.474     -28.742     251.960      -0.001       0.002      82.113

 ******    1 imaginary frequencies (negative Signs) ******

                      1                      2                      3
                      A                      A                      A
 Frequencies --   -824.8085                57.8324                72.2990
 Red. masses --      1.2541                 5.3322                 5.4441
 Frc consts  --      0.5027                 0.0105                 0.0168
 IR Inten    --    791.4144                 0.5959                 1.2330

                      4                      5                      6
                      A                      A                      A
 Frequencies --    141.5364               151.2857               201.4640
 Red. masses --      5.5717                 5.1977                 6.1758
 Frc consts  --      0.0658                 0.0701                 0.1477
 IR Inten    --      0.6426                 0.9034                 0.0994

                      7                      8                      9
                      A                      A                      A
 Frequencies --    242.3378               279.1735               317.8570
 Red. masses --      6.1834                 7.1424                 5.3213
 Frc consts  --      0.2140                 0.3280                 0.3168
 IR Inten    --      0.5193                 2.2689                 0.6298

                     10                     11                     12
                      A                      A                      A
 Frequencies --    387.9803               419.5858               433.2442
 Red. masses --      5.8891                11.1368                 3.1649
 Frc consts  --      0.5223                 1.1552                 0.3500
 IR Inten    --      0.3886                 1.5472                 1.1723

                     13                     14                     15
                      A                      A                      A
 Frequencies --    456.2157               514.6707               537.8700
 Red. masses --      3.6299                 8.8138                 3.1319
 Frc consts  --      0.4451                 1.3755                 0.5338
 IR Inten    --      9.6654                 6.2030                 4.3562

                     16                     17                     18
                      A                      A                      A
 Frequencies --    552.8158               567.7899               579.3862
 Red. masses --      8.8513                 3.6675                 7.3152
 Frc consts  --      1.5937                 0.6966                 1.4468
 IR Inten    --      6.0808                 0.1018                13.1143

                     19                     20                     21
                      A                      A                      A
 Frequencies --    612.6251               647.7509               696.5596
 Red. masses --      7.1464                 6.4958                 6.2465
 Frc consts  --      1.5803                 1.6058                 1.7857
 IR Inten    --     13.1811                 0.0000                13.8155

                     22                     23                     24
                      A                      A                      A
 Frequencies --    720.8961               753.1656               765.9510
 Red. masses --      6.5619                 2.4679                 1.5378
 Frc consts  --      2.0092                 0.8248                 0.5316
 IR Inten    --     15.6549                14.1075                42.8047

                     25                     26                     27
                      A                      A                      A
 Frequencies --    777.9914               778.1766               780.5877
 Red. masses --      7.0296                 2.3689                 1.6373
 Frc consts  --      2.5069                 0.8452                 0.5878
 IR Inten    --     33.5577                20.9687                47.0125

                     28                     29                     30
                      A                      A                      A
 Frequencies --    852.4603               879.3691               885.3978
 Red. masses --      6.2671                 1.7315                 1.3874
 Frc consts  --      2.6833                 0.7889                 0.6408
 IR Inten    --     16.3616                 8.3394                 0.4054

                     31                     32                     33
                      A                      A                      A
 Frequencies --    937.2474               968.8228               974.2268
 Red. masses --      6.7303                 1.3347                 1.3596
 Frc consts  --      3.4833                 0.7381                 0.7603
 IR Inten    --     11.8115                 0.5596                 1.3073

                     34                     35                     36
                      A                      A                      A
 Frequencies --   1013.5252              1016.3846              1019.0599
 Red. masses --      1.3041                 1.3046                 7.0584
 Frc consts  --      0.7893                 0.7940                 4.3187
 IR Inten    --      0.2483                 0.0011                 6.4922

                     37                     38                     39
                      A                      A                      A
 Frequencies --   1053.6489              1055.3851              1104.9220
 Red. masses --      2.0309                 1.9989                 3.6598
 Frc consts  --      1.3284                 1.3118                 2.6325
 IR Inten    --      3.8493                11.5489                 4.1496

                     40                     41                     42
                      A                      A                      A
 Frequencies --   1143.9812              1156.7210              1158.5098
 Red. masses --      1.0624                 1.4116                 1.2951
 Frc consts  --      0.8192                 1.1128                 1.0241
 IR Inten    --     70.2680                10.8470                 3.4500

                     43                     44                     45
                      A                      A                      A
 Frequencies --   1177.9600              1186.3953              1258.9414
 Red. masses --      1.1188                 1.1834                 1.8747
 Frc consts  --      0.9147                 0.9814                 1.7506
 IR Inten    --     82.1034                 0.4488                39.9768

                     46                     47                     48
                      A                      A                      A
 Frequencies --   1290.3170              1328.7364              1364.9078
 Red. masses --      1.5303                 3.0780                 3.6369
 Frc consts  --      1.5012                 3.2018                 3.9920
 IR Inten    --     19.9433               317.4021                 9.0126

                     49                     50                     51
                      A                      A                      A
 Frequencies --   1379.6977              1389.2407              1408.7496
 Red. masses --      4.7974                 6.9718                 2.6200
 Frc consts  --      5.3805                 7.9277                 3.0635
 IR Inten    --     20.6813                 8.0858                16.4829

                     52                     53                     54
                      A                      A                      A
 Frequencies --   1494.6449              1504.7533              1521.4335
 Red. masses --      2.7331                 2.8225                 3.4237
 Frc consts  --      3.5973                 3.7655                 4.6693
 IR Inten    --     20.8625                25.7313                34.5175

                     55                     56                     57
                      A                      A                      A
 Frequencies --   1567.9256              1589.4104              1604.8728
 Red. masses --      6.5284                 4.6688                 6.5895
 Frc consts  --      9.4561                 6.9491                 9.9996
 IR Inten    --   1931.7698               184.3516                44.1900

                     58                     59                     60
                      A                      A                      A
 Frequencies --   1660.7802              1681.8431              1710.4474
 Red. masses --      7.0128                 6.7580                 6.4652
 Frc consts  --     11.3963                11.2626                11.1443
 IR Inten    --      6.8076                 8.8277               177.8008

                     61                     62                     63
                      A                      A                      A
 Frequencies --   2057.6039              3186.4171              3196.7911
 Red. masses --      1.1213                 1.0893                 1.0885
 Frc consts  --      2.7971                 6.5161                 6.5539
 IR Inten    --    364.2961                 4.0459                12.1484

                     64                     65                     66
                      A                      A                      A
 Frequencies --   3215.7609              3223.8031              3226.6684
 Red. masses --      1.0866                 1.0941                 1.0910
 Frc consts  --      6.6202                 6.6998                 6.6925
 IR Inten    --      1.9563                18.2718                 3.3782

                     67                     68                     69
                      A                      A                      A
 Frequencies --   3234.5102              3237.3938              3243.0243
 Red. masses --      1.0974                 1.0961                 1.0995
 Frc consts  --      6.7644                 6.7686                 6.8133
 IR Inten    --     18.7462                 7.5056                 9.5078

 - Thermochemistry -
 -------------------
 Temperature   298.150 Kelvin.  Pressure   1.00000 Atm.
 Atom     1 has atomic number  6 and mass  12.00000

 Molecular mass:   227.04049 amu.
 Principal axes and moments of inertia in atomic units:
                           1         2         3
     Eigenvalues --  1301.853596249.314167551.16776
           X           -0.70601   0.70821   0.00000
           Y            0.70821   0.70601  -0.00001
           Z            0.00001   0.00001   1.00000
 This molecule is an asymmetric top.
 Rotational symmetry number  1.
 Warning -- assumption of classical behavior for rotation
           may cause significant error
 Rotational temperatures (Kelvin)      0.06653     0.01386     0.01147
 Rotational constants (GHZ):           1.38629     0.28879     0.23900
    1 imaginary frequencies ignored.
 Zero-point vibrational energy     488134.7 (Joules/Mol)
                                  116.66698 (Kcal/Mol)
 Warning -- explicit consideration of  18 degrees of freedom as
           vibrations may cause significant error
 Vibrational temperatures:     83.21   104.02   203.64   217.67   289.86
          (Kelvin)            348.67   401.67   457.33   558.22   603.69
                              623.34   656.39   740.50   773.87   795.38
                              816.92   833.61   881.43   931.97  1002.19
                             1037.21  1083.64  1102.03  1119.36  1119.62
                             1123.09  1226.50  1265.22  1273.89  1348.49
                             1393.92  1401.70  1458.24  1462.35  1466.20
                             1515.97  1518.46  1589.74  1645.93  1664.26
                             1666.84  1694.82  1706.96  1811.34  1856.48
                             1911.76  1963.80  1985.08  1998.81  2026.88
                             2150.46  2165.00  2189.00  2255.90  2286.81
                             2309.05  2389.49  2419.80  2460.95  2960.43
                             4584.54  4599.47  4626.76  4638.33  4642.46
                             4653.74  4657.89  4665.99

 Zero-point correction=                           0.185921 (Hartree/Particle)
 Thermal correction to Energy=                    0.197294
 Thermal correction to Enthalpy=                  0.198238
 Thermal correction to Gibbs Free Energy=         0.147860
 Sum of electronic and zero-point Energies=          -1028.628582
 Sum of electronic and thermal Energies=             -1028.617208
 Sum of electronic and thermal Enthalpies=           -1028.616264
 Sum of electronic and thermal Free Energies=        -1028.666642

                     E (Thermal)             CV                S
                      KCal/Mol        Cal/Mol-Kelvin    Cal/Mol-Kelvin
 Total                  123.804             46.549            106.029
 Electronic               0.000              0.000              0.000
 Translational            0.889              2.981             42.162
 Rotational               0.889              2.981             32.485
 Vibrational            122.027             40.587             31.382
 Vibration     1          0.596              1.974              4.530
 Vibration     2          0.598              1.967              4.090
 Vibration     3          0.615              1.912              2.783
 Vibration     4          0.619              1.901              2.656
 Vibration     5          0.638              1.838              2.120
 Vibration     6          0.659              1.775              1.786
 Vibration     7          0.679              1.712              1.539
 Vibration     8          0.704              1.639              1.321
 Vibration     9          0.756              1.496              1.008
 Vibration    10          0.782              1.428              0.893
 Vibration    11          0.794              1.398              0.848
 Vibration    12          0.814              1.347              0.777
 Vibration    13          0.870              1.217              0.622
 Vibration    14          0.893              1.166              0.570
 Vibration    15          0.908              1.134              0.538
 Vibration    16          0.924              1.101              0.509
 Vibration    17          0.936              1.076              0.487
 Vibration    18          0.972              1.005              0.428

 Optimization completed.
    -- Stationary point found.
 Normal termination of Gaussian 16 at Tue Oct 27 22:40:57 2020.
