 Gaussian 16, Revision C.01,
 Gaussian 16:  ES64L-G16RevC.01  3-Jul-2019

 ----------------------------------------------------------------------
 #p opt=addgic freq wb97xd/cc-pvdz nosymm int=ultrafine scrf=(solvent=C
 arbonTetraChloride)
 ----------------------------------------------------------------------

 ------------------------------------------------
 NM 2D-scan of HBT TD-WB97XD pVDZ in CTC Relaxed.
 ------------------------------------------------
 Symbolic Z-matrix:
 Charge =  0 Multiplicity = 1

 SCF Done:  E(RwB97XD) =  -1028.20961360     A.U. after   15 cycles
 SCF Done:  E(RwB97XD) =  -1028.65396937     A.U. after   13 cycles
 SCF Done:  E(RwB97XD) =  -1028.80801735     A.U. after   15 cycles
 SCF Done:  E(RwB97XD) =  -1028.81240082     A.U. after   12 cycles
 SCF Done:  E(RwB97XD) =  -1028.81323765     A.U. after   12 cycles
 SCF Done:  E(RwB97XD) =  -1028.81335619     A.U. after   11 cycles
 SCF Done:  E(RwB97XD) =  -1028.81336957     A.U. after    9 cycles
 SCF Done:  E(RwB97XD) =  -1028.81337024     A.U. after    8 cycles
 SCF Done:  E(RwB97XD) =  -1028.81337035     A.U. after    7 cycles
 Optimization completed.
    -- Stationary point found.
 Normal termination of Gaussian 16 at Tue Oct 27 20:51:54 2020.

 --------------------------------------------------------------------
 #P Geom=AllCheck Guess=TCheck SCRF=Check GenChk RwB97XD/CC-pVDZ Freq
 --------------------------------------------------------------------

 Structure from the checkpoint file:  "config_1_2.chk"
 ------------------------------------------------
 NM 2D-scan of HBT TD-WB97XD pVDZ in CTC Relaxed.
 ------------------------------------------------
 Charge =  0 Multiplicity = 1

                          Input orientation:
 ---------------------------------------------------------------------
 Center     Atomic      Atomic             Coordinates (Angstroms)
 Number     Number       Type             X           Y           Z
 ---------------------------------------------------------------------
      1          6           0        1.767469   -3.337659    0.000121
      2          6           0        0.966785   -2.179903   -0.000089
      3          6           0        1.612409   -0.928048   -0.000204
      4          6           0        3.002957   -0.788280   -0.000167
      5          6           0        3.782006   -1.924538    0.000009
      6          6           0        3.157339   -3.185762    0.000164
      7          1           0        1.330336   -4.336933    0.000204
      8          1           0        3.424809    0.217171   -0.000270
      9          1           0        4.870380   -1.852881    0.000041
     10          1           0        3.777531   -4.084016    0.000300
     11          7           0        0.819930    0.179270   -0.000283
     12         16           0       -0.783091   -1.893797   -0.000364
     13          6           0       -1.386657    1.068492   -0.000108
     14          6           0       -2.799048    0.935095   -0.000068
     15          6           0       -0.889594    2.416499    0.000017
     16          6           0       -3.649834    2.028822    0.000065
     17          1           0       -3.229108   -0.069617   -0.000150
     18          6           0       -1.764622    3.507544    0.000161
     19          6           0       -3.126541    3.331091    0.000180
     20          1           0       -4.729035    1.873803    0.000085
     21          1           0       -1.306067    4.496459    0.000260
     22          1           0       -3.789220    4.198089    0.000297
     23          6           0       -0.445368   -0.081361   -0.000241
     24          8           0        0.387320    2.866101    0.000078
     25          1           0        0.999765    2.129681    0.000064
 ---------------------------------------------------------------------

 SCF Done:  E(RwB97XD) =  -1028.81337035     A.U. after    1 cycles

 Alpha  occ. eigenvalues --  -89.08846 -19.28801 -14.46379 -10.39671 -10.37719
 Alpha  occ. eigenvalues --  -10.35129 -10.34295 -10.33393 -10.32550 -10.31924
 Alpha  occ. eigenvalues --  -10.31620 -10.31313 -10.31226 -10.31190 -10.30276
 Alpha  occ. eigenvalues --  -10.29851  -8.10648  -6.05531  -6.05179  -6.04676
 Alpha  occ. eigenvalues --   -1.16637  -1.08792  -0.97070  -0.95939  -0.90716
 Alpha  occ. eigenvalues --   -0.88385  -0.85192  -0.84364  -0.82810  -0.75429
 Alpha  occ. eigenvalues --   -0.71247  -0.70693  -0.69541  -0.67820  -0.62910
 Alpha  occ. eigenvalues --   -0.59906  -0.58499  -0.58211  -0.56300  -0.54418
 Alpha  occ. eigenvalues --   -0.53513  -0.52999  -0.52264  -0.50881  -0.50306
 Alpha  occ. eigenvalues --   -0.49092  -0.47693  -0.45647  -0.45138  -0.44828
 Alpha  occ. eigenvalues --   -0.43640  -0.42898  -0.42457  -0.39523  -0.37225
 Alpha  occ. eigenvalues --   -0.36038  -0.32016  -0.31665  -0.29070
 Alpha virt. eigenvalues --   -0.00371   0.04867   0.06723   0.07051   0.07182
 Alpha virt. eigenvalues --    0.11688   0.12032   0.15088   0.15568   0.17223
 Alpha virt. eigenvalues --    0.18979   0.19986   0.21704   0.22315   0.22848

 Mulliken charges:
               1
     1  C   -0.007656
     2  C   -0.205927
     3  C    0.226215
     4  C   -0.011810
     5  C    0.008822
     6  C   -0.003972
     7  H    0.022052
     8  H    0.014047
     9  H    0.018388
    10  H    0.021313
    11  N   -0.297198
    12  S    0.124122
    13  C   -0.071308
    14  C   -0.011512
    15  C    0.065695
    16  C   -0.007425
    17  H    0.009321
    18  C    0.024644
    19  C    0.017506
    20  H    0.010901
    21  H    0.017382
    22  H    0.017736
    23  C    0.056495
    24  O   -0.184568
    25  H    0.146737
 Sum of Mulliken charges =  -0.00000

 Dipole moment (field-independent basis, Debye):
    X=              0.3245    Y=             -1.7261    Z=              0.0002  Tot=              1.7563
 Quadrupole moment (field-independent basis, Debye-Ang):
   XX=            -82.5184   YY=            -89.6482   ZZ=           -104.4024
   XY=             -6.5162   XZ=              0.0004   YZ=              0.0001

  Exact polarizability:     275.975     -63.927     257.782       0.003       0.002      63.313
 Approx polarizability:     264.554     -21.477     244.911       0.004       0.001      82.412

                      1                      2                      3
                      A                      A                      A
 Frequencies --     34.5444                43.2128               104.5168
 Red. masses --      5.2274                 6.4205                 5.6168
 Frc consts  --      0.0037                 0.0071                 0.0362
 IR Inten    --      0.2413                 1.2208                 0.7713

                      4                      5                      6
                      A                      A                      A
 Frequencies --    148.0544               199.4877               239.7424
 Red. masses --      4.7398                 5.3810                 8.1742
 Frc consts  --      0.0612                 0.1262                 0.2768
 IR Inten    --      0.0128                 0.0049                 7.3730

                      7                      8                      9
                      A                      A                      A
 Frequencies --    241.1790               277.5352               321.7454
 Red. masses --      5.8779                 6.1513                 4.6628
 Frc consts  --      0.2014                 0.2792                 0.2844
 IR Inten    --      0.9167                 2.8318                 2.2971

                     10                     11                     12
                      A                      A                      A
 Frequencies --    389.0720               441.5546               459.6201
 Red. masses --      8.0578                 3.1090                 1.2976
 Frc consts  --      0.7187                 0.3571                 0.1615
 IR Inten    --      0.1946                 0.0499                96.2066

                     13                     14                     15
                      A                      A                      A
 Frequencies --    468.3284               476.5578               509.4868
 Red. masses --      4.4565                 2.6186                 8.9639
 Frc consts  --      0.5759                 0.3504                 1.3709
 IR Inten    --      2.6354                 6.2385                 1.2351

                     16                     17                     18
                      A                      A                      A
 Frequencies --    539.9060               545.0099               572.3098
 Red. masses --      3.4423                 8.6702                 3.6780
 Frc consts  --      0.5912                 1.5174                 0.7098
 IR Inten    --      4.5299                 3.4247                 0.3982

                     19                     20                     21
                      A                      A                      A
 Frequencies --    596.7667               647.0647               655.8831
 Red. masses --      7.7209                 5.7991                 8.5825
 Frc consts  --      1.6200                 1.4306                 2.1753
 IR Inten    --      6.6722                 4.1887                65.6244

                     22                     23                     24
                      A                      A                      A
 Frequencies --    673.6067               709.9540               753.7589
 Red. masses --      6.6069                 7.0257                 1.9732
 Frc consts  --      1.7663                 2.0864                 0.6605
 IR Inten    --      1.4692                 2.8328                21.8395

                     25                     26                     27
                      A                      A                      A
 Frequencies --    763.3554               779.0182               787.6210
 Red. masses --      3.8838                 1.3045                 1.8846
 Frc consts  --      1.3334                 0.4664                 0.6888
 IR Inten    --      5.9517                62.2864                31.9693

                     28                     29                     30
                      A                      A                      A
 Frequencies --    828.9327               886.6153               887.5601
 Red. masses --      6.3821                 1.4477                 1.5074
 Frc consts  --      2.5837                 0.6705                 0.6997
 IR Inten    --     36.4427                 3.6630                 0.9417

                     31                     32                     33
                      A                      A                      A
 Frequencies --    891.6399               956.9656               975.5162
 Red. masses --      6.3528                 7.5570                 1.3570
 Frc consts  --      2.9757                 4.0775                 0.7608
 IR Inten    --      1.0922                86.6441                 2.5989

                     34                     35                     36
                      A                      A                      A
 Frequencies --    976.0803              1012.0994              1014.2230
 Red. masses --      1.3578                 1.2998                 1.3061
 Frc consts  --      0.7622                 0.7845                 0.7916
 IR Inten    --      0.0100                 0.2761                 0.0052

                     37                     38                     39
                      A                      A                      A
 Frequencies --   1048.2161              1069.4008              1083.8845
 Red. masses --      2.0896                 2.1723                 4.8425
 Frc consts  --      1.3527                 1.4637                 3.3519
 IR Inten    --      8.1315                28.8505                 5.0339

                     40                     41                     42
                      A                      A                      A
 Frequencies --   1126.7132              1147.8411              1176.8399
 Red. masses --      1.6835                 1.2567                 1.1136
 Frc consts  --      1.2592                 0.9756                 0.9087
 IR Inten    --     53.7643                 9.6239                70.3268

                     43                     44                     45
                      A                      A                      A
 Frequencies --   1182.0959              1192.1120              1258.3799
 Red. masses --      1.1873                 1.2914                 4.8432
 Frc consts  --      0.9775                 1.0813                 4.5186
 IR Inten    --      2.0875               139.5712                36.8301

                     46                     47                     48
                      A                      A                      A
 Frequencies --   1262.6725              1278.7139              1336.6343
 Red. masses --      2.1312                 1.6681                 1.8446
 Frc consts  --      2.0020                 1.6070                 1.9417
 IR Inten    --     46.8494                 2.9953                 2.4563

                     49                     50                     51
                      A                      A                      A
 Frequencies --   1354.0302              1370.7636              1378.9157
 Red. masses --      3.9363                 4.6702                 3.3738
 Frc consts  --      4.2521                 5.1703                 3.7796
 IR Inten    --     19.9617                77.2180                 5.8579

                     52                     53                     54
                      A                      A                      A
 Frequencies --   1487.1194              1489.8402              1511.6716
 Red. masses --      2.6182                 2.9457                 3.0313
 Frc consts  --      3.4115                 3.8523                 4.0813
 IR Inten    --     28.8671                19.8776               103.8436

                     55                     56                     57
                      A                      A                      A
 Frequencies --   1526.7252              1616.1173              1634.8310
 Red. masses --      3.2549                 8.1376                 6.2441
 Frc consts  --      4.4701                12.5225                 9.8325
 IR Inten    --      7.7619               158.1571                37.4062

                     58                     59                     60
                      A                      A                      A
 Frequencies --   1643.8486              1686.8870              1710.1690
 Red. masses --      7.6970                 6.9483                 6.6612
 Frc consts  --     12.2546                11.6493                11.4784
 IR Inten    --     73.5696                 0.6778                59.6836

                     61                     62                     63
                      A                      A                      A
 Frequencies --   3193.6860              3207.4567              3210.6960
 Red. masses --      1.0891                 1.0864                 1.0884
 Frc consts  --      6.5446                 6.5850                 6.6103
 IR Inten    --      3.8387                 0.4882                 5.0852

                     64                     65                     66
                      A                      A                      A
 Frequencies --   3220.1573              3227.5899              3229.3501
 Red. masses --      1.0897                 1.0957                 1.0941
 Frc consts  --      6.6576                 6.7249                 6.7228
 IR Inten    --      3.2081                15.9785                13.7347

                     67                     68                     69
                      A                      A                      A
 Frequencies --   3237.3795              3237.5399              3893.5571
 Red. masses --      1.0999                 1.1000                 1.0654
 Frc consts  --      6.7920                 6.7931                 9.5161
 IR Inten    --     24.9528                 2.4336               333.2294

 - Thermochemistry -
 -------------------
 Temperature   298.150 Kelvin.  Pressure   1.00000 Atm.
 Atom     1 has atomic number  6 and mass  12.00000

 Molecular mass:   227.04049 amu.
 Principal axes and moments of inertia in atomic units:
                           1         2         3
     Eigenvalues --  1388.130816424.194527812.32528
           X           -0.68807   0.72564  -0.00003
           Y            0.72564   0.68807  -0.00005
           Z            0.00002   0.00005   1.00000
 This molecule is an asymmetric top.
 Rotational symmetry number  1.
 Warning -- assumption of classical behavior for rotation
           may cause significant error
 Rotational temperatures (Kelvin)      0.06240     0.01348     0.01109
 Rotational constants (GHZ):           1.30012     0.28093     0.23101
 Zero-point vibrational energy     496691.7 (Joules/Mol)
                                  118.71215 (Kcal/Mol)
 Warning -- explicit consideration of  19 degrees of freedom as
           vibrations may cause significant error
 Vibrational temperatures:     49.70    62.17   150.38   213.02   287.02
          (Kelvin)            344.94   347.00   399.31   462.92   559.79
                              635.30   661.29   673.82   685.66   733.04
                              776.80   784.15   823.43   858.61   930.98
                              943.67   969.17  1021.47  1084.49  1098.30
                             1120.83  1133.21  1192.65  1275.64  1277.00
                             1282.87  1376.86  1403.55  1404.36  1456.19
                             1459.24  1508.15  1538.63  1559.47  1621.09
                             1651.49  1693.21  1700.77  1715.18  1810.53
                             1816.70  1839.78  1923.12  1948.15  1972.22
                             1983.95  2139.63  2143.55  2174.96  2196.62
                             2325.23  2352.16  2365.13  2427.05  2460.55
                             4595.00  4614.81  4619.48  4633.09  4643.78
                             4646.31  4657.87  4658.10  5601.96

 Zero-point correction=                           0.189180 (Hartree/Particle)
 Thermal correction to Energy=                    0.201359
 Thermal correction to Enthalpy=                  0.202303
 Thermal correction to Gibbs Free Energy=         0.149575
 Sum of electronic and zero-point Energies=          -1028.624190
 Sum of electronic and thermal Energies=             -1028.612012
 Sum of electronic and thermal Enthalpies=           -1028.611068
 Sum of electronic and thermal Free Energies=        -1028.663795

                     E (Thermal)             CV                S
                      KCal/Mol        Cal/Mol-Kelvin    Cal/Mol-Kelvin
 Total                  126.354             49.048            110.975
 Electronic               0.000              0.000              0.000
 Translational            0.889              2.981             42.162
 Rotational               0.889              2.981             32.610
 Vibrational            124.577             43.086             36.203
 Vibration     1          0.594              1.983              5.550
 Vibration     2          0.595              1.980              5.106
 Vibration     3          0.605              1.946              3.368
 Vibration     4          0.617              1.905              2.697
 Vibration     5          0.638              1.841              2.138
 Vibration     6          0.657              1.780              1.805
 Vibration     7          0.658              1.777              1.794
 Vibration     8          0.679              1.715              1.549
 Vibration     9          0.707              1.632              1.301
 Vibration    10          0.757              1.494              1.004
 Vibration    11          0.801              1.380              0.822
 Vibration    12          0.818              1.340              0.767
 Vibration    13          0.826              1.320              0.742
 Vibration    14          0.833              1.302              0.719
 Vibration    15          0.865              1.229              0.635
 Vibration    16          0.895              1.162              0.565
 Vibration    17          0.900              1.151              0.555
 Vibration    18          0.929              1.091              0.500
 Vibration    19          0.955              1.039              0.455

 Optimization completed.
    -- Stationary point found.
 Normal termination of Gaussian 16 at Tue Oct 27 20:57:47 2020.
