 Gaussian 16, Revision C.01,
 Gaussian 16:  ES64L-G16RevC.01  3-Jul-2019

 ----------------------------------------------------------------------
 #p opt=addgic freq wb97xd/cc-pvdz nosymm int=ultrafine scrf=(solvent=C
 arbonTetraChloride)
 ----------------------------------------------------------------------

 ------------------------------------------------
 NM 2D-scan of HBT TD-WB97XD pVDZ in CTC Relaxed.
 ------------------------------------------------
 Symbolic Z-matrix:
 Charge =  0 Multiplicity = 1

 SCF Done:  E(RwB97XD) =  -1028.81807982     A.U. after   15 cycles
 SCF Done:  E(RwB97XD) =  -1028.82483358     A.U. after   13 cycles
 SCF Done:  E(RwB97XD) =  -1028.82527331     A.U. after   12 cycles
 SCF Done:  E(RwB97XD) =  -1028.82609898     A.U. after   11 cycles
 SCF Done:  E(RwB97XD) =  -1028.82612681     A.U. after   10 cycles
 SCF Done:  E(RwB97XD) =  -1028.82612846     A.U. after    9 cycles
 SCF Done:  E(RwB97XD) =  -1028.82612835     A.U. after    8 cycles
 SCF Done:  E(RwB97XD) =  -1028.82612865     A.U. after    7 cycles
 Optimization completed.
    -- Stationary point found.
 Normal termination of Gaussian 16 at Tue Oct 27 22:15:13 2020.

 --------------------------------------------------------------------
 #P Geom=AllCheck Guess=TCheck SCRF=Check GenChk RwB97XD/CC-pVDZ Freq
 --------------------------------------------------------------------

 Structure from the checkpoint file:  "config_5_6.chk"
 ------------------------------------------------
 NM 2D-scan of HBT TD-WB97XD pVDZ in CTC Relaxed.
 ------------------------------------------------
 Charge =  0 Multiplicity = 1

                          Input orientation:
 ---------------------------------------------------------------------
 Center     Atomic      Atomic             Coordinates (Angstroms)
 Number     Number       Type             X           Y           Z
 ---------------------------------------------------------------------
      1          6           0        1.692566   -3.276938   -0.000043
      2          6           0        0.995444   -2.066293   -0.000029
      3          6           0        1.683796   -0.845016   -0.000002
      4          6           0        3.082015   -0.805822    0.000015
      5          6           0        3.773008   -2.007581    0.000001
      6          6           0        3.083198   -3.230712   -0.000029
      7          1           0        1.166676   -4.231952   -0.000065
      8          1           0        3.596735    0.155393    0.000036
      9          1           0        4.863858   -2.004390    0.000012
     10          1           0        3.646026   -4.165249   -0.000040
     11          7           0        0.859923    0.254979    0.000005
     12         16           0       -0.739287   -1.759565   -0.000040
     13          6           0       -1.388754    1.064822   -0.000003
     14          6           0       -2.778948    0.869842    0.000007
     15          6           0       -0.869312    2.394912    0.000009
     16          6           0       -3.657249    1.944271    0.000043
     17          1           0       -3.173076   -0.149756   -0.000006
     18          6           0       -1.777491    3.471281    0.000051
     19          6           0       -3.144237    3.248585    0.000068
     20          1           0       -4.733721    1.772530    0.000054
     21          1           0       -1.364934    4.480924    0.000063
     22          1           0       -3.826595    4.100970    0.000099
     23          6           0       -0.415452   -0.027173   -0.000017
     24          8           0        0.427350    2.653730   -0.000027
     25          1           0        0.900717    1.742364   -0.000068
 ---------------------------------------------------------------------

 SCF Done:  E(RwB97XD) =  -1028.82612865     A.U. after    1 cycles

 Alpha  occ. eigenvalues --  -89.09077 -19.26780 -14.47030 -10.39753 -10.37108
 Alpha  occ. eigenvalues --  -10.35092 -10.35042 -10.32556 -10.32173 -10.31815
 Alpha  occ. eigenvalues --  -10.31773 -10.31749 -10.31653 -10.31236 -10.30029
 Alpha  occ. eigenvalues --  -10.29804  -8.11065  -6.05927  -6.05564  -6.05110
 Alpha  occ. eigenvalues --   -1.15832  -1.09330  -0.97374  -0.95965  -0.91704
 Alpha  occ. eigenvalues --   -0.88649  -0.85408  -0.84308  -0.83065  -0.75578
 Alpha  occ. eigenvalues --   -0.71386  -0.70498  -0.69349  -0.68344  -0.63154
 Alpha  occ. eigenvalues --   -0.60694  -0.58941  -0.58197  -0.56218  -0.54487
 Alpha  occ. eigenvalues --   -0.54351  -0.53345  -0.52519  -0.51054  -0.50105
 Alpha  occ. eigenvalues --   -0.49602  -0.47489  -0.46050  -0.45331  -0.45037
 Alpha  occ. eigenvalues --   -0.43852  -0.42864  -0.42667  -0.39948  -0.36408
 Alpha  occ. eigenvalues --   -0.36231  -0.32390  -0.31588  -0.28770
 Alpha virt. eigenvalues --   -0.00541   0.04657   0.06898   0.07419   0.07514
 Alpha virt. eigenvalues --    0.11279   0.13741   0.15079   0.16183   0.17880
 Alpha virt. eigenvalues --    0.19038   0.20829   0.21764   0.22609   0.22609

 Mulliken charges:
               1
     1  C    0.007987
     2  C   -0.227176
     3  C    0.253597
     4  C   -0.012411
     5  C    0.007468
     6  C    0.000604
     7  H    0.020461
     8  H    0.021121
     9  H    0.021142
    10  H    0.022412
    11  N   -0.338478
    12  S    0.153612
    13  C   -0.081978
    14  C   -0.017671
    15  C    0.082953
    16  C   -0.012226
    17  H    0.009018
    18  C    0.003278
    19  C    0.021311
    20  H    0.008828
    21  H    0.013713
    22  H    0.017487
    23  C    0.083189
    24  O   -0.231065
    25  H    0.172825
 Sum of Mulliken charges =  -0.00000

 Dipole moment (field-independent basis, Debye):
    X=              0.2962    Y=             -2.8652    Z=             -0.0000  Tot=              2.8805
 Quadrupole moment (field-independent basis, Debye-Ang):
   XX=            -82.7387   YY=            -90.3809   ZZ=           -104.0914
   XY=             -7.1784   XZ=             -0.0002   YZ=              0.0003

  Exact polarizability:     275.932     -67.874     257.340      -0.001       0.003      62.983
 Approx polarizability:     263.366     -23.754     243.368      -0.000       0.002      82.217

                      1                      2                      3
                      A                      A                      A
 Frequencies --     29.5599                62.0091               123.9958
 Red. masses --      5.4846                 6.0075                 5.6370
 Frc consts  --      0.0028                 0.0136                 0.0511
 IR Inten    --      0.0193                 1.3921                 1.6682

                      4                      5                      6
                      A                      A                      A
 Frequencies --    153.0468               198.3098               244.7363
 Red. masses --      4.9793                 5.8579                 5.7632
 Frc consts  --      0.0687                 0.1357                 0.2034
 IR Inten    --      0.0961                 0.4995                 0.0845

                      7                      8                      9
                      A                      A                      A
 Frequencies --    272.1440               326.8564               336.2165
 Red. masses --      7.3797                 5.1502                 6.3040
 Frc consts  --      0.3220                 0.3242                 0.4199
 IR Inten    --      0.8246                 0.3270                 9.3577

                     10                     11                     12
                      A                      A                      A
 Frequencies --    409.6908               437.3228               463.9672
 Red. masses --     10.0984                 3.1369                 3.6687
 Frc consts  --      0.9986                 0.3535                 0.4653
 IR Inten    --      0.1403                 2.0988                 8.1939

                     13                     14                     15
                      A                      A                      A
 Frequencies --    515.5276               528.9160               539.5000
 Red. masses --      8.6188                 5.3210                 3.4683
 Frc consts  --      1.3496                 0.8770                 0.5948
 IR Inten    --      0.0515                17.9531                 3.6444

                     16                     17                     18
                      A                      A                      A
 Frequencies --    553.9749               574.2821               593.4490
 Red. masses --      7.4929                 3.6897                 7.6395
 Frc consts  --      1.3548                 0.7170                 1.5852
 IR Inten    --      4.9439                 0.0745                 4.0096

                     19                     20                     21
                      A                      A                      A
 Frequencies --    648.2939               685.7236               714.5749
 Red. masses --      6.3218                 6.3580                 6.7523
 Frc consts  --      1.5654                 1.7614                 2.0314
 IR Inten    --      0.0054                10.4713                23.7688

                     22                     23                     24
                      A                      A                      A
 Frequencies --    750.0948               755.3601               767.3242
 Red. masses --     10.2799                 2.0694                 2.9982
 Frc consts  --      3.4078                 0.6957                 1.0401
 IR Inten    --     13.4794                24.2549                 2.3582

                     25                     26                     27
                      A                      A                      A
 Frequencies --    776.0999               785.7306               848.4672
 Red. masses --      1.3889                 1.8530                 5.9431
 Frc consts  --      0.4929                 0.6740                 2.5208
 IR Inten    --     63.3434                36.9112                17.7995

                     28                     29                     30
                      A                      A                      A
 Frequencies --    883.6195               886.7657               908.6673
 Red. masses --      1.5664                 1.4135                 6.6706
 Frc consts  --      0.7206                 0.6549                 3.2451
 IR Inten    --      5.1743                 0.1700                 0.8214

                     31                     32                     33
                      A                      A                      A
 Frequencies --    970.4395               975.8293               996.4692
 Red. masses --      1.3556                 1.3563                 1.0779
 Frc consts  --      0.7522                 0.7610                 0.6306
 IR Inten    --      1.7535                 0.0599                72.9474

                     34                     35                     36
                      A                      A                      A
 Frequencies --    997.5651              1010.8479              1016.2287
 Red. masses --      7.4546                 1.2996                 1.3038
 Frc consts  --      4.3708                 0.7824                 0.7933
 IR Inten    --     58.1768                 1.3842                 0.3486

                     37                     38                     39
                      A                      A                      A
 Frequencies --   1053.2872              1066.3993              1097.8219
 Red. masses --      2.0228                 1.9371                 4.1955
 Frc consts  --      1.3222                 1.2979                 2.9792
 IR Inten    --      8.5209                 9.8414                 5.1896

                     40                     41                     42
                      A                      A                      A
 Frequencies --   1147.2656              1153.1584              1172.7729
 Red. masses --      1.4804                 1.2975                 1.1215
 Frc consts  --      1.1480                 1.0166                 0.9088
 IR Inten    --     12.9973                 3.2939                46.2722

                     43                     44                     45
                      A                      A                      A
 Frequencies --   1184.9154              1256.3489              1287.2306
 Red. masses --      1.1839                 1.8621                 1.5440
 Frc consts  --      0.9794                 1.7317                 1.5074
 IR Inten    --      0.3384               102.9548                 3.6170

                     46                     47                     48
                      A                      A                      A
 Frequencies --   1299.1687              1341.8435              1349.3135
 Red. masses --      2.7435                 4.0897                 4.6329
 Frc consts  --      2.7282                 4.3386                 4.9697
 IR Inten    --    186.7844                27.5588                 3.5358

                     49                     50                     51
                      A                      A                      A
 Frequencies --   1377.6792              1381.1340              1484.9604
 Red. masses --      6.7384                 3.1766                 2.3986
 Frc consts  --      7.5353                 3.5701                 3.1163
 IR Inten    --     11.2779                19.1073                 6.0721

                     52                     53                     54
                      A                      A                      A
 Frequencies --   1491.9998              1497.1959              1523.3664
 Red. masses --      2.9297                 2.8249                 4.1276
 Frc consts  --      3.8424                 3.7309                 5.6436
 IR Inten    --      1.8832                42.7376               107.7345

                     55                     56                     57
                      A                      A                      A
 Frequencies --   1580.3095              1595.7336              1653.7766
 Red. masses --      5.1865                 2.9853                 6.7788
 Frc consts  --      7.6315                 4.4787                10.9234
 IR Inten    --    258.6494                46.7467                 8.5279

                     58                     59                     60
                      A                      A                      A
 Frequencies --   1677.7840              1691.0868              1710.5258
 Red. masses --      5.7872                 3.1298                 3.1896
 Frc consts  --      9.5981                 5.2735                 5.4984
 IR Inten    --     78.6175               205.2224               217.1793

                     61                     62                     63
                      A                      A                      A
 Frequencies --   2617.8273              3191.6226              3204.9589
 Red. masses --      1.0812                 1.0896                 1.0884
 Frc consts  --      4.3654                 6.5397                 6.5868
 IR Inten    --   1499.0636                 4.4311                 5.8364

                     64                     65                     66
                      A                      A                      A
 Frequencies --   3212.8689              3224.1231              3226.6270
 Red. masses --      1.0863                 1.0906                 1.0940
 Frc consts  --      6.6069                 6.6797                 6.7104
 IR Inten    --      1.9571                 3.7745                12.0806

                     67                     68                     69
                      A                      A                      A
 Frequencies --   3234.6031              3235.4302              3240.3532
 Red. masses --      1.0960                 1.0984                 1.0997
 Frc consts  --      6.7561                 6.7746                 6.8033
 IR Inten    --      9.1964                17.9460                13.2265

 - Thermochemistry -
 -------------------
 Temperature   298.150 Kelvin.  Pressure   1.00000 Atm.
 Atom     1 has atomic number  6 and mass  12.00000

 Molecular mass:   227.04049 amu.
 Principal axes and moments of inertia in atomic units:
                           1         2         3
     Eigenvalues --  1312.393116292.326767604.71987
           X           -0.70253   0.71166  -0.00000
           Y            0.71166   0.70253  -0.00001
           Z            0.00001   0.00001   1.00000
 This molecule is an asymmetric top.
 Rotational symmetry number  1.
 Warning -- assumption of classical behavior for rotation
           may cause significant error
 Rotational temperatures (Kelvin)      0.06600     0.01377     0.01139
 Rotational constants (GHZ):           1.37515     0.28682     0.23732
 Zero-point vibrational energy     497677.0 (Joules/Mol)
                                  118.94766 (Kcal/Mol)
 Warning -- explicit consideration of  18 degrees of freedom as
           vibrations may cause significant error
 Vibrational temperatures:     42.53    89.22   178.40   220.20   285.32
          (Kelvin)            352.12   391.55   470.27   483.74   589.45
                              629.21   667.55   741.73   760.99   776.22
                              797.05   826.26   853.84   932.75   986.60
                             1028.11  1079.22  1086.79  1104.01  1116.63
                             1130.49  1220.76  1271.33  1275.86  1307.37
                             1396.25  1404.00  1433.70  1435.27  1454.38
                             1462.13  1515.45  1534.31  1579.52  1650.66
                             1659.14  1687.36  1704.83  1807.61  1852.04
                             1869.21  1930.61  1941.36  1982.17  1987.14
                             2136.53  2146.65  2154.13  2191.78  2273.71
                             2295.90  2379.42  2413.96  2433.10  2461.07
                             3766.47  4592.03  4611.22  4622.60  4638.79
                             4642.40  4653.87  4655.06  4662.15

 Zero-point correction=                           0.189555 (Hartree/Particle)
 Thermal correction to Energy=                    0.201177
 Thermal correction to Enthalpy=                  0.202121
 Thermal correction to Gibbs Free Energy=         0.150622
 Sum of electronic and zero-point Energies=          -1028.636573
 Sum of electronic and thermal Energies=             -1028.624952
 Sum of electronic and thermal Enthalpies=           -1028.624008
 Sum of electronic and thermal Free Energies=        -1028.675507

                     E (Thermal)             CV                S
                      KCal/Mol        Cal/Mol-Kelvin    Cal/Mol-Kelvin
 Total                  126.240             47.191            108.388
 Electronic               0.000              0.000              0.000
 Translational            0.889              2.981             42.162
 Rotational               0.889              2.981             32.507
 Vibrational            124.463             41.229             33.719
 Vibration     1          0.593              1.984              5.859
 Vibration     2          0.597              1.972              4.392
 Vibration     3          0.610              1.929              3.037
 Vibration     4          0.619              1.899              2.634
 Vibration     5          0.637              1.842              2.149
 Vibration     6          0.660              1.771              1.768
 Vibration     7          0.675              1.725              1.583
 Vibration     8          0.711              1.622              1.276
 Vibration     9          0.717              1.603              1.230
 Vibration    10          0.774              1.449              0.928
 Vibration    11          0.798              1.389              0.835
 Vibration    12          0.822              1.330              0.755
 Vibration    13          0.871              1.216              0.620
 Vibration    14          0.884              1.186              0.590
 Vibration    15          0.895              1.163              0.566
 Vibration    16          0.909              1.131              0.536
 Vibration    17          0.931              1.087              0.496
 Vibration    18          0.951              1.046              0.461

 Optimization completed.
    -- Stationary point found.
 Normal termination of Gaussian 16 at Tue Oct 27 22:22:47 2020.
