 Gaussian 16, Revision C.01,
 Gaussian 16:  ES64L-G16RevC.01  3-Jul-2019

 ----------------------------------------------------------------------
 #p opt=addgic freq wb97xd/cc-pvdz nosymm int=ultrafine scrf=(solvent=C
 arbonTetraChloride)
 ----------------------------------------------------------------------

 ------------------------------------------------
 NM 2D-scan of HBT TD-WB97XD pVDZ in CTC Relaxed.
 ------------------------------------------------
 Symbolic Z-matrix:
 Charge =  0 Multiplicity = 1

 SCF Done:  E(RwB97XD) =  -1028.31469864     A.U. after   15 cycles
 SCF Done:  E(RwB97XD) =  -1028.68994302     A.U. after   13 cycles
 SCF Done:  E(RwB97XD) =  -1028.81165206     A.U. after   15 cycles
 SCF Done:  E(RwB97XD) =  -1028.81680098     A.U. after   13 cycles
 SCF Done:  E(RwB97XD) =  -1028.81782176     A.U. after   12 cycles
 SCF Done:  E(RwB97XD) =  -1028.81795988     A.U. after   11 cycles
 SCF Done:  E(RwB97XD) =  -1028.81796576     A.U. after    9 cycles
 Optimization completed.
    -- Stationary point found.
 Normal termination of Gaussian 16 at Tue Oct 27 21:23:51 2020.

 --------------------------------------------------------------------
 #P Geom=AllCheck Guess=TCheck SCRF=Check GenChk RwB97XD/CC-pVDZ Freq
 --------------------------------------------------------------------

 Structure from the checkpoint file:  "config_1_4.chk"
 ------------------------------------------------
 NM 2D-scan of HBT TD-WB97XD pVDZ in CTC Relaxed.
 ------------------------------------------------
 Charge =  0 Multiplicity = 1

                          Input orientation:
 ---------------------------------------------------------------------
 Center     Atomic      Atomic             Coordinates (Angstroms)
 Number     Number       Type             X           Y           Z
 ---------------------------------------------------------------------
      1          6           0        1.738058   -3.335917    0.000069
      2          6           0        0.966536   -2.160559   -0.000053
      3          6           0        1.631004   -0.918509   -0.000130
      4          6           0        3.024536   -0.811118   -0.000116
      5          6           0        3.777560   -1.966191   -0.000013
      6          6           0        3.129593   -3.215273    0.000086
      7          1           0        1.275714   -4.323706    0.000123
      8          1           0        3.472056    0.183201   -0.000182
      9          1           0        4.867182   -1.916802   -0.000000
     10          1           0        3.731735   -4.125636    0.000165
     11          7           0        0.848290    0.199285   -0.000178
     12         16           0       -0.775798   -1.853543   -0.000207
     13          6           0       -1.372714    1.076506   -0.000062
     14          6           0       -2.780255    0.912708   -0.000048
     15          6           0       -0.895571    2.428551    0.000027
     16          6           0       -3.651907    1.989305    0.000036
     17          1           0       -3.189733   -0.100603   -0.000111
     18          6           0       -1.790490    3.503732    0.000123
     19          6           0       -3.150089    3.299681    0.000124
     20          1           0       -4.728045    1.814895    0.000038
     21          1           0       -1.353084    4.502246    0.000198
     22          1           0       -3.828627    4.154391    0.000201
     23          6           0       -0.419550   -0.057671   -0.000142
     24          8           0        0.379635    2.876380    0.000080
     25          1           0        0.988010    2.132916    0.000074
 ---------------------------------------------------------------------

 SCF Done:  E(RwB97XD) =  -1028.81796576     A.U. after    1 cycles

 Alpha  occ. eigenvalues --  -89.08797 -19.28802 -14.46447 -10.39600 -10.37695
 Alpha  occ. eigenvalues --  -10.35062 -10.34350 -10.33240 -10.32497 -10.31929
 Alpha  occ. eigenvalues --  -10.31596 -10.31317 -10.31244 -10.31238 -10.30291
 Alpha  occ. eigenvalues --  -10.29909  -8.10633  -6.05512  -6.05159  -6.04666
 Alpha  occ. eigenvalues --   -1.16674  -1.08783  -0.97097  -0.95981  -0.90834
 Alpha  occ. eigenvalues --   -0.88413  -0.85219  -0.84423  -0.82819  -0.75430
 Alpha  occ. eigenvalues --   -0.71266  -0.70688  -0.69528  -0.67903  -0.62949
 Alpha  occ. eigenvalues --   -0.59970  -0.58524  -0.58264  -0.56346  -0.54439
 Alpha  occ. eigenvalues --   -0.53563  -0.53024  -0.52349  -0.50857  -0.50340
 Alpha  occ. eigenvalues --   -0.49101  -0.47761  -0.45678  -0.45178  -0.44855
 Alpha  occ. eigenvalues --   -0.43686  -0.42928  -0.42458  -0.39546  -0.37292
 Alpha  occ. eigenvalues --   -0.36065  -0.32009  -0.31689  -0.29092
 Alpha virt. eigenvalues --   -0.00374   0.04885   0.06725   0.07179   0.07206
 Alpha virt. eigenvalues --    0.11676   0.12452   0.15106   0.15689   0.17353
 Alpha virt. eigenvalues --    0.18963   0.20051   0.21702   0.22370   0.22864

 Mulliken charges:
               1
     1  C   -0.005207
     2  C   -0.206388
     3  C    0.223415
     4  C   -0.012016
     5  C    0.008398
     6  C   -0.003465
     7  H    0.021420
     8  H    0.014229
     9  H    0.018408
    10  H    0.021209
    11  N   -0.303564
    12  S    0.126764
    13  C   -0.066186
    14  C   -0.013837
    15  C    0.062925
    16  C   -0.006734
    17  H    0.010149
    18  C    0.023380
    19  C    0.017997
    20  H    0.010787
    21  H    0.017409
    22  H    0.017970
    23  C    0.060179
    24  O   -0.185159
    25  H    0.147916
 Sum of Mulliken charges =  -0.00000

 Dipole moment (field-independent basis, Debye):
    X=              0.2434    Y=             -1.7976    Z=              0.0002  Tot=              1.8140
 Quadrupole moment (field-independent basis, Debye-Ang):
   XX=            -82.5640   YY=            -89.6515   ZZ=           -104.3568
   XY=             -6.5851   XZ=              0.0002   YZ=              0.0001

  Exact polarizability:     275.606     -64.397     257.276       0.001       0.002      63.250
 Approx polarizability:     264.091     -21.722     244.408       0.002       0.001      82.362

                      1                      2                      3
                      A                      A                      A
 Frequencies --     45.0404                45.0865               106.5216
 Red. masses --      6.0593                 5.4237                 5.6323
 Frc consts  --      0.0072                 0.0065                 0.0377
 IR Inten    --      0.6597                 0.5354                 0.8048

                      4                      5                      6
                      A                      A                      A
 Frequencies --    148.3068               199.4800               242.7099
 Red. masses --      4.7872                 5.5305                 5.8815
 Frc consts  --      0.0620                 0.1297                 0.2041
 IR Inten    --      0.0114                 0.0823                 0.4747

                      7                      8                      9
                      A                      A                      A
 Frequencies --    245.6950               280.2810               323.0931
 Red. masses --      8.2753                 6.1501                 4.8295
 Frc consts  --      0.2943                 0.2847                 0.2970
 IR Inten    --      5.9745                 3.3519                 1.3667

                     10                     11                     12
                      A                      A                      A
 Frequencies --    391.9875               440.9596               470.8180
 Red. masses --      8.1651                 3.1749                 3.4032
 Frc consts  --      0.7392                 0.3637                 0.4445
 IR Inten    --      0.2154                 1.2164                19.3008

                     13                     14                     15
                      A                      A                      A
 Frequencies --    477.2749               507.5875               510.8028
 Red. masses --      4.5183                 1.1462                 8.9520
 Frc consts  --      0.6064                 0.1740                 1.3762
 IR Inten    --      2.7236                80.3329                 0.8898

                     16                     17                     18
                      A                      A                      A
 Frequencies --    539.4383               545.0414               572.7601
 Red. masses --      3.4144                 8.6770                 3.6711
 Frc consts  --      0.5854                 1.5187                 0.7096
 IR Inten    --      4.9790                 3.2573                 0.5395

                     19                     20                     21
                      A                      A                      A
 Frequencies --    596.2144               648.6651               664.7312
 Red. masses --      7.7193                 5.6091                 8.6868
 Frc consts  --      1.6167                 1.3905                 2.2615
 IR Inten    --      6.6673                 5.5802                62.0301

                     22                     23                     24
                      A                      A                      A
 Frequencies --    674.3381               713.0248               754.0749
 Red. masses --      6.6700                 7.0359                 1.9584
 Frc consts  --      1.7870                 2.1075                 0.6561
 IR Inten    --      0.9924                 2.5114                22.5447

                     25                     26                     27
                      A                      A                      A
 Frequencies --    764.1866               778.8360               787.7754
 Red. masses --      3.8316                 1.3079                 1.8996
 Frc consts  --      1.3183                 0.4674                 0.6946
 IR Inten    --      6.6185                59.9499                33.3624

                     28                     29                     30
                      A                      A                      A
 Frequencies --    831.8934               886.2551               887.0725
 Red. masses --      6.2698                 1.4765                 1.4860
 Frc consts  --      2.5564                 0.6833                 0.6889
 IR Inten    --     33.3307                 4.5351                 0.1300

                     31                     32                     33
                      A                      A                      A
 Frequencies --    891.9491               961.6979               974.6776
 Red. masses --      6.3515                 7.5971                 1.3535
 Frc consts  --      2.9772                 4.1398                 0.7576
 IR Inten    --      1.4098                81.2302                 1.7494

                     34                     35                     36
                      A                      A                      A
 Frequencies --    975.6586              1011.9960              1014.3701
 Red. masses --      1.3641                 1.3004                 1.3058
 Frc consts  --      0.7650                 0.7847                 0.7916
 IR Inten    --      0.8144                 0.2875                 0.0065

                     37                     38                     39
                      A                      A                      A
 Frequencies --   1048.6537              1069.8848              1087.1254
 Red. masses --      2.0542                 2.1208                 4.8683
 Frc consts  --      1.3309                 1.4303                 3.3899
 IR Inten    --      7.9182                22.6297                 5.5588

                     40                     41                     42
                      A                      A                      A
 Frequencies --   1134.8313              1148.5524              1176.4979
 Red. masses --      1.6748                 1.2623                 1.1110
 Frc consts  --      1.2708                 0.9811                 0.9060
 IR Inten    --     30.5962                 8.3410                58.6720

                     43                     44                     45
                      A                      A                      A
 Frequencies --   1182.1441              1202.6162              1265.0002
 Red. masses --      1.1861                 1.3393                 2.1268
 Frc consts  --      0.9766                 1.1413                 2.0052
 IR Inten    --      0.5755               175.4260                45.3349

                     46                     47                     48
                      A                      A                      A
 Frequencies --   1270.9332              1280.1290              1343.1934
 Red. masses --      3.8353                 1.8231                 2.0495
 Frc consts  --      3.6500                 1.7602                 2.1786
 IR Inten    --     35.5186                 7.0434                 4.8277

                     49                     50                     51
                      A                      A                      A
 Frequencies --   1357.8766              1374.3920              1379.2763
 Red. masses --      3.7927                 2.6098                 5.4635
 Frc consts  --      4.1202                 2.9046                 6.1239
 IR Inten    --     16.7397                15.4540                72.3162

                     52                     53                     54
                      A                      A                      A
 Frequencies --   1487.5171              1492.7152              1512.8441
 Red. masses --      2.6266                 3.0024                 3.1571
 Frc consts  --      3.4242                 3.9417                 4.2572
 IR Inten    --     25.1956                19.8124               111.0459

                     55                     56                     57
                      A                      A                      A
 Frequencies --   1526.9575              1612.8300              1637.0927
 Red. masses --      3.0995                 8.6914                 6.2027
 Frc consts  --      4.2579                13.3204                 9.7943
 IR Inten    --     14.4442               174.0335                35.3108

                     58                     59                     60
                      A                      A                      A
 Frequencies --   1644.2361              1686.4833              1709.7718
 Red. masses --      7.1017                 6.9536                 6.6626
 Frc consts  --     11.3120                11.6526                11.4755
 IR Inten    --     72.1174                 0.7390                66.5562

                     61                     62                     63
                      A                      A                      A
 Frequencies --   3194.2334              3209.2785              3210.5326
 Red. masses --      1.0892                 1.0861                 1.0883
 Frc consts  --      6.5474                 6.5911                 6.6095
 IR Inten    --      3.9891                 0.4286                 5.3275

                     64                     65                     66
                      A                      A                      A
 Frequencies --   3220.5852              3228.8034              3230.2761
 Red. masses --      1.0899                 1.0958                 1.0939
 Frc consts  --      6.6604                 6.7307                 6.7255
 IR Inten    --      3.2701                15.0063                11.5251

                     67                     68                     69
                      A                      A                      A
 Frequencies --   3237.5127              3237.8162              3847.7372
 Red. masses --      1.0997                 1.1002                 1.0654
 Frc consts  --      6.7913                 6.7955                 9.2933
 IR Inten    --     22.7356                 7.1012               361.1247

 - Thermochemistry -
 -------------------
 Temperature   298.150 Kelvin.  Pressure   1.00000 Atm.
 Atom     1 has atomic number  6 and mass  12.00000

 Molecular mass:   227.04049 amu.
 Principal axes and moments of inertia in atomic units:
                           1         2         3
     Eigenvalues --  1374.755986419.741627794.49758
           X           -0.68934   0.72444  -0.00001
           Y            0.72444   0.68934  -0.00003
           Z            0.00001   0.00003   1.00000
 This molecule is an asymmetric top.
 Rotational symmetry number  1.
 Warning -- assumption of classical behavior for rotation
           may cause significant error
 Rotational temperatures (Kelvin)      0.06300     0.01349     0.01111
 Rotational constants (GHZ):           1.31277     0.28112     0.23154
 Zero-point vibrational energy     497399.1 (Joules/Mol)
                                  118.88123 (Kcal/Mol)
 Warning -- explicit consideration of  19 degrees of freedom as
           vibrations may cause significant error
 Vibrational temperatures:     64.80    64.87   153.26   213.38   287.01
          (Kelvin)            349.21   353.50   403.26   464.86   563.98
                              634.44   677.40   686.69   730.31   734.93
                              776.13   784.19   824.07   857.82   933.28
                              956.40   970.22  1025.88  1084.95  1099.49
                             1120.57  1133.43  1196.91  1275.12  1276.30
                             1283.32  1383.67  1402.34  1403.76  1456.04
                             1459.45  1508.78  1539.33  1564.13  1632.77
                             1652.51  1692.72  1700.84  1730.30  1820.05
                             1828.59  1841.82  1932.56  1953.68  1977.44
                             1984.47  2140.21  2147.68  2176.65  2196.95
                             2320.50  2355.41  2365.69  2426.47  2459.98
                             4595.79  4617.44  4619.24  4633.70  4645.53
                             4647.65  4658.06  4658.50  5536.04

 Zero-point correction=                           0.189449 (Hartree/Particle)
 Thermal correction to Energy=                    0.201528
 Thermal correction to Enthalpy=                  0.202472
 Thermal correction to Gibbs Free Energy=         0.150181
 Sum of electronic and zero-point Energies=          -1028.628516
 Sum of electronic and thermal Energies=             -1028.616438
 Sum of electronic and thermal Enthalpies=           -1028.615494
 Sum of electronic and thermal Free Energies=        -1028.667784

                     E (Thermal)             CV                S
                      KCal/Mol        Cal/Mol-Kelvin    Cal/Mol-Kelvin
 Total                  126.460             48.830            110.054
 Electronic               0.000              0.000              0.000
 Translational            0.889              2.981             42.162
 Rotational               0.889              2.981             32.598
 Vibrational            124.683             42.869             35.294
 Vibration     1          0.595              1.979              5.024
 Vibration     2          0.595              1.979              5.022
 Vibration     3          0.605              1.944              3.331
 Vibration     4          0.618              1.905              2.694
 Vibration     5          0.638              1.841              2.138
 Vibration     6          0.659              1.775              1.783
 Vibration     7          0.660              1.770              1.761
 Vibration     8          0.680              1.710              1.532
 Vibration     9          0.708              1.629              1.294
 Vibration    10          0.759              1.487              0.993
 Vibration    11          0.801              1.381              0.824
 Vibration    12          0.828              1.315              0.735
 Vibration    13          0.834              1.300              0.717
 Vibration    14          0.863              1.233              0.639
 Vibration    15          0.866              1.226              0.632
 Vibration    16          0.894              1.163              0.566
 Vibration    17          0.900              1.151              0.555
 Vibration    18          0.929              1.090              0.499
 Vibration    19          0.954              1.040              0.456

 Optimization completed.
    -- Stationary point found.
 Normal termination of Gaussian 16 at Tue Oct 27 21:29:47 2020.
