 Gaussian 16, Revision C.01,
 Gaussian 16:  ES64L-G16RevC.01  3-Jul-2019

 ----------------------------------------------------------------------
 #p opt=addgic freq wb97xd/cc-pvdz nosymm int=ultrafine scrf=(solvent=C
 arbonTetraChloride)
 ----------------------------------------------------------------------

 ------------------------------------------------
 NM 2D-scan of HBT TD-WB97XD pVDZ in CTC Relaxed.
 ------------------------------------------------
 Symbolic Z-matrix:
 Charge =  0 Multiplicity = 1

 SCF Done:  E(RwB97XD) =  -1028.54295163     A.U. after   15 cycles
 SCF Done:  E(RwB97XD) =  -1028.76463696     A.U. after   13 cycles
 SCF Done:  E(RwB97XD) =  -1028.81581855     A.U. after   15 cycles
 SCF Done:  E(RwB97XD) =  -1028.82616162     A.U. after   13 cycles
 SCF Done:  E(RwB97XD) =  -1028.82734908     A.U. after   12 cycles
 SCF Done:  E(RwB97XD) =  -1028.82746984     A.U. after   11 cycles
 SCF Done:  E(RwB97XD) =  -1028.82747501     A.U. after    9 cycles
 Optimization completed.
    -- Stationary point found.
 Normal termination of Gaussian 16 at Tue Oct 27 23:00:29 2020.

 --------------------------------------------------------------------
 #P Geom=AllCheck Guess=TCheck SCRF=Check GenChk RwB97XD/CC-pVDZ Freq
 --------------------------------------------------------------------

 Structure from the checkpoint file:  "config_1_10.chk"
 ------------------------------------------------
 NM 2D-scan of HBT TD-WB97XD pVDZ in CTC Relaxed.
 ------------------------------------------------
 Charge =  0 Multiplicity = 1

                          Input orientation:
 ---------------------------------------------------------------------
 Center     Atomic      Atomic             Coordinates (Angstroms)
 Number     Number       Type             X           Y           Z
 ---------------------------------------------------------------------
      1          6           0        1.650166   -3.325788   -0.000006
      2          6           0        0.968464   -2.101828   -0.000011
      3          6           0        1.688067   -0.890760   -0.000026
      4          6           0        3.086836   -0.882153   -0.000038
      5          6           0        3.759334   -2.090635   -0.000034
      6          6           0        3.042828   -3.300400   -0.000018
      7          1           0        1.113328   -4.274993    0.000004
      8          1           0        3.611140    0.073971   -0.000049
      9          1           0        4.850036   -2.108460   -0.000043
     10          1           0        3.588595   -4.245362   -0.000016
     11          7           0        0.933245    0.258184   -0.000025
     12         16           0       -0.749954   -1.736433   -0.000010
     13          6           0       -1.331712    1.101862    0.000006
     14          6           0       -2.720794    0.847465   -0.000006
     15          6           0       -0.914870    2.464308    0.000034
     16          6           0       -3.653575    1.869712    0.000014
     17          1           0       -3.068368   -0.188654   -0.000032
     18          6           0       -1.868737    3.489429    0.000060
     19          6           0       -3.218190    3.202572    0.000051
     20          1           0       -4.718444    1.637058    0.000004
     21          1           0       -1.497407    4.514640    0.000088
     22          1           0       -3.943291    4.018307    0.000071
     23          6           0       -0.342378    0.014346   -0.000007
     24          8           0        0.355579    2.907245    0.000053
     25          1           0        0.953728    2.143476    0.000049
 ---------------------------------------------------------------------

 SCF Done:  E(RwB97XD) =  -1028.82747501     A.U. after    1 cycles

 Alpha  occ. eigenvalues --  -89.08601 -19.28816 -14.46674 -10.39416 -10.37632
 Alpha  occ. eigenvalues --  -10.34848 -10.34547 -10.32818 -10.32337 -10.31933
 Alpha  occ. eigenvalues --  -10.31532 -10.31375 -10.31371 -10.31300 -10.30332
 Alpha  occ. eigenvalues --  -10.30090  -8.10545  -6.05408  -6.05055  -6.04588
 Alpha  occ. eigenvalues --   -1.16782  -1.08731  -0.97184  -0.96110  -0.91176
 Alpha  occ. eigenvalues --   -0.88487  -0.85311  -0.84576  -0.82817  -0.75436
 Alpha  occ. eigenvalues --   -0.71375  -0.70667  -0.69463  -0.68086  -0.63072
 Alpha  occ. eigenvalues --   -0.60146  -0.58613  -0.58393  -0.56473  -0.54496
 Alpha  occ. eigenvalues --   -0.53703  -0.53072  -0.52621  -0.50780  -0.50439
 Alpha  occ. eigenvalues --   -0.49116  -0.47868  -0.45764  -0.45294  -0.44936
 Alpha  occ. eigenvalues --   -0.43839  -0.43014  -0.42424  -0.39596  -0.37435
 Alpha  occ. eigenvalues --   -0.36134  -0.31971  -0.31750  -0.29170
 Alpha virt. eigenvalues --   -0.00389   0.04929   0.06734   0.07146   0.07605
 Alpha virt. eigenvalues --    0.11633   0.13565   0.15166   0.16128   0.17744
 Alpha virt. eigenvalues --    0.18890   0.20280   0.21658   0.22469   0.22829

 Mulliken charges:
               1
     1  C    0.002442
     2  C   -0.206283
     3  C    0.214004
     4  C   -0.013517
     5  C    0.006758
     6  C   -0.001707
     7  H    0.019555
     8  H    0.015029
     9  H    0.018556
    10  H    0.020957
    11  N   -0.321772
    12  S    0.132904
    13  C   -0.050623
    14  C   -0.021773
    15  C    0.056313
    16  C   -0.004660
    17  H    0.014340
    18  C    0.019033
    19  C    0.019389
    20  H    0.010509
    21  H    0.017667
    22  H    0.018624
    23  C    0.070107
    24  O   -0.187933
    25  H    0.152081
 Sum of Mulliken charges =  -0.00000

 Dipole moment (field-independent basis, Debye):
    X=             -0.0019    Y=             -2.0018    Z=              0.0000  Tot=              2.0018
 Quadrupole moment (field-independent basis, Debye-Ang):
   XX=            -82.6633   YY=            -89.7311   ZZ=           -104.2323
   XY=             -6.7986   XZ=             -0.0001   YZ=              0.0001

  Exact polarizability:     274.537     -65.601     255.899      -0.001       0.002      63.086
 Approx polarizability:     262.792     -22.307     243.191      -0.001       0.001      82.233

                      1                      2                      3
                      A                      A                      A
 Frequencies --     50.7560                59.3211               109.7166
 Red. masses --      6.4111                 5.0070                 5.6524
 Frc consts  --      0.0097                 0.0104                 0.0401
 IR Inten    --      0.9925                 0.0544                 1.0638

                      4                      5                      6
                      A                      A                      A
 Frequencies --    150.6936               199.5267               245.3900
 Red. masses --      4.9179                 5.8285                 5.7825
 Frc consts  --      0.0658                 0.1367                 0.2052
 IR Inten    --      0.0050                 0.4414                 0.0659

                      7                      8                      9
                      A                      A                      A
 Frequencies --    254.4301               287.2179               326.5755
 Red. masses --      8.1308                 6.2429                 5.0318
 Frc consts  --      0.3101                 0.3034                 0.3162
 IR Inten    --      4.7029                 4.2894                 0.4166

                     10                     11                     12
                      A                      A                      A
 Frequencies --    401.6887               440.0674               471.2377
 Red. masses --      8.4729                 3.1672                 3.7661
 Frc consts  --      0.8055                 0.3614                 0.4927
 IR Inten    --      0.2614                 1.9394                 8.8577

                     13                     14                     15
                      A                      A                      A
 Frequencies --    493.4368               514.6209               538.6772
 Red. masses --      4.6825                 8.7914                 3.4379
 Frc consts  --      0.6717                 1.3718                 0.5878
 IR Inten    --      4.2584                 0.2399                 3.9931

                     16                     17                     18
                      A                      A                      A
 Frequencies --    545.2550               574.0804               594.1520
 Red. masses --      8.6302                 3.7326                 7.7197
 Frc consts  --      1.5117                 0.7248                 1.6056
 IR Inten    --      2.6346                 0.0162                 6.6581

                     19                     20                     21
                      A                      A                      A
 Frequencies --    611.6654               658.7454               675.3254
 Red. masses --      1.3224                 2.9571                 6.6056
 Frc consts  --      0.2915                 0.7560                 1.7750
 IR Inten    --     64.6389                30.1123                 3.6358

                     22                     23                     24
                      A                      A                      A
 Frequencies --    693.6829               722.4073               755.9247
 Red. masses --      9.0859                 7.1779                 1.9538
 Frc consts  --      2.5760                 2.2070                 0.6578
 IR Inten    --     47.7002                 1.4318                23.1348

                     25                     26                     27
                      A                      A                      A
 Frequencies --    767.0409               778.7158               789.0999
 Red. masses --      3.7354                 1.3100                 1.9215
 Frc consts  --      1.2949                 0.4680                 0.7049
 IR Inten    --      9.4273                52.3264                39.1604

                     28                     29                     30
                      A                      A                      A
 Frequencies --    839.2485               885.9910               888.6832
 Red. masses --      6.1053                 1.5313                 1.4304
 Frc consts  --      2.5336                 0.7082                 0.6656
 IR Inten    --     26.5892                 3.8043                 0.6869

                     31                     32                     33
                      A                      A                      A
 Frequencies --    890.6425               973.7625               975.2750
 Red. masses --      6.4187                 1.3550                 7.6603
 Frc consts  --      2.9999                 0.7570                 4.2929
 IR Inten    --      2.9537                 1.2558                69.3615

                     34                     35                     36
                      A                      A                      A
 Frequencies --    976.9699              1011.8649              1015.5467
 Red. masses --      1.3645                 1.3017                 1.3045
 Frc consts  --      0.7673                 0.7853                 0.7927
 IR Inten    --      1.4359                 0.3199                 0.0110

                     37                     38                     39
                      A                      A                      A
 Frequencies --   1051.6599              1072.5650              1095.6435
 Red. masses --      2.0172                 2.0462                 4.5855
 Frc consts  --      1.3145                 1.3869                 3.2432
 IR Inten    --      8.0945                15.7375                 6.2654

                     40                     41                     42
                      A                      A                      A
 Frequencies --   1145.6881              1150.7879              1177.4062
 Red. masses --      1.5715                 1.2869                 1.1254
 Frc consts  --      1.2153                 1.0041                 0.9192
 IR Inten    --      5.4068                 5.4934                48.7066

                     43                     44                     45
                      A                      A                      A
 Frequencies --   1184.8391              1226.6352              1276.4986
 Red. masses --      1.1973                 1.5885                 2.1046
 Frc consts  --      0.9903                 1.4082                 2.0205
 IR Inten    --      0.2640               184.5959                69.3061

                     46                     47                     48
                      A                      A                      A
 Frequencies --   1282.9913              1306.1829              1347.6853
 Red. masses --      1.5838                 5.4157                 2.9035
 Frc consts  --      1.5360                 5.4439                 3.1070
 IR Inten    --      3.1467                32.1196                 8.4563

                     49                     50                     51
                      A                      A                      A
 Frequencies --   1367.3637              1371.8935              1404.0961
 Red. masses --      8.0323                 2.3374                 2.1483
 Frc consts  --      8.8483                 2.5919                 2.4954
 IR Inten    --     16.1989                 2.1750                86.0818

                     52                     53                     54
                      A                      A                      A
 Frequencies --   1489.7952              1499.4536              1517.2175
 Red. masses --      2.6390                 2.9545                 3.5656
 Frc consts  --      3.4510                 3.9138                 4.8360
 IR Inten    --     30.5709                 5.3446                83.9596

                     55                     56                     57
                      A                      A                      A
 Frequencies --   1530.8034              1603.4409              1642.3440
 Red. masses --      2.7097                 8.9724                 6.5908
 Frc consts  --      3.7411                13.5914                10.4742
 IR Inten    --     87.9634               196.7878                11.9395

                     58                     59                     60
                      A                      A                      A
 Frequencies --   1649.8925              1684.0957              1709.4774
 Red. masses --      5.9192                 6.9261                 6.5161
 Frc consts  --      9.4935                11.5738                11.2193
 IR Inten    --     96.6176                 2.1278                87.5266

                     61                     62                     63
                      A                      A                      A
 Frequencies --   3199.7835              3211.0450              3212.6630
 Red. masses --      1.0886                 1.0861                 1.0884
 Frc consts  --      6.5667                 6.5982                 6.6186
 IR Inten    --      3.7924                 1.2827                 5.8986

                     64                     65                     66
                      A                      A                      A
 Frequencies --   3222.4587              3230.8193              3233.1857
 Red. masses --      1.0905                 1.0941                 1.0959
 Frc consts  --      6.6720                 6.7289                 6.7495
 IR Inten    --      5.3190                10.0006                12.1769

                     67                     68                     69
                      A                      A                      A
 Frequencies --   3238.5609              3239.1982              3684.1964
 Red. masses --      1.0996                 1.0996                 1.0663
 Frc consts  --      6.7953                 6.7979                 8.5273
 IR Inten    --     19.7641                10.4706               459.1674

 - Thermochemistry -
 -------------------
 Temperature   298.150 Kelvin.  Pressure   1.00000 Atm.
 Atom     1 has atomic number  6 and mass  12.00000

 Molecular mass:   227.04049 amu.
 Principal axes and moments of inertia in atomic units:
                           1         2         3
     Eigenvalues --  1337.971726403.608467741.58019
           X           -0.69260   0.72132   0.00000
           Y            0.72132   0.69260  -0.00001
           Z            0.00001   0.00001   1.00000
 This molecule is an asymmetric top.
 Rotational symmetry number  1.
 Warning -- assumption of classical behavior for rotation
           may cause significant error
 Rotational temperatures (Kelvin)      0.06474     0.01353     0.01119
 Rotational constants (GHZ):           1.34886     0.28183     0.23312
 Zero-point vibrational energy     499009.1 (Joules/Mol)
                                  119.26603 (Kcal/Mol)
 Warning -- explicit consideration of  19 degrees of freedom as
           vibrations may cause significant error
 Vibrational temperatures:     73.03    85.35   157.86   216.81   287.07
          (Kelvin)            353.06   366.07   413.24   469.87   577.94
                              633.16   678.01   709.95   740.42   775.04
                              784.50   825.97   854.85   880.05   947.79
                              971.64   998.06  1039.38  1087.61  1103.60
                             1120.40  1135.34  1207.49  1274.74  1278.62
                             1281.44  1401.03  1403.20  1405.64  1455.85
                             1461.15  1513.10  1543.18  1576.39  1648.39
                             1655.73  1694.02  1704.72  1764.85  1836.60
                             1845.94  1879.31  1939.02  1967.33  1973.85
                             2020.18  2143.48  2157.38  2182.94  2202.48
                             2306.99  2362.97  2373.83  2423.04  2459.56
                             4603.77  4619.98  4622.31  4636.40  4648.43
                             4651.83  4659.57  4660.48  5300.74

 Zero-point correction=                           0.190063 (Hartree/Particle)
 Thermal correction to Energy=                    0.201936
 Thermal correction to Enthalpy=                  0.202880
 Thermal correction to Gibbs Free Energy=         0.151273
 Sum of electronic and zero-point Energies=          -1028.637412
 Sum of electronic and thermal Energies=             -1028.625539
 Sum of electronic and thermal Enthalpies=           -1028.624595
 Sum of electronic and thermal Free Energies=        -1028.676202

                     E (Thermal)             CV                S
                      KCal/Mol        Cal/Mol-Kelvin    Cal/Mol-Kelvin
 Total                  126.716             48.271            108.616
 Electronic               0.000              0.000              0.000
 Translational            0.889              2.981             42.162
 Rotational               0.889              2.981             32.561
 Vibrational            124.939             42.310             33.893
 Vibration     1          0.595              1.977              4.788
 Vibration     2          0.597              1.974              4.480
 Vibration     3          0.606              1.941              3.274
 Vibration     4          0.618              1.902              2.663
 Vibration     5          0.638              1.841              2.137
 Vibration     6          0.660              1.770              1.763
 Vibration     7          0.665              1.755              1.700
 Vibration     8          0.684              1.697              1.490
 Vibration     9          0.710              1.622              1.277
 Vibration    10          0.767              1.466              0.956
 Vibration    11          0.800              1.383              0.826
 Vibration    12          0.828              1.314              0.734
 Vibration    13          0.849              1.265              0.675
 Vibration    14          0.870              1.218              0.623
 Vibration    15          0.894              1.165              0.568
 Vibration    16          0.900              1.150              0.554
 Vibration    17          0.930              1.087              0.496
 Vibration    18          0.952              1.044              0.460
 Vibration    19          0.971              1.007              0.430

 Optimization completed.
    -- Stationary point found.
 Normal termination of Gaussian 16 at Tue Oct 27 23:06:26 2020.
