 Gaussian 16, Revision C.01,
 Gaussian 16:  ES64L-G16RevC.01  3-Jul-2019

 ----------------------------------------------------------------------
 #p opt=addgic freq wb97xd/cc-pvdz nosymm int=ultrafine scrf=(solvent=C
 arbonTetraChloride)
 ----------------------------------------------------------------------

 ------------------------------------------------
 NM 2D-scan of HBT TD-WB97XD pVDZ in CTC Relaxed.
 ------------------------------------------------
 Symbolic Z-matrix:
 Charge =  0 Multiplicity = 1

 SCF Done:  E(RwB97XD) =  -1028.81054506     A.U. after   15 cycles
 SCF Done:  E(RwB97XD) =  -1028.82408785     A.U. after   13 cycles
 SCF Done:  E(RwB97XD) =  -1028.82516570     A.U. after   12 cycles
 SCF Done:  E(RwB97XD) =  -1028.82527968     A.U. after   11 cycles
 SCF Done:  E(RwB97XD) =  -1028.82532543     A.U. after   10 cycles
 SCF Done:  E(RwB97XD) =  -1028.82532951     A.U. after    9 cycles
 Optimization completed.
    -- Stationary point found.
 Normal termination of Gaussian 16 at Wed Oct 28 01:56:12 2020.

 --------------------------------------------------------------------
 #P Geom=AllCheck Guess=TCheck SCRF=Check GenChk RwB97XD/CC-pVDZ Freq
 --------------------------------------------------------------------

 Structure from the checkpoint file:  "config_3_19.chk"
 ------------------------------------------------
 NM 2D-scan of HBT TD-WB97XD pVDZ in CTC Relaxed.
 ------------------------------------------------
 Charge =  0 Multiplicity = 1

                          Input orientation:
 ---------------------------------------------------------------------
 Center     Atomic      Atomic             Coordinates (Angstroms)
 Number     Number       Type             X           Y           Z
 ---------------------------------------------------------------------
      1          6           0        1.512295   -3.265575   -0.000086
      2          6           0        0.998551   -1.972135   -0.000058
      3          6           0        1.797892   -0.815459    0.000007
      4          6           0        3.192487   -0.983338    0.000045
      5          6           0        3.715431   -2.275941    0.000020
      6          6           0        2.889728   -3.411319   -0.000045
      7          1           0        0.846058   -4.128681   -0.000134
      8          1           0        3.851780   -0.114477    0.000097
      9          1           0        4.798671   -2.407082    0.000052
     10          1           0        3.332176   -4.408332   -0.000062
     11          7           0        1.050196    0.368385    0.000035
     12         16           0       -0.682586   -1.548815   -0.000085
     13          6           0       -1.290933    1.128721    0.000029
     14          6           0       -2.636892    0.740827    0.000076
     15          6           0       -0.929846    2.490817   -0.000003
     16          6           0       -3.650244    1.683080    0.000085
     17          1           0       -2.896634   -0.319527    0.000113
     18          6           0       -1.970211    3.444417    0.000002
     19          6           0       -3.302058    3.038709    0.000043
     20          1           0       -4.694818    1.371950    0.000124
     21          1           0       -1.709409    4.503599   -0.000033
     22          1           0       -4.087181    3.797535    0.000042
     23          6           0       -0.237813    0.125597    0.000002
     24          8           0        0.353341    2.834676   -0.000058
     25          1           0        0.900526    1.979207   -0.000086
 ---------------------------------------------------------------------

 SCF Done:  E(RwB97XD) =  -1028.82532951     A.U. after    1 cycles

 Alpha  occ. eigenvalues --  -89.08358 -19.27896 -14.47361 -10.39282 -10.37363
 Alpha  occ. eigenvalues --  -10.35316 -10.34534 -10.32174 -10.31919 -10.31901
 Alpha  occ. eigenvalues --  -10.31824 -10.31594 -10.31542 -10.31542 -10.30382
 Alpha  occ. eigenvalues --  -10.30286  -8.10541  -6.05377  -6.05018  -6.04595
 Alpha  occ. eigenvalues --   -1.16314  -1.08865  -0.97378  -0.96375  -0.92035
 Alpha  occ. eigenvalues --   -0.88621  -0.85601  -0.84636  -0.82886  -0.75498
 Alpha  occ. eigenvalues --   -0.71654  -0.70724  -0.69402  -0.68006  -0.63382
 Alpha  occ. eigenvalues --   -0.60665  -0.58949  -0.58505  -0.56518  -0.54583
 Alpha  occ. eigenvalues --   -0.54217  -0.53385  -0.52981  -0.50800  -0.50395
 Alpha  occ. eigenvalues --   -0.49182  -0.47313  -0.46013  -0.45535  -0.45082
 Alpha  occ. eigenvalues --   -0.44113  -0.43011  -0.42503  -0.39822  -0.37205
 Alpha  occ. eigenvalues --   -0.36244  -0.32100  -0.31726  -0.29195
 Alpha virt. eigenvalues --   -0.00494   0.04832   0.06712   0.07137   0.08216
 Alpha virt. eigenvalues --    0.11344   0.14639   0.15272   0.17379   0.18083
 Alpha virt. eigenvalues --    0.18998   0.21140   0.21544   0.22575   0.22675

 Mulliken charges:
               1
     1  C    0.018550
     2  C   -0.209049
     3  C    0.214092
     4  C   -0.020670
     5  C    0.002127
     6  C    0.003540
     7  H    0.017953
     8  H    0.020461
     9  H    0.020446
    10  H    0.021419
    11  N   -0.362070
    12  S    0.150180
    13  C   -0.041859
    14  C   -0.035202
    15  C    0.072728
    16  C   -0.005360
    17  H    0.023925
    18  C   -0.001396
    19  C    0.021530
    20  H    0.009614
    21  H    0.017091
    22  H    0.019292
    23  C    0.089050
    24  O   -0.219024
    25  H    0.172632
 Sum of Mulliken charges =  -0.00000

 Dipole moment (field-independent basis, Debye):
    X=             -0.2615    Y=             -2.7855    Z=             -0.0000  Tot=              2.7977
 Quadrupole moment (field-independent basis, Debye-Ang):
   XX=            -82.6864   YY=            -90.4082   ZZ=           -103.9966
   XY=             -7.3293   XZ=             -0.0001   YZ=              0.0002

  Exact polarizability:     272.914     -67.844     253.538      -0.000       0.002      62.832
 Approx polarizability:     261.076     -23.082     241.527       0.000       0.002      82.133

 ******    1 imaginary frequencies (negative Signs) ******

                      1                      2                      3
                      A                      A                      A
 Frequencies --    -27.2310                64.5322               128.1787
 Red. masses --      5.4761                 5.8819                 5.6424
 Frc consts  --      0.0024                 0.0144                 0.0546
 IR Inten    --      0.0353                 1.1678                 2.0153

                      4                      5                      6
                      A                      A                      A
 Frequencies --    150.9373               197.0660               245.0124
 Red. masses --      5.0168                 6.1182                 5.5085
 Frc consts  --      0.0673                 0.1400                 0.1948
 IR Inten    --      0.1100                 0.8150                 0.0185

                      7                      8                      9
                      A                      A                      A
 Frequencies --    278.4904               318.5935               330.6249
 Red. masses --      7.5380                 6.3308                 5.0761
 Frc consts  --      0.3445                 0.3786                 0.3269
 IR Inten    --      0.9771                 9.2881                 0.0259

                     10                     11                     12
                      A                      A                      A
 Frequencies --    423.4359               436.9839               465.1732
 Red. masses --     10.0773                 3.0909                 3.5855
 Frc consts  --      1.0646                 0.3477                 0.4571
 IR Inten    --      0.1349                 1.5798                 8.2303

                     13                     14                     15
                      A                      A                      A
 Frequencies --    517.3652               524.3222               536.1803
 Red. masses --      7.6885                 6.0934                 3.4560
 Frc consts  --      1.2125                 0.9870                 0.5854
 IR Inten    --      1.4940                11.3756                 3.5208

                     16                     17                     18
                      A                      A                      A
 Frequencies --    558.3280               577.1900               589.9093
 Red. masses --      7.2770                 3.7543                 7.6628
 Frc consts  --      1.3365                 0.7369                 1.5711
 IR Inten    --      2.7452                 0.0303                 4.0590

                     19                     20                     21
                      A                      A                      A
 Frequencies --    647.5252               680.5388               737.3301
 Red. masses --      6.2293                 6.6738                 6.4487
 Frc consts  --      1.5389                 1.8211                 2.0656
 IR Inten    --      0.0011                 3.4904                15.2263

                     22                     23                     24
                      A                      A                      A
 Frequencies --    756.7805               759.0576               766.2366
 Red. masses --      1.9397                10.0924                 3.5047
 Frc consts  --      0.6545                 3.4261                 1.2123
 IR Inten    --     31.0315                20.3354                 0.0002

                     25                     26                     27
                      A                      A                      A
 Frequencies --    773.4336               786.3500               853.0559
 Red. masses --      1.3124                 1.9805                 5.9615
 Frc consts  --      0.4626                 0.7215                 2.5560
 IR Inten    --     58.6237                40.6866                15.4909

                     28                     29                     30
                      A                      A                      A
 Frequencies --    880.9365               887.2183               889.8557
 Red. masses --      1.5653                 1.4104                 6.6831
 Frc consts  --      0.7157                 0.6541                 3.1180
 IR Inten    --      5.8010                 0.1962                 5.1542

                     31                     32                     33
                      A                      A                      A
 Frequencies --    933.9062               965.7648               975.5665
 Red. masses --      1.0753                 1.3674                 1.3671
 Frc consts  --      0.5526                 0.7515                 0.7666
 IR Inten    --     77.6142                 0.6524                 1.8487

                     34                     35                     36
                      A                      A                      A
 Frequencies --   1010.1261              1011.0555              1015.3986
 Red. masses --      7.7248                 1.3050                 1.3057
 Frc consts  --      4.6439                 0.7860                 0.7931
 IR Inten    --     43.0129                 0.6041                 0.0332

                     37                     38                     39
                      A                      A                      A
 Frequencies --   1052.0001              1069.0391              1109.4594
 Red. masses --      1.9975                 1.8804                 3.2156
 Frc consts  --      1.3025                 1.2662                 2.3320
 IR Inten    --      8.8484                 8.9559                 5.2953

                     40                     41                     42
                      A                      A                      A
 Frequencies --   1155.8377              1161.0402              1176.2173
 Red. masses --      1.4291                 1.3869                 1.1444
 Frc consts  --      1.1249                 1.1015                 0.9328
 IR Inten    --      7.2322                 2.6911                38.8559

                     43                     44                     45
                      A                      A                      A
 Frequencies --   1184.7941              1258.2245              1278.6337
 Red. masses --      1.2963                 2.0033                 3.0311
 Frc consts  --      1.0721                 1.8686                 2.9197
 IR Inten    --      0.9146                68.3194                97.7350

                     46                     47                     48
                      A                      A                      A
 Frequencies --   1290.3192              1312.7457              1356.8776
 Red. masses --      1.8478                 2.2278                 3.4460
 Frc consts  --      1.8126                 2.2619                 3.7381
 IR Inten    --     84.4541                35.4771                31.0303

                     49                     50                     51
                      A                      A                      A
 Frequencies --   1372.8082              1379.7722              1477.8342
 Red. masses --      6.4623                 6.2671                 2.5356
 Frc consts  --      7.1756                 7.0296                 3.2628
 IR Inten    --     14.6568                 9.0032                13.7432

                     52                     53                     54
                      A                      A                      A
 Frequencies --   1489.2959              1503.7094              1540.2593
 Red. masses --      2.5521                 2.8617                 3.8223
 Frc consts  --      3.3351                 3.8125                 5.3427
 IR Inten    --     37.0555                22.9269               109.4991

                     55                     56                     57
                      A                      A                      A
 Frequencies --   1576.0261              1600.8516              1648.6546
 Red. masses --      5.4401                 2.2961                 6.8802
 Frc consts  --      7.9613                 3.4669                11.0182
 IR Inten    --    291.3779                 6.4657                 5.5295

                     58                     59                     60
                      A                      A                      A
 Frequencies --   1677.3584              1689.7895              1713.9504
 Red. masses --      6.7252                 4.3323                 2.6812
 Frc consts  --     11.1483                 7.2885                 4.6406
 IR Inten    --     21.6224               167.1179               155.6050

                     61                     62                     63
                      A                      A                      A
 Frequencies --   2882.7829              3205.1931              3208.9648
 Red. masses --      1.0752                 1.0873                 1.0861
 Frc consts  --      5.2643                 6.5815                 6.5893
 IR Inten    --   1193.3123                 2.9061                 1.3792

                     64                     65                     66
                      A                      A                      A
 Frequencies --   3211.0137              3219.1027              3228.0516
 Red. masses --      1.0897                 1.0903                 1.0942
 Frc consts  --      6.6198                 6.6568                 6.7179
 IR Inten    --      8.1734                 2.5615                12.8980

                     67                     68                     69
                      A                      A                      A
 Frequencies --   3228.4233              3235.7830              3238.7528
 Red. masses --      1.0959                 1.1000                 1.0991
 Frc consts  --      6.7297                 6.7859                 6.7924
 IR Inten    --     10.1105                16.9794                13.6372

 - Thermochemistry -
 -------------------
 Temperature   298.150 Kelvin.  Pressure   1.00000 Atm.
 Atom     1 has atomic number  6 and mass  12.00000

 Molecular mass:   227.04049 amu.
 Principal axes and moments of inertia in atomic units:
                           1         2         3
     Eigenvalues --  1271.799916306.756087578.55599
           X           -0.70245   0.71174   0.00000
           Y            0.71174   0.70245  -0.00001
           Z            0.00001   0.00001   1.00000
 This molecule is an asymmetric top.
 Rotational symmetry number  1.
 Warning -- assumption of classical behavior for rotation
           may cause significant error
 Rotational temperatures (Kelvin)      0.06810     0.01373     0.01143
 Rotational constants (GHZ):           1.41904     0.28616     0.23814
    1 imaginary frequencies ignored.
 Zero-point vibrational energy     498878.8 (Joules/Mol)
                                  119.23490 (Kcal/Mol)
 Warning -- explicit consideration of  17 degrees of freedom as
           vibrations may cause significant error
 Vibrational temperatures:     92.85   184.42   217.17   283.53   352.52
          (Kelvin)            400.69   458.39   475.70   609.23   628.72
                              669.28   744.37   754.38   771.44   803.31
                              830.45   848.75   931.64   979.14  1060.85
                             1088.84  1092.11  1102.44  1112.80  1131.38
                             1227.36  1267.47  1276.51  1280.30  1343.68
                             1389.52  1403.62  1453.35  1454.68  1460.93
                             1513.59  1538.11  1596.26  1662.99  1670.48
                             1692.31  1704.65  1810.30  1839.67  1856.48
                             1888.75  1952.24  1975.16  1985.18  2126.27
                             2142.76  2163.50  2216.09  2267.55  2303.27
                             2372.05  2413.34  2431.23  2465.99  4147.68
                             4611.56  4616.98  4619.93  4631.57  4644.45
                             4644.98  4655.57  4659.84

 Zero-point correction=                           0.190013 (Hartree/Particle)
 Thermal correction to Energy=                    0.200747
 Thermal correction to Enthalpy=                  0.201692
 Thermal correction to Gibbs Free Energy=         0.153047
 Sum of electronic and zero-point Energies=          -1028.635317
 Sum of electronic and thermal Energies=             -1028.624582
 Sum of electronic and thermal Enthalpies=           -1028.623638
 Sum of electronic and thermal Free Energies=        -1028.672283

                     E (Thermal)             CV                S
                      KCal/Mol        Cal/Mol-Kelvin    Cal/Mol-Kelvin
 Total                  125.971             45.232            102.382
 Electronic               0.000              0.000              0.000
 Translational            0.889              2.981             42.162
 Rotational               0.889              2.981             32.475
 Vibrational            124.193             39.270             27.745
 Vibration     1          0.597              1.971              4.314
 Vibration     2          0.611              1.925              2.973
 Vibration     3          0.618              1.902              2.660
 Vibration     4          0.636              1.844              2.160
 Vibration     5          0.660              1.771              1.766
 Vibration     6          0.679              1.713              1.543
 Vibration     7          0.705              1.638              1.317
 Vibration     8          0.713              1.614              1.257
 Vibration     9          0.786              1.419              0.880
 Vibration    10          0.797              1.390              0.836
 Vibration    11          0.823              1.327              0.751
 Vibration    12          0.872              1.212              0.616
 Vibration    13          0.879              1.196              0.600
 Vibration    14          0.891              1.170              0.574
 Vibration    15          0.914              1.121              0.527
 Vibration    16          0.934              1.081              0.491
 Vibration    17          0.947              1.053              0.467

 Optimization completed.
    -- Stationary point found.
 Normal termination of Gaussian 16 at Wed Oct 28 02:02:45 2020.
