 Gaussian 16, Revision C.01,
 Gaussian 16:  ES64L-G16RevC.01  3-Jul-2019

 ----------------------------------------------------------------------
 #p opt=addgic freq wb97xd/cc-pvdz nosymm int=ultrafine scrf=(solvent=C
 arbonTetraChloride)
 ----------------------------------------------------------------------

 ------------------------------------------------
 NM 2D-scan of HBT TD-WB97XD pVDZ in CTC Relaxed.
 ------------------------------------------------
 Symbolic Z-matrix:
 Charge =  0 Multiplicity = 1

 SCF Done:  E(RwB97XD) =  -1028.79946885     A.U. after   16 cycles
 SCF Done:  E(RwB97XD) =  -1028.80910849     A.U. after   14 cycles
 SCF Done:  E(RwB97XD) =  -1028.81011414     A.U. after   13 cycles
 SCF Done:  E(RwB97XD) =  -1028.81040613     A.U. after   12 cycles
 SCF Done:  E(RwB97XD) =  -1028.81043477     A.U. after   10 cycles
 SCF Done:  E(RwB97XD) =  -1028.81043930     A.U. after   10 cycles
 SCF Done:  E(RwB97XD) =  -1028.81044011     A.U. after   10 cycles
 Optimization completed.
    -- Stationary point found.
 Normal termination of Gaussian 16 at Wed Oct 28 01:10:33 2020.

 --------------------------------------------------------------------
 #P Geom=AllCheck Guess=TCheck SCRF=Check GenChk RwB97XD/CC-pVDZ Freq
 --------------------------------------------------------------------

 Structure from the checkpoint file:  "config_8_16.chk"
 ------------------------------------------------
 NM 2D-scan of HBT TD-WB97XD pVDZ in CTC Relaxed.
 ------------------------------------------------
 Charge =  0 Multiplicity = 1

                          Input orientation:
 ---------------------------------------------------------------------
 Center     Atomic      Atomic             Coordinates (Angstroms)
 Number     Number       Type             X           Y           Z
 ---------------------------------------------------------------------
      1          6           0        1.547263   -3.262670    0.000303
      2          6           0        0.990070   -1.987607    0.000098
      3          6           0        1.774654   -0.819792   -0.000205
      4          6           0        3.167391   -0.934876   -0.000346
      5          6           0        3.727925   -2.211108   -0.000130
      6          6           0        2.933074   -3.365376    0.000198
      7          1           0        0.912276   -4.149076    0.000526
      8          1           0        3.796248   -0.044297   -0.000600
      9          1           0        4.814251   -2.310223   -0.000223
     10          1           0        3.402936   -4.349517    0.000350
     11          7           0        0.992124    0.339079   -0.000365
     12         16           0       -0.712770   -1.596543    0.000087
     13          6           0       -1.309031    1.107960   -0.000012
     14          6           0       -2.688759    0.757427   -0.000183
     15          6           0       -0.873878    2.489050    0.000281
     16          6           0       -3.655708    1.720423   -0.000207
     17          1           0       -2.977301   -0.297117   -0.000365
     18          6           0       -1.936311    3.464435    0.000323
     19          6           0       -3.254494    3.087441    0.000029
     20          1           0       -4.712683    1.455246   -0.000383
     21          1           0       -1.647318    4.516779    0.000659
     22          1           0       -4.026377    3.861172    0.000059
     23          6           0       -0.323817    0.102857   -0.000091
     24          8           0        0.355928    2.810790    0.001028
     25          1           0        1.158795    1.409139   -0.000732
 ---------------------------------------------------------------------

 SCF Done:  E(RwB97XD) =  -1028.81044011     A.U. after    1 cycles

 Alpha  occ. eigenvalues --  -89.09678 -19.22057 -14.51744 -10.40928 -10.37426
 Alpha  occ. eigenvalues --  -10.36202 -10.35853 -10.33105 -10.32858 -10.32390
 Alpha  occ. eigenvalues --  -10.32228 -10.31287 -10.30899 -10.30427 -10.29302
 Alpha  occ. eigenvalues --  -10.28833  -8.11775  -6.06642  -6.06272  -6.05788
 Alpha  occ. eigenvalues --   -1.12619  -1.09612  -0.98421  -0.95569  -0.93193
 Alpha  occ. eigenvalues --   -0.89169  -0.86632  -0.83727  -0.82151  -0.75616
 Alpha  occ. eigenvalues --   -0.72334  -0.72117  -0.68711  -0.67897  -0.64621
 Alpha  occ. eigenvalues --   -0.60906  -0.59674  -0.56915  -0.55647  -0.55612
 Alpha  occ. eigenvalues --   -0.54973  -0.53856  -0.52949  -0.50236  -0.49794
 Alpha  occ. eigenvalues --   -0.49105  -0.48169  -0.46723  -0.45516  -0.44854
 Alpha  occ. eigenvalues --   -0.44449  -0.43057  -0.41890  -0.40508  -0.36709
 Alpha  occ. eigenvalues --   -0.33412  -0.32548  -0.31574  -0.26746
 Alpha virt. eigenvalues --   -0.01167   0.03921   0.05811   0.06987   0.08951
 Alpha virt. eigenvalues --    0.11128   0.14292   0.14882   0.16441   0.17579
 Alpha virt. eigenvalues --    0.18784   0.20245   0.20911   0.21551   0.22885

 Mulliken charges:
               1
     1  C    0.018951
     2  C   -0.225860
     3  C    0.259787
     4  C   -0.012111
     5  C    0.007661
     6  C    0.004428
     7  H    0.024136
     8  H    0.029852
     9  H    0.026168
    10  H    0.025619
    11  N   -0.185452
    12  S    0.183297
    13  C   -0.098695
    14  C   -0.019891
    15  C    0.111355
    16  C   -0.026767
    17  H    0.014283
    18  C   -0.017598
    19  C    0.025549
    20  H    0.002965
    21  H    0.004161
    22  H    0.014380
    23  C    0.068914
    24  O   -0.407813
    25  H    0.172681
 Sum of Mulliken charges =  -0.00000

 Dipole moment (field-independent basis, Debye):
    X=              1.3832    Y=             -5.1330    Z=             -0.0027  Tot=              5.3160
 Quadrupole moment (field-independent basis, Debye-Ang):
   XX=            -81.9864   YY=            -95.1790   ZZ=           -104.0123
   XY=             -6.9516   XZ=             -0.0027   YZ=             -0.0079

  Exact polarizability:     283.809     -83.629     280.270      -0.000       0.004      62.827
 Approx polarizability:     264.613     -30.221     255.046       0.004       0.003      81.952

                      1                      2                      3
                      A                      A                      A
 Frequencies --     52.1860                67.4938                76.5811
 Red. masses --      5.9477                 5.4383                 4.6196
 Frc consts  --      0.0095                 0.0146                 0.0160
 IR Inten    --      1.2675                12.5815                 0.5130

                      4                      5                      6
                      A                      A                      A
 Frequencies --    143.8079               200.2110               235.7686
 Red. masses --      5.3316                 6.2461                 6.2596
 Frc consts  --      0.0650                 0.1475                 0.2050
 IR Inten    --      1.6121                 0.0282                 0.8827

                      7                      8                      9
                      A                      A                      A
 Frequencies --    239.9699               297.1826               311.5086
 Red. masses --      6.1313                 6.3540                 5.3880
 Frc consts  --      0.2080                 0.3306                 0.3080
 IR Inten    --     19.9893                 0.8037                 0.4796

                     10                     11                     12
                      A                      A                      A
 Frequencies --    416.8083               430.0523               452.6367
 Red. masses --     10.2583                 3.2119                 3.5491
 Frc consts  --      1.0500                 0.3500                 0.4284
 IR Inten    --      2.1087                 0.0622                10.5186

                     13                     14                     15
                      A                      A                      A
 Frequencies --    513.6146               520.1837               528.5469
 Red. masses --      8.8355                 4.6712                 2.8120
 Frc consts  --      1.3733                 0.7447                 0.4628
 IR Inten    --      9.5105                 6.8924                 4.8348

                     16                     17                     18
                      A                      A                      A
 Frequencies --    551.9080               562.7764               578.4569
 Red. masses --      7.8501                 3.8328                 6.5034
 Frc consts  --      1.4088                 0.7152                 1.2821
 IR Inten    --     13.1695                 0.0423                31.5248

                     19                     20                     21
                      A                      A                      A
 Frequencies --    631.4569               641.1770               724.8175
 Red. masses --      5.4417                 6.0554                 5.6190
 Frc consts  --      1.2784                 1.4667                 1.7393
 IR Inten    --      5.3115                 0.0805                 0.1784

                     22                     23                     24
                      A                      A                      A
 Frequencies --    731.9104               751.1717               761.2610
 Red. masses --      7.8044                 2.6532                 1.4384
 Frc consts  --      2.4632                 0.8821                 0.4911
 IR Inten    --     96.7715                10.3535                56.3447

                     25                     26                     27
                      A                      A                      A
 Frequencies --    775.7602               778.4742               801.8882
 Red. masses --      1.6540                 2.3489                 3.4710
 Frc consts  --      0.5865                 0.8387                 1.3150
 IR Inten    --     23.5676                34.8073                23.7260

                     28                     29                     30
                      A                      A                      A
 Frequencies --    852.3473               877.2573               884.6103
 Red. masses --      5.6479                 1.8741                 1.3745
 Frc consts  --      2.4175                 0.8497                 0.6337
 IR Inten    --     14.2405                 9.5964                 0.8165

                     31                     32                     33
                      A                      A                      A
 Frequencies --    955.3618               965.2632               971.0524
 Red. masses --      4.7867                 1.3267                 1.3600
 Frc consts  --      2.5741                 0.7283                 0.7556
 IR Inten    --     27.7817                 0.3601                 3.5471

                     34                     35                     36
                      A                      A                      A
 Frequencies --   1000.7726              1014.1366              1017.9802
 Red. masses --      1.0879                 1.3030                 1.3076
 Frc consts  --      0.6420                 0.7895                 0.7983
 IR Inten    --     78.4534                 0.5717                 1.2228

                     37                     38                     39
                      A                      A                      A
 Frequencies --   1037.1156              1054.9104              1066.0681
 Red. masses --      2.3705                 2.0480                 3.2730
 Frc consts  --      1.5023                 1.3428                 2.1916
 IR Inten    --     20.0817                10.7844                16.3838

                     40                     41                     42
                      A                      A                      A
 Frequencies --   1123.7864              1163.2798              1164.6323
 Red. masses --      2.4210                 1.3181                 1.3701
 Frc consts  --      1.8014                 1.0509                 1.0949
 IR Inten    --     23.3121                12.4273                26.3116

                     43                     44                     45
                      A                      A                      A
 Frequencies --   1179.0785              1193.1560              1250.2570
 Red. masses --      1.1579                 1.2659                 1.9372
 Frc consts  --      0.9484                 1.0618                 1.7841
 IR Inten    --     23.9659                 4.6953                22.2640

                     46                     47                     48
                      A                      A                      A
 Frequencies --   1287.2565              1320.0646              1352.9471
 Red. masses --      1.6279                 2.5984                 3.7236
 Frc consts  --      1.5893                 2.6678                 4.0158
 IR Inten    --     29.4862               125.0770                26.8980

                     49                     50                     51
                      A                      A                      A
 Frequencies --   1369.6124              1400.5988              1420.9109
 Red. masses --      4.5570                 3.7300                 3.5257
 Frc consts  --      5.0365                 4.3111                 4.1940
 IR Inten    --     35.7489                19.4511                63.4356

                     52                     53                     54
                      A                      A                      A
 Frequencies --   1490.6747              1500.6583              1512.4635
 Red. masses --      2.6563                 2.6988                 3.1637
 Frc consts  --      3.4776                 3.5809                 4.2640
 IR Inten    --     16.2351                45.6663                10.7846

                     55                     56                     57
                      A                      A                      A
 Frequencies --   1580.6750              1592.6040              1625.2094
 Red. masses --      4.4606                 4.8673                 8.8090
 Frc consts  --      6.5664                 7.2736                13.7086
 IR Inten    --   1779.6193               141.2605               527.6955

                     58                     59                     60
                      A                      A                      A
 Frequencies --   1655.8511              1679.8256              1711.6786
 Red. masses --      6.9143                 6.9447                 6.4908
 Frc consts  --     11.1696                11.5461                11.2046
 IR Inten    --     20.0177                27.0270               277.1248

                     61                     62                     63
                      A                      A                      A
 Frequencies --   2665.2131              3190.7037              3197.8856
 Red. masses --      1.1003                 1.0880                 1.0884
 Frc consts  --      4.6050                 6.5263                 6.5577
 IR Inten    --    490.0810                 2.4063                15.3053

                     64                     65                     66
                      A                      A                      A
 Frequencies --   3213.8350              3222.6435              3223.4487
 Red. masses --      1.0863                 1.0951                 1.0907
 Frc consts  --      6.6105                 6.7005                 6.6773
 IR Inten    --      1.1477                24.8491                 2.9575

                     67                     68                     69
                      A                      A                      A
 Frequencies --   3232.7629              3235.5831              3239.4348
 Red. masses --      1.0960                 1.0978                 1.0999
 Frc consts  --      6.7487                 6.7714                 6.8006
 IR Inten    --      5.3717                17.2407                10.8871

 - Thermochemistry -
 -------------------
 Temperature   298.150 Kelvin.  Pressure   1.00000 Atm.
 Atom     1 has atomic number  6 and mass  12.00000

 Molecular mass:   227.04049 amu.
 Principal axes and moments of inertia in atomic units:
                           1         2         3
     Eigenvalues --  1289.783636289.570267579.35372
           X           -0.70297   0.71122  -0.00003
           Y            0.71122   0.70297  -0.00006
           Z            0.00002   0.00007   1.00000
 This molecule is an asymmetric top.
 Rotational symmetry number  1.
 Warning -- assumption of classical behavior for rotation
           may cause significant error
 Rotational temperatures (Kelvin)      0.06715     0.01377     0.01143
 Rotational constants (GHZ):           1.39926     0.28694     0.23811
 Zero-point vibrational energy     493287.4 (Joules/Mol)
                                  117.89852 (Kcal/Mol)
 Warning -- explicit consideration of  18 degrees of freedom as
           vibrations may cause significant error
 Vibrational temperatures:     75.08    97.11   110.18   206.91   288.06
          (Kelvin)            339.22   345.26   427.58   448.19   599.69
                              618.75   651.24   738.98   748.43   760.46
                              794.07   809.71   832.27   908.53   922.51
                             1042.85  1053.06  1080.77  1095.28  1116.15
                             1120.05  1153.74  1226.34  1262.18  1272.76
                             1374.55  1388.80  1397.13  1439.89  1459.12
                             1464.65  1492.18  1517.78  1533.83  1616.88
                             1673.70  1675.65  1696.43  1716.69  1798.84
                             1852.08  1899.28  1946.59  1970.57  2015.15
                             2044.37  2144.75  2159.11  2176.10  2274.24
                             2291.40  2338.31  2382.40  2416.89  2462.72
                             3834.65  4590.71  4601.04  4623.99  4636.67
                             4637.82  4651.22  4655.28  4660.82

 Zero-point correction=                           0.187883 (Hartree/Particle)
 Thermal correction to Energy=                    0.199801
 Thermal correction to Enthalpy=                  0.200745
 Thermal correction to Gibbs Free Energy=         0.148925
 Sum of electronic and zero-point Energies=          -1028.622557
 Sum of electronic and thermal Energies=             -1028.610639
 Sum of electronic and thermal Enthalpies=           -1028.609695
 Sum of electronic and thermal Free Energies=        -1028.661515

                     E (Thermal)             CV                S
                      KCal/Mol        Cal/Mol-Kelvin    Cal/Mol-Kelvin
 Total                  125.377             48.094            109.064
 Electronic               0.000              0.000              0.000
 Translational            0.889              2.981             42.162
 Rotational               0.889              2.981             32.486
 Vibrational            123.599             42.132             34.416
 Vibration     1          0.596              1.977              4.733
 Vibration     2          0.598              1.970              4.225
 Vibration     3          0.599              1.965              3.977
 Vibration     4          0.616              1.909              2.753
 Vibration     5          0.638              1.840              2.131
 Vibration     6          0.655              1.786              1.835
 Vibration     7          0.657              1.779              1.803
 Vibration     8          0.691              1.679              1.433
 Vibration     9          0.700              1.652              1.354
 Vibration    10          0.780              1.434              0.903
 Vibration    11          0.791              1.405              0.858
 Vibration    12          0.811              1.355              0.788
 Vibration    13          0.869              1.220              0.625
 Vibration    14          0.875              1.205              0.610
 Vibration    15          0.884              1.187              0.590
 Vibration    16          0.907              1.136              0.540
 Vibration    17          0.919              1.112              0.518
 Vibration    18          0.935              1.078              0.488

                           ! Non-Optimized Parameters !
 Normal termination of Gaussian 16 at Wed Oct 28 01:16:42 2020.
