 Gaussian 16, Revision C.01,
 Gaussian 16:  ES64L-G16RevC.01  3-Jul-2019

 ----------------------------------------------------------------------
 #p opt=addgic freq wb97xd/cc-pvdz nosymm int=ultrafine scrf=(solvent=C
 arbonTetraChloride)
 ----------------------------------------------------------------------

 ------------------------------------------------
 NM 2D-scan of HBT TD-WB97XD pVDZ in CTC Relaxed.
 ------------------------------------------------
 Symbolic Z-matrix:
 Charge =  0 Multiplicity = 1

 SCF Done:  E(RwB97XD) =  -1028.78595154     A.U. after   16 cycles
 SCF Done:  E(RwB97XD) =  -1028.80619575     A.U. after   13 cycles
 SCF Done:  E(RwB97XD) =  -1028.80610172     A.U. after   13 cycles
 SCF Done:  E(RwB97XD) =  -1028.80771773     A.U. after   12 cycles
 SCF Done:  E(RwB97XD) =  -1028.80774546     A.U. after   10 cycles
 SCF Done:  E(RwB97XD) =  -1028.80774666     A.U. after    8 cycles
 Optimization completed.
    -- Stationary point found.
 Normal termination of Gaussian 16 at Tue Oct 27 21:02:30 2020.

 --------------------------------------------------------------------
 #P Geom=AllCheck Guess=TCheck SCRF=Check GenChk RwB97XD/CC-pVDZ Freq
 --------------------------------------------------------------------

 Structure from the checkpoint file:  "config_10_3.chk"
 ------------------------------------------------
 NM 2D-scan of HBT TD-WB97XD pVDZ in CTC Relaxed.
 ------------------------------------------------
 Charge =  0 Multiplicity = 1

                          Input orientation:
 ---------------------------------------------------------------------
 Center     Atomic      Atomic             Coordinates (Angstroms)
 Number     Number       Type             X           Y           Z
 ---------------------------------------------------------------------
      1          6           0        1.737659   -3.266829   -0.000028
      2          6           0        1.010278   -2.077064   -0.000011
      3          6           0        1.681226   -0.858207   -0.000005
      4          6           0        3.071804   -0.764709   -0.000012
      5          6           0        3.791130   -1.951932   -0.000027
      6          6           0        3.129964   -3.187174   -0.000036
      7          1           0        1.236897   -4.234969   -0.000036
      8          1           0        3.561561    0.209235   -0.000006
      9          1           0        4.881279   -1.921409   -0.000033
     10          1           0        3.712979   -4.108815   -0.000050
     11          7           0        0.802057    0.192313   -0.000001
     12         16           0       -0.748025   -1.794084    0.000002
     13          6           0       -1.415990    1.050786    0.000009
     14          6           0       -2.827110    0.905767   -0.000003
     15          6           0       -0.812693    2.389432    0.000029
     16          6           0       -3.666109    1.996824    0.000014
     17          1           0       -3.254111   -0.101432   -0.000028
     18          6           0       -1.750266    3.490390    0.000059
     19          6           0       -3.106794    3.301090    0.000050
     20          1           0       -4.747735    1.861244    0.000003
     21          1           0       -1.314362    4.490884    0.000087
     22          1           0       -3.772010    4.168234    0.000070
     23          6           0       -0.506960   -0.051945    0.000003
     24          8           0        0.430099    2.596751    0.000039
     25          1           0        1.081469    1.186528   -0.000012
 ---------------------------------------------------------------------

 SCF Done:  E(RwB97XD) =  -1028.80774666     A.U. after    1 cycles

 Alpha  occ. eigenvalues --  -89.10262 -19.21815 -14.50848 -10.41506 -10.36773
 Alpha  occ. eigenvalues --  -10.36298 -10.36047 -10.33390 -10.32804 -10.32518
 Alpha  occ. eigenvalues --  -10.32311 -10.31254 -10.31048 -10.30650 -10.29136
 Alpha  occ. eigenvalues --  -10.28566  -8.12212  -6.07103  -6.06717  -6.06220
 Alpha  occ. eigenvalues --   -1.13476  -1.10128  -0.98523  -0.94998  -0.93056
 Alpha  occ. eigenvalues --   -0.89326  -0.86361  -0.84053  -0.81861  -0.75816
 Alpha  occ. eigenvalues --   -0.73023  -0.71580  -0.69301  -0.67964  -0.64574
 Alpha  occ. eigenvalues --   -0.60855  -0.59751  -0.56786  -0.55927  -0.55810
 Alpha  occ. eigenvalues --   -0.54956  -0.53603  -0.52874  -0.50687  -0.49758
 Alpha  occ. eigenvalues --   -0.49099  -0.48133  -0.46676  -0.45576  -0.44844
 Alpha  occ. eigenvalues --   -0.44484  -0.42982  -0.41746  -0.40521  -0.36784
 Alpha  occ. eigenvalues --   -0.33532  -0.32168  -0.31640  -0.26527
 Alpha virt. eigenvalues --   -0.01267   0.03789   0.06213   0.06646   0.09114
 Alpha virt. eigenvalues --    0.10998   0.12449   0.14669   0.15972   0.17391
 Alpha virt. eigenvalues --    0.19094   0.20163   0.21271   0.21661   0.22967

 Mulliken charges:
               1
     1  C    0.009669
     2  C   -0.249375
     3  C    0.265522
     4  C   -0.009940
     5  C    0.013087
     6  C    0.001274
     7  H    0.025832
     8  H    0.032780
     9  H    0.027123
    10  H    0.026049
    11  N   -0.118939
    12  S    0.180810
    13  C   -0.140491
    14  C   -0.002281
    15  C    0.116457
    16  C   -0.032681
    17  H    0.001314
    18  C   -0.017855
    19  C    0.027146
    20  H    0.003213
    21  H    0.002064
    22  H    0.013271
    23  C    0.078987
    24  O   -0.393288
    25  H    0.140253
 Sum of Mulliken charges =  -0.00000

 Dipole moment (field-independent basis, Debye):
    X=              1.6703    Y=             -4.9453    Z=             -0.0001  Tot=              5.2197
 Quadrupole moment (field-independent basis, Debye-Ang):
   XX=            -82.3876   YY=            -93.9936   ZZ=           -104.0631
   XY=             -7.0148   XZ=             -0.0002   YZ=              0.0001

  Exact polarizability:     287.265     -85.277     284.396      -0.001       0.003      63.024
 Approx polarizability:     267.517     -32.862     256.234      -0.001       0.002      82.088

                      1                      2                      3
                      A                      A                      A
 Frequencies --     42.2858                64.5419               115.8048
 Red. masses --      4.8978                 6.3393                 5.6760
 Frc consts  --      0.0052                 0.0156                 0.0448
 IR Inten    --      0.1183                 2.5660                 1.2066

                      4                      5                      6
                      A                      A                      A
 Frequencies --    134.4097               196.1441               235.2984
 Red. masses --      5.1634                 5.8958                 6.0234
 Frc consts  --      0.0550                 0.1336                 0.1965
 IR Inten    --      0.9516                 0.0007                 0.7191

                      7                      8                      9
                      A                      A                      A
 Frequencies --    268.5741               308.1260               329.6357
 Red. masses --      7.4744                 5.3410                 6.2689
 Frc consts  --      0.3177                 0.2988                 0.4013
 IR Inten    --      4.6052                 1.2955                 7.8747

                     10                     11                     12
                      A                      A                      A
 Frequencies --    401.0181               430.0952               447.6627
 Red. masses --     10.7768                 3.2403                 3.5983
 Frc consts  --      1.0211                 0.3531                 0.4249
 IR Inten    --      4.6384                 0.6532                10.5164

                     13                     14                     15
                      A                      A                      A
 Frequencies --    508.5082               531.7256               541.1328
 Red. masses --      8.4986                 2.8798                 8.7519
 Frc consts  --      1.2948                 0.4797                 1.5099
 IR Inten    --      8.2630                 5.9889                 7.7354

                     16                     17                     18
                      A                      A                      A
 Frequencies --    562.1689               563.0877               587.3062
 Red. masses --      3.7171                 6.7795                 6.9621
 Frc consts  --      0.6921                 1.2665                 1.4149
 IR Inten    --      0.0045                 0.9843                38.0268

                     19                     20                     21
                      A                      A                      A
 Frequencies --    637.0137               656.7108               703.7551
 Red. masses --      5.8253                 5.6652                 6.4914
 Frc consts  --      1.3927                 1.4395                 1.8942
 IR Inten    --      0.2109                 4.2873                32.1298

                     22                     23                     24
                      A                      A                      A
 Frequencies --    736.3212               750.8831               761.6165
 Red. masses --      8.3901                 2.5988                 1.4964
 Frc consts  --      2.6801                 0.8633                 0.5114
 IR Inten    --     55.4307                 9.9464                49.7609

                     25                     26                     27
                      A                      A                      A
 Frequencies --    774.1641               776.8613               832.9409
 Red. masses --      2.1002                 1.6373                 5.8912
 Frc consts  --      0.7416                 0.5822                 2.4081
 IR Inten    --     32.6481                22.8695                20.6990

                     28                     29                     30
                      A                      A                      A
 Frequencies --    867.6759               880.8358               885.1068
 Red. masses --      1.2178                 1.5502                 4.0736
 Frc consts  --      0.5402                 0.7086                 1.8803
 IR Inten    --     20.1139                 7.7458                 4.2121

                     31                     32                     33
                      A                      A                      A
 Frequencies --    887.2274               957.1605               968.3995
 Red. masses --      1.4773                 4.8318                 1.3264
 Frc consts  --      0.6852                 2.6081                 0.7329
 IR Inten    --     62.4848                46.1224                 0.2841

                     34                     35                     36
                      A                      A                      A
 Frequencies --    971.9118              1015.0301              1016.0832
 Red. masses --      1.3579                 1.3037                 1.3031
 Frc consts  --      0.7558                 0.7914                 0.7926
 IR Inten    --      1.6326                 0.0247                 0.4229

                     37                     38                     39
                      A                      A                      A
 Frequencies --   1045.7493              1054.7604              1078.9032
 Red. masses --      2.1968                 2.0924                 3.8215
 Frc consts  --      1.4155                 1.3715                 2.6209
 IR Inten    --     12.0390                11.5358                28.2789

                     40                     41                     42
                      A                      A                      A
 Frequencies --   1118.2863              1153.0706              1159.3399
 Red. masses --      2.2565                 1.3231                 1.1962
 Frc consts  --      1.6626                 1.0364                 0.9473
 IR Inten    --    136.0761                 6.4955                66.5324

                     43                     44                     45
                      A                      A                      A
 Frequencies --   1182.8461              1196.1718              1265.7000
 Red. masses --      1.1446                 1.2701                 1.8294
 Frc consts  --      0.9435                 1.0707                 1.7267
 IR Inten    --      8.7692                20.3972                16.6329

                     46                     47                     48
                      A                      A                      A
 Frequencies --   1289.0180              1314.6133              1368.9703
 Red. masses --      1.5181                 2.7762                 3.0480
 Frc consts  --      1.4861                 2.8268                 3.3656
 IR Inten    --      4.1855               110.4033                92.0633

                     49                     50                     51
                      A                      A                      A
 Frequencies --   1380.8999              1391.7198              1419.5155
 Red. masses --      6.8217                 4.9258                 2.4084
 Frc consts  --      7.6642                 5.6212                 2.8593
 IR Inten    --     29.2545                69.2135                21.2028

                     52                     53                     54
                      A                      A                      A
 Frequencies --   1493.8443              1506.3796              1527.1343
 Red. masses --      2.6771                 2.7895                 3.2359
 Frc consts  --      3.5199                 3.7295                 4.4463
 IR Inten    --     32.1104               338.7305               196.9343

                     55                     56                     57
                      A                      A                      A
 Frequencies --   1569.6878              1609.7274              1621.7111
 Red. masses --      4.4151                 5.0435                 7.3521
 Frc consts  --      6.4094                 7.7000                11.3923
 IR Inten    --    945.6742               438.7540               270.2082

                     58                     59                     60
                      A                      A                      A
 Frequencies --   1678.4737              1685.8078              1713.4595
 Red. masses --      7.2036                 7.1953                 6.3239
 Frc consts  --     11.9572                12.0480                10.9391
 IR Inten    --      1.9773               226.3804               164.8746

                     61                     62                     63
                      A                      A                      A
 Frequencies --   3161.0466              3178.6745              3192.3616
 Red. masses --      1.0937                 1.0895                 1.0881
 Frc consts  --      6.4388                 6.4861                 6.5334
 IR Inten    --    406.4370                 4.4373                11.6069

                     64                     65                     66
                      A                      A                      A
 Frequencies --   3217.6301              3220.2926              3227.3491
 Red. masses --      1.0864                 1.0941                 1.0907
 Frc consts  --      6.6270                 6.6851                 6.6935
 IR Inten    --      1.7048                21.6397                 2.1103

                     67                     68                     69
                      A                      A                      A
 Frequencies --   3230.4800              3235.8623              3243.0300
 Red. masses --      1.0972                 1.0965                 1.0999
 Frc consts  --      6.7466                 6.7644                 6.8159
 IR Inten    --     20.6708                 4.6489                11.5186

 - Thermochemistry -
 -------------------
 Temperature   298.150 Kelvin.  Pressure   1.00000 Atm.
 Atom     1 has atomic number  6 and mass  12.00000

 Molecular mass:   227.04049 amu.
 Principal axes and moments of inertia in atomic units:
                           1         2         3
     Eigenvalues --  1318.900706308.554217627.45491
           X           -0.70472   0.70948   0.00000
           Y            0.70948   0.70472  -0.00001
           Z            0.00001   0.00001   1.00000
 This molecule is an asymmetric top.
 Rotational symmetry number  1.
 Warning -- assumption of classical behavior for rotation
           may cause significant error
 Rotational temperatures (Kelvin)      0.06567     0.01373     0.01136
 Rotational constants (GHZ):           1.36837     0.28608     0.23661
 Zero-point vibrational energy     496927.2 (Joules/Mol)
                                  118.76845 (Kcal/Mol)
 Warning -- explicit consideration of  18 degrees of freedom as
           vibrations may cause significant error
 Vibrational temperatures:     60.84    92.86   166.62   193.39   282.21
          (Kelvin)            338.54   386.42   443.32   474.27   576.98
                              618.81   644.09   731.63   765.03   778.57
                              808.84   810.16   845.00   916.52   944.86
                             1012.55  1059.40  1080.35  1095.80  1113.85
                             1117.73  1198.42  1248.39  1267.33  1273.47
                             1276.52  1377.14  1393.31  1398.36  1460.40
                             1461.92  1504.60  1517.57  1552.30  1608.96
                             1659.01  1668.03  1701.85  1721.02  1821.06
                             1854.61  1891.44  1969.64  1986.81  2002.37
                             2042.37  2149.31  2167.34  2197.21  2258.43
                             2316.04  2333.28  2414.95  2425.50  2465.29
                             4548.04  4573.40  4593.10  4629.45  4633.28
                             4643.44  4647.94  4655.68  4666.00

 Zero-point correction=                           0.189270 (Hartree/Particle)
 Thermal correction to Energy=                    0.201082
 Thermal correction to Enthalpy=                  0.202026
 Thermal correction to Gibbs Free Energy=         0.150426
 Sum of electronic and zero-point Energies=          -1028.618477
 Sum of electronic and thermal Energies=             -1028.606665
 Sum of electronic and thermal Enthalpies=           -1028.605720
 Sum of electronic and thermal Free Energies=        -1028.657321

                     E (Thermal)             CV                S
                      KCal/Mol        Cal/Mol-Kelvin    Cal/Mol-Kelvin
 Total                  126.181             47.960            108.602
 Electronic               0.000              0.000              0.000
 Translational            0.889              2.981             42.162
 Rotational               0.889              2.981             32.517
 Vibrational            124.403             41.998             33.923
 Vibration     1          0.595              1.980              5.149
 Vibration     2          0.597              1.971              4.313
 Vibration     3          0.608              1.936              3.169
 Vibration     4          0.613              1.919              2.882
 Vibration     5          0.636              1.845              2.169
 Vibration     6          0.655              1.787              1.838
 Vibration     7          0.673              1.731              1.605
 Vibration     8          0.698              1.658              1.372
 Vibration     9          0.712              1.616              1.262
 Vibration    10          0.767              1.468              0.959
 Vibration    11          0.791              1.405              0.858
 Vibration    12          0.807              1.366              0.803
 Vibration    13          0.864              1.231              0.637
 Vibration    14          0.887              1.180              0.583
 Vibration    15          0.896              1.159              0.563
 Vibration    16          0.918              1.113              0.520
 Vibration    17          0.919              1.111              0.518
 Vibration    18          0.944              1.059              0.472

 Optimization completed.
    -- Stationary point found.
 Normal termination of Gaussian 16 at Tue Oct 27 21:08:39 2020.
