 Gaussian 16, Revision C.01,
 Gaussian 16:  ES64L-G16RevC.01  3-Jul-2019

 ----------------------------------------------------------------------
 #p opt=addgic freq wb97xd/cc-pvdz nosymm int=ultrafine scrf=(solvent=C
 arbonTetraChloride)
 ----------------------------------------------------------------------

 ------------------------------------------------
 NM 2D-scan of HBT TD-WB97XD pVDZ in CTC Relaxed.
 ------------------------------------------------
 Symbolic Z-matrix:
 Charge =  0 Multiplicity = 1

 SCF Done:  E(RwB97XD) =  -1028.80988788     A.U. after   15 cycles
 SCF Done:  E(RwB97XD) =  -1028.81150241     A.U. after   14 cycles
 SCF Done:  E(RwB97XD) =  -1028.81070072     A.U. after   14 cycles
 SCF Done:  E(RwB97XD) =  -1028.81583868     A.U. after   13 cycles
 SCF Done:  E(RwB97XD) =  -1028.81656910     A.U. after   12 cycles
 SCF Done:  E(RwB97XD) =  -1028.81676492     A.U. after   12 cycles
 SCF Done:  E(RwB97XD) =  -1028.81560757     A.U. after   13 cycles
 SCF Done:  E(RwB97XD) =  -1028.81681451     A.U. after   11 cycles
 SCF Done:  E(RwB97XD) =  -1028.81681737     A.U. after    9 cycles
 SCF Done:  E(RwB97XD) =  -1028.81681738     A.U. after    9 cycles
 Optimization completed.
    -- Stationary point found.
 Normal termination of Gaussian 16 at Tue Oct 27 23:04:39 2020.

 --------------------------------------------------------------------
 #P Geom=AllCheck Guess=TCheck SCRF=Check GenChk RwB97XD/CC-pVDZ Freq
 --------------------------------------------------------------------

 Structure from the checkpoint file:  "config_7_10.chk"
 ------------------------------------------------
 NM 2D-scan of HBT TD-WB97XD pVDZ in CTC Relaxed.
 ------------------------------------------------
 Charge =  0 Multiplicity = 1

                          Input orientation:
 ---------------------------------------------------------------------
 Center     Atomic      Atomic             Coordinates (Angstroms)
 Number     Number       Type             X           Y           Z
 ---------------------------------------------------------------------
      1          6           0        1.627706   -3.247828   -0.000103
      2          6           0        1.006751   -2.002387   -0.000114
      3          6           0        1.734737   -0.805741   -0.000042
      4          6           0        3.133738   -0.845871   -0.000003
      5          6           0        3.756741   -2.090950    0.000023
      6          6           0        3.015670   -3.281292   -0.000023
      7          1           0        1.039852   -4.165897   -0.000200
      8          1           0        3.713430    0.077502    0.000055
      9          1           0        4.846532   -2.139648    0.000075
     10          1           0        3.531665   -4.242122   -0.000037
     11          7           0        0.901814    0.303552    0.000040
     12         16           0       -0.716116   -1.675415   -0.000403
     13          6           0       -1.369494    1.075792    0.000334
     14          6           0       -2.747820    0.815900    0.000264
     15          6           0       -0.854729    2.410345    0.000935
     16          6           0       -3.662254    1.852995    0.000225
     17          1           0       -3.098666   -0.219629    0.000139
     18          6           0       -1.823141    3.454535    0.000054
     19          6           0       -3.180375    3.173794   -0.000079
     20          1           0       -4.733094    1.650004    0.000101
     21          1           0       -1.464541    4.484987   -0.000383
     22          1           0       -3.892725    4.002077   -0.000424
     23          6           0       -0.386436    0.023322    0.000083
     24          8           0        0.426834    2.622118   -0.000182
     25          1           0        0.940075    1.556374   -0.000239
 ---------------------------------------------------------------------

 SCF Done:  E(RwB97XD) =  -1028.81681738     A.U. after    1 cycles

 Alpha  occ. eigenvalues --  -89.09384 -19.24385 -14.48646 -10.40155 -10.36635
 Alpha  occ. eigenvalues --  -10.36114 -10.35313 -10.32756 -10.32400 -10.32058
 Alpha  occ. eigenvalues --  -10.31971 -10.31535 -10.31201 -10.31073 -10.29636
 Alpha  occ. eigenvalues --  -10.29425  -8.11478  -6.06332  -6.05965  -6.05520
 Alpha  occ. eigenvalues --   -1.14014  -1.09785  -0.97839  -0.95746  -0.92578
 Alpha  occ. eigenvalues --   -0.88893  -0.85990  -0.83956  -0.82832  -0.75712
 Alpha  occ. eigenvalues --   -0.71685  -0.70970  -0.68952  -0.68257  -0.63634
 Alpha  occ. eigenvalues --   -0.60888  -0.59419  -0.57609  -0.55981  -0.55049
 Alpha  occ. eigenvalues --   -0.54600  -0.53569  -0.52574  -0.51003  -0.49799
 Alpha  occ. eigenvalues --   -0.49646  -0.47203  -0.46420  -0.45259  -0.45138
 Alpha  occ. eigenvalues --   -0.44250  -0.43142  -0.42121  -0.40425  -0.36406
 Alpha  occ. eigenvalues --   -0.34720  -0.32820  -0.31549  -0.27972
 Alpha virt. eigenvalues --   -0.00800   0.04332   0.06549   0.07369   0.08058
 Alpha virt. eigenvalues --    0.11074   0.14467   0.14936   0.16558   0.17779
 Alpha virt. eigenvalues --    0.19105   0.20717   0.21667   0.22149   0.22845

 Mulliken charges:
               1
     1  C    0.016806
     2  C   -0.231509
     3  C    0.266265
     4  C   -0.012249
     5  C    0.006861
     6  C    0.003888
     7  H    0.021495
     8  H    0.026301
     9  H    0.023985
    10  H    0.024009
    11  N   -0.289285
    12  S    0.172401
    13  C   -0.090994
    14  C   -0.019642
    15  C    0.109212
    16  C   -0.019225
    17  H    0.009971
    18  C   -0.014093
    19  C    0.023020
    20  H    0.005701
    21  H    0.008820
    22  H    0.016034
    23  C    0.075969
    24  O   -0.334526
    25  H    0.200784
 Sum of Mulliken charges =   0.00000

 Dipole moment (field-independent basis, Debye):
    X=              0.7276    Y=             -4.0128    Z=             -0.0002  Tot=              4.0782
 Quadrupole moment (field-independent basis, Debye-Ang):
   XX=            -82.6383   YY=            -92.0871   ZZ=           -103.9596
   XY=             -7.1266   XZ=              0.0016   YZ=              0.0006

  Exact polarizability:     278.643     -73.707     263.926       0.005       0.004      62.864
 Approx polarizability:     264.119     -26.472     247.033       0.007       0.004      82.126

 ******    1 imaginary frequencies (negative Signs) ******

                      1                      2                      3
                      A                      A                      A
 Frequencies --   -922.8655                43.2169                65.6091
 Red. masses --      1.1337                 4.9575                 6.2832
 Frc consts  --      0.5689                 0.0055                 0.0159
 IR Inten    --   1689.1457                 0.0230                 1.4861

                      4                      5                      6
                      A                      A                      A
 Frequencies --    142.8765               152.4285               199.5505
 Red. masses --      5.6317                 5.1403                 6.2065
 Frc consts  --      0.0677                 0.0704                 0.1456
 IR Inten    --      1.7044                 0.6443                 0.2196

                      7                      8                      9
                      A                      A                      A
 Frequencies --    243.0514               281.1476               324.3891
 Red. masses --      5.8663                 7.1580                 5.2446
 Frc consts  --      0.2042                 0.3334                 0.3252
 IR Inten    --      0.2814                 5.2747                 0.3514

                     10                     11                     12
                      A                      A                      A
 Frequencies --    386.6611               426.0191               433.7647
 Red. masses --      6.0728                11.5099                 3.1156
 Frc consts  --      0.5349                 1.2308                 0.3454
 IR Inten    --      7.1095                 3.9183                 1.6207

                     13                     14                     15
                      A                      A                      A
 Frequencies --    458.5873               517.1657               538.5393
 Red. masses --      3.5949                 8.7609                 3.3061
 Frc consts  --      0.4454                 1.3806                 0.5649
 IR Inten    --      8.8994                 4.2459                 3.7917

                     16                     17                     18
                      A                      A                      A
 Frequencies --    559.7684               572.2588               580.3003
 Red. masses --      8.3998                 3.6675                 7.7903
 Frc consts  --      1.5507                 0.7076                 1.5457
 IR Inten    --      9.0878                 0.1134                 3.6210

                     19                     20                     21
                      A                      A                      A
 Frequencies --    636.0170               648.9487               694.5808
 Red. masses --      7.3395                 6.5068                 6.4640
 Frc consts  --      1.7493                 1.6145                 1.8374
 IR Inten    --     65.6505                 0.0021                 0.5202

                     22                     23                     24
                      A                      A                      A
 Frequencies --    730.6734               754.5931               767.9873
 Red. masses --      6.5584                 2.2537                 1.6986
 Frc consts  --      2.0630                 0.7561                 0.5903
 IR Inten    --      2.8880                19.8735                31.3457

                     25                     26                     27
                      A                      A                      A
 Frequencies --    776.3072               777.6229               781.5973
 Red. masses --      2.1483                 8.6843                 1.7480
 Frc consts  --      0.7628                 3.0940                 0.6292
 IR Inten    --     30.7509                26.0824                45.2914

                     28                     29                     30
                      A                      A                      A
 Frequencies --    856.3483               879.7056               885.1779
 Red. masses --      6.2481                 1.6426                 1.3947
 Frc consts  --      2.6996                 0.7490                 0.6439
 IR Inten    --     16.7060                 6.9337                 0.4530

                     31                     32                     33
                      A                      A                      A
 Frequencies --    931.8162               966.6652               974.1704
 Red. masses --      7.2076                 1.3495                 1.3627
 Frc consts  --      3.6872                 0.7430                 0.7619
 IR Inten    --      9.1683                 0.8237                 1.3176

                     34                     35                     36
                      A                      A                      A
 Frequencies --   1011.2886              1015.1110              1016.1474
 Red. masses --      1.3034                 7.4483                 1.3056
 Frc consts  --      0.7854                 4.5221                 0.7943
 IR Inten    --      0.2945                13.1491                 0.0017

                     37                     38                     39
                      A                      A                      A
 Frequencies --   1054.3113              1062.6109              1104.9116
 Red. masses --      2.0168                 1.9218                 3.5830
 Frc consts  --      1.3209                 1.2785                 2.5772
 IR Inten    --      7.8026                 8.2440                 3.6840

                     40                     41                     42
                      A                      A                      A
 Frequencies --   1155.8580              1158.8778              1176.3312
 Red. masses --      1.4469                 1.3477                 1.1084
 Frc consts  --      1.1389                 1.0664                 0.9036
 IR Inten    --     11.2520                 0.3700                92.9229

                     43                     44                     45
                      A                      A                      A
 Frequencies --   1178.2407              1185.9673              1261.1968
 Red. masses --      1.0561                 1.1987                 1.9559
 Frc consts  --      0.8639                 0.9934                 1.8330
 IR Inten    --     69.0396                 0.4381                63.2103

                     46                     47                     48
                      A                      A                      A
 Frequencies --   1290.6806              1324.0594              1352.3933
 Red. masses --      1.5227                 3.4214                 2.9730
 Frc consts  --      1.4945                 3.5340                 3.2037
 IR Inten    --      3.5595               347.4431                11.1854

                     49                     50                     51
                      A                      A                      A
 Frequencies --   1382.3763              1390.1511              1396.8176
 Red. masses --      6.0450                 6.9179                 2.5753
 Frc consts  --      6.8061                 7.8768                 2.9604
 IR Inten    --     28.5131                10.6884                 9.0021

                     52                     53                     54
                      A                      A                      A
 Frequencies --   1491.3470              1501.3914              1517.0632
 Red. masses --      2.7773                 2.8417                 3.3656
 Frc consts  --      3.6394                 3.7742                 4.5637
 IR Inten    --     34.2979                16.8208                31.1578

                     55                     56                     57
                      A                      A                      A
 Frequencies --   1567.3057              1580.2961              1615.8864
 Red. masses --      6.3786                 4.7497                 5.9004
 Frc consts  --      9.2318                 6.9887                 9.0773
 IR Inten    --   1277.5991               198.9024               108.1940

                     58                     59                     60
                      A                      A                      A
 Frequencies --   1660.8458              1681.7602              1708.3324
 Red. masses --      6.9874                 6.7888                 6.8182
 Frc consts  --     11.3559                11.3129                11.7237
 IR Inten    --      3.6106                 4.3132               194.8383

                     61                     62                     63
                      A                      A                      A
 Frequencies --   1909.6741              3191.8429              3200.6828
 Red. masses --      1.0978                 1.0892                 1.0887
 Frc consts  --      2.3588                 6.5380                 6.5712
 IR Inten    --    126.2111                 4.0436                 9.8533

                     64                     65                     66
                      A                      A                      A
 Frequencies --   3215.1999              3225.3389              3225.7960
 Red. masses --      1.0863                 1.0938                 1.0908
 Frc consts  --      6.6166                 6.7042                 6.6878
 IR Inten    --      1.8984                17.3110                 3.2046

                     67                     68                     69
                      A                      A                      A
 Frequencies --   3236.1298              3236.4685              3241.9681
 Red. masses --      1.0960                 1.0977                 1.0997
 Frc consts  --      6.7627                 6.7744                 6.8099
 IR Inten    --      7.4163                17.6437                11.8327

 - Thermochemistry -
 -------------------
 Temperature   298.150 Kelvin.  Pressure   1.00000 Atm.
 Atom     1 has atomic number  6 and mass  12.00000

 Molecular mass:   227.04049 amu.
 Principal axes and moments of inertia in atomic units:
                           1         2         3
     Eigenvalues --  1283.180846242.173137525.35385
           X            0.70768   0.70653  -0.00002
           Y           -0.70653   0.70768  -0.00007
           Z           -0.00003   0.00006   1.00000
 This molecule is an asymmetric top.
 Rotational symmetry number  1.
 Warning -- assumption of classical behavior for rotation
           may cause significant error
 Rotational temperatures (Kelvin)      0.06750     0.01388     0.01151
 Rotational constants (GHZ):           1.40646     0.28912     0.23982
    1 imaginary frequencies ignored.
 Zero-point vibrational energy     487551.3 (Joules/Mol)
                                  116.52755 (Kcal/Mol)
 Warning -- explicit consideration of  17 degrees of freedom as
           vibrations may cause significant error
 Vibrational temperatures:     62.18    94.40   205.57   219.31   287.11
          (Kelvin)            349.70   404.51   466.72   556.32   612.95
                              624.09   659.80   744.09   774.84   805.38
                              823.35   834.92   915.09   933.69   999.35
                             1051.28  1085.69  1104.96  1116.93  1118.83
                             1124.54  1232.09  1265.70  1273.57  1340.68
                             1390.82  1401.61  1455.02  1460.52  1462.01
                             1516.92  1528.86  1589.72  1663.02  1667.37
                             1692.48  1695.23  1706.34  1814.58  1857.00
                             1905.03  1945.79  1988.93  2000.12  2009.71
                             2145.72  2160.17  2182.72  2255.00  2273.69
                             2324.90  2389.59  2419.68  2457.91  2747.60
                             4592.35  4605.07  4625.96  4640.54  4641.20
                             4656.07  4656.56  4664.47

 Zero-point correction=                           0.185698 (Hartree/Particle)
 Thermal correction to Energy=                    0.197070
 Thermal correction to Enthalpy=                  0.198014
 Thermal correction to Gibbs Free Energy=         0.147363
 Sum of electronic and zero-point Energies=          -1028.631119
 Sum of electronic and thermal Energies=             -1028.619748
 Sum of electronic and thermal Enthalpies=           -1028.618803
 Sum of electronic and thermal Free Energies=        -1028.669455

                     E (Thermal)             CV                S
                      KCal/Mol        Cal/Mol-Kelvin    Cal/Mol-Kelvin
 Total                  123.663             46.419            106.605
 Electronic               0.000              0.000              0.000
 Translational            0.889              2.981             42.162
 Rotational               0.889              2.981             32.466
 Vibrational            121.886             40.457             31.976
 Vibration     1          0.595              1.980              5.106
 Vibration     2          0.597              1.971              4.281
 Vibration     3          0.616              1.910              2.765
 Vibration     4          0.619              1.900              2.642
 Vibration     5          0.638              1.841              2.137
 Vibration     6          0.659              1.774              1.780
 Vibration     7          0.681              1.709              1.527
 Vibration     8          0.709              1.627              1.288
 Vibration     9          0.755              1.499              1.013
 Vibration    10          0.788              1.414              0.872
 Vibration    11          0.795              1.397              0.846
 Vibration    12          0.817              1.342              0.770
 Vibration    13          0.872              1.212              0.617
 Vibration    14          0.894              1.165              0.568
 Vibration    15          0.915              1.118              0.524
 Vibration    16          0.928              1.091              0.500
 Vibration    17          0.937              1.074              0.485

 Optimization completed.
    -- Stationary point found.
 Normal termination of Gaussian 16 at Tue Oct 27 23:10:53 2020.
