 Gaussian 16, Revision C.01,
 Gaussian 16:  ES64L-G16RevC.01  3-Jul-2019

 ----------------------------------------------------------------------
 #p opt=addgic freq wb97xd/cc-pvdz nosymm int=ultrafine scrf=(solvent=C
 arbonTetraChloride)
 ----------------------------------------------------------------------

 ------------------------------------------------
 NM 2D-scan of HBT TD-WB97XD pVDZ in CTC Relaxed.
 ------------------------------------------------
 Symbolic Z-matrix:
 Charge =  0 Multiplicity = 1

 SCF Done:  E(RwB97XD) =  -1028.80825908     A.U. after   15 cycles
 SCF Done:  E(RwB97XD) =  -1028.81356528     A.U. after   13 cycles
 SCF Done:  E(RwB97XD) =  -1028.81331334     A.U. after   13 cycles
 SCF Done:  E(RwB97XD) =  -1028.81438771     A.U. after   12 cycles
 SCF Done:  E(RwB97XD) =  -1028.81441917     A.U. after   11 cycles
 SCF Done:  E(RwB97XD) =  -1028.81443788     A.U. after   11 cycles
 SCF Done:  E(RwB97XD) =  -1028.81438641     A.U. after   12 cycles
 SCF Done:  E(RwB97XD) =  -1028.81444842     A.U. after   11 cycles
 SCF Done:  E(RwB97XD) =  -1028.81444960     A.U. after   10 cycles
 Optimization completed.
    -- Stationary point found.
 Normal termination of Gaussian 16 at Tue Oct 27 22:15:48 2020.

 --------------------------------------------------------------------
 #P Geom=AllCheck Guess=TCheck SCRF=Check GenChk RwB97XD/CC-pVDZ Freq
 --------------------------------------------------------------------

 Structure from the checkpoint file:  "config_8_6.chk"
 ------------------------------------------------
 NM 2D-scan of HBT TD-WB97XD pVDZ in CTC Relaxed.
 ------------------------------------------------
 Charge =  0 Multiplicity = 1

                          Input orientation:
 ---------------------------------------------------------------------
 Center     Atomic      Atomic             Coordinates (Angstroms)
 Number     Number       Type             X           Y           Z
 ---------------------------------------------------------------------
      1          6           0        1.685403   -3.255473   -0.000012
      2          6           0        1.003076   -2.039738   -0.000016
      3          6           0        1.697778   -0.824033   -0.000033
      4          6           0        3.094143   -0.793757   -0.000064
      5          6           0        3.772307   -2.006081   -0.000049
      6          6           0        3.076508   -3.223720   -0.000020
      7          1           0        1.146852   -4.203305   -0.000003
      8          1           0        3.623181    0.159378   -0.000085
      9          1           0        4.863035   -2.009975   -0.000062
     10          1           0        3.631762   -4.162462   -0.000014
     11          7           0        0.846997    0.260694   -0.000030
     12         16           0       -0.736371   -1.744255   -0.000048
     13          6           0       -1.393499    1.056678    0.000099
     14          6           0       -2.790227    0.859500    0.000035
     15          6           0       -0.833346    2.388777    0.000320
     16          6           0       -3.658333    1.930885    0.000026
     17          1           0       -3.184327   -0.160697   -0.000068
     18          6           0       -1.769684    3.467502    0.000102
     19          6           0       -3.128553    3.240131    0.000016
     20          1           0       -4.736485    1.770865   -0.000059
     21          1           0       -1.363094    4.479905    0.000047
     22          1           0       -3.811978    4.092600   -0.000065
     23          6           0       -0.444735   -0.020921    0.000024
     24          8           0        0.436798    2.598028    0.000076
     25          1           0        0.961310    1.418334   -0.000032
 ---------------------------------------------------------------------

 SCF Done:  E(RwB97XD) =  -1028.81444960     A.U. after    1 cycles

 Alpha  occ. eigenvalues --  -89.09836 -19.23207 -14.49510 -10.40719 -10.36439
 Alpha  occ. eigenvalues --  -10.36405 -10.35710 -10.33050 -10.32500 -10.32221
 Alpha  occ. eigenvalues --  -10.32126 -10.31441 -10.31161 -10.30890 -10.29408
 Alpha  occ. eigenvalues --  -10.29002  -8.11848  -6.06718  -6.06346  -6.05878
 Alpha  occ. eigenvalues --   -1.13459  -1.09981  -0.98080  -0.95384  -0.92739
 Alpha  occ. eigenvalues --   -0.89063  -0.86102  -0.83959  -0.82454  -0.75780
 Alpha  occ. eigenvalues --   -0.71949  -0.71147  -0.68832  -0.68334  -0.63955
 Alpha  occ. eigenvalues --   -0.60847  -0.59546  -0.57211  -0.55793  -0.55373
 Alpha  occ. eigenvalues --   -0.54691  -0.53582  -0.52557  -0.50904  -0.49988
 Alpha  occ. eigenvalues --   -0.49376  -0.47642  -0.46519  -0.45357  -0.45002
 Alpha  occ. eigenvalues --   -0.44298  -0.43159  -0.41839  -0.40571  -0.36523
 Alpha  occ. eigenvalues --   -0.33714  -0.33127  -0.31552  -0.27373
 Alpha virt. eigenvalues --   -0.01002   0.04102   0.06432   0.06968   0.08459
 Alpha virt. eigenvalues --    0.10977   0.13699   0.14822   0.16184   0.17643
 Alpha virt. eigenvalues --    0.19153   0.20542   0.21521   0.21923   0.22934

 Mulliken charges:
               1
     1  C    0.013011
     2  C   -0.238261
     3  C    0.275084
     4  C   -0.009730
     5  C    0.009716
     6  C    0.002398
     7  H    0.023584
     8  H    0.028807
     9  H    0.025114
    10  H    0.024953
    11  N   -0.232353
    12  S    0.178168
    13  C   -0.117110
    14  C   -0.010922
    15  C    0.114973
    16  C   -0.024805
    17  H    0.005372
    18  C   -0.011645
    19  C    0.024440
    20  H    0.004500
    21  H    0.005878
    22  H    0.014689
    23  C    0.073178
    24  O   -0.374218
    25  H    0.195181
 Sum of Mulliken charges =  -0.00000

 Dipole moment (field-independent basis, Debye):
    X=              1.0882    Y=             -4.4028    Z=             -0.0002  Tot=              4.5352
 Quadrupole moment (field-independent basis, Debye-Ang):
   XX=            -82.6635   YY=            -92.7789   ZZ=           -104.0162
   XY=             -7.0759   XZ=              0.0003   YZ=             -0.0002

  Exact polarizability:     281.796     -77.621     272.028      -0.000       0.003      62.938
 Approx polarizability:     265.549     -28.506     251.525       0.001       0.002      82.132

 ******    1 imaginary frequencies (negative Signs) ******

                      1                      2                      3
                      A                      A                      A
 Frequencies --   -892.5929                56.9531                69.9164
 Red. masses --      1.2130                 5.1705                 5.7125
 Frc consts  --      0.5694                 0.0099                 0.0165
 IR Inten    --    945.5100                 0.3628                 1.4795

                      4                      5                      6
                      A                      A                      A
 Frequencies --    138.5075               151.5717               201.1067
 Red. masses --      5.5869                 5.1763                 6.1389
 Frc consts  --      0.0631                 0.0701                 0.1463
 IR Inten    --      0.5484                 0.8260                 0.1073

                      7                      8                      9
                      A                      A                      A
 Frequencies --    242.5468               277.0583               318.3590
 Red. masses --      6.1439                 7.1364                 5.3112
 Frc consts  --      0.2130                 0.3228                 0.3172
 IR Inten    --      0.4844                 2.4330                 0.6415

                     10                     11                     12
                      A                      A                      A
 Frequencies --    385.8283               419.0299               433.5117
 Red. masses --      5.9830                11.2229                 3.1615
 Frc consts  --      0.5248                 1.1610                 0.3501
 IR Inten    --      0.2848                 1.8273                 1.3047

                     13                     14                     15
                      A                      A                      A
 Frequencies --    456.4661               514.6648               538.4378
 Red. masses --      3.6337                 8.8241                 3.1667
 Frc consts  --      0.4461                 1.3771                 0.5409
 IR Inten    --      9.5774                 5.3744                 4.3211

                     16                     17                     18
                      A                      A                      A
 Frequencies --    553.4679               568.3087               580.1906
 Red. masses --      8.8318                 3.6549                 7.4149
 Frc consts  --      1.5940                 0.6955                 1.4706
 IR Inten    --      5.9897                 0.1149                11.7513

                     19                     20                     21
                      A                      A                      A
 Frequencies --    613.5542               648.0536               695.4500
 Red. masses --      7.1951                 6.5150                 6.3019
 Frc consts  --      1.5958                 1.6121                 1.7958
 IR Inten    --     15.1286                 0.0005                12.6654

                     22                     23                     24
                      A                      A                      A
 Frequencies --    719.2336               753.1667               766.2725
 Red. masses --      6.5597                 2.4347                 1.5528
 Frc consts  --      1.9993                 0.8137                 0.5372
 IR Inten    --     14.0027                14.6687                41.3141

                     25                     26                     27
                      A                      A                      A
 Frequencies --    777.8184               778.6332               780.7989
 Red. masses --      2.3476                 7.3372                 1.6479
 Frc consts  --      0.8368                 2.6209                 0.5919
 IR Inten    --     24.9563                31.5056                43.9547

                     28                     29                     30
                      A                      A                      A
 Frequencies --    851.9881               879.5945               885.2764
 Red. masses --      6.2226                 1.7174                 1.3894
 Frc consts  --      2.6613                 0.7829                 0.6416
 IR Inten    --     16.6516                 8.1615                 0.3717

                     31                     32                     33
                      A                      A                      A
 Frequencies --    936.4504               968.8212               974.3929
 Red. masses --      6.8516                 1.3362                 1.3594
 Frc consts  --      3.5401                 0.7389                 0.7604
 IR Inten    --     12.0266                 0.6122                 1.2505

                     34                     35                     36
                      A                      A                      A
 Frequencies --   1013.2358              1016.4004              1017.7207
 Red. masses --      1.3034                 1.3047                 7.1276
 Frc consts  --      0.7884                 0.7941                 4.3496
 IR Inten    --      0.2463                 0.0017                 7.5410

                     37                     38                     39
                      A                      A                      A
 Frequencies --   1053.7218              1055.3717              1103.5498
 Red. masses --      2.0174                 2.0083                 3.7083
 Frc consts  --      1.3197                 1.3179                 2.6608
 IR Inten    --      3.4803                12.4395                 4.3800

                     40                     41                     42
                      A                      A                      A
 Frequencies --   1152.4120              1155.1029              1157.8169
 Red. masses --      1.0620                 1.4233                 1.2977
 Frc consts  --      0.8310                 1.1189                 1.0249
 IR Inten    --     69.4464                11.6487                 1.2538

                     43                     44                     45
                      A                      A                      A
 Frequencies --   1176.0570              1185.7452              1257.3364
 Red. masses --      1.1046                 1.1764                 1.8720
 Frc consts  --      0.9001                 0.9745                 1.7436
 IR Inten    --     87.5763                 0.1870                43.8741

                     46                     47                     48
                      A                      A                      A
 Frequencies --   1289.9708              1326.8515              1365.5747
 Red. masses --      1.5345                 3.0906                 3.7712
 Frc consts  --      1.5045                 3.2058                 4.1434
 IR Inten    --     22.9663               329.8571                 8.4719

                     49                     50                     51
                      A                      A                      A
 Frequencies --   1380.9059              1386.3227              1407.4736
 Red. masses --      4.6725                 7.4599                 2.5187
 Frc consts  --      5.2496                 8.4472                 2.9398
 IR Inten    --     22.5543                 9.0642                13.8026

                     52                     53                     54
                      A                      A                      A
 Frequencies --   1494.2858              1504.6193              1522.5901
 Red. masses --      2.7673                 2.8294                 3.4854
 Frc consts  --      3.6406                 3.7740                 4.7606
 IR Inten    --     20.1001                27.8288                45.0449

                     55                     56                     57
                      A                      A                      A
 Frequencies --   1565.3659              1588.4108              1604.2020
 Red. masses --      6.8374                 4.7804                 6.3398
 Frc consts  --      9.8712                 7.1062                 9.6127
 IR Inten    --   1856.7429               185.2013                28.0617

                     58                     59                     60
                      A                      A                      A
 Frequencies --   1661.0424              1682.2571              1710.3103
 Red. masses --      7.0157                 6.7445                 6.5482
 Frc consts  --     11.4046                11.2456                11.2856
 IR Inten    --      5.0649                 7.2412               174.2717

                     61                     62                     63
                      A                      A                      A
 Frequencies --   2021.8072              3185.0695              3196.6716
 Red. masses --      1.1188                 1.0895                 1.0884
 Frc consts  --      2.6946                 6.5120                 6.5530
 IR Inten    --    303.8819                 4.1054                11.6174

                     64                     65                     66
                      A                      A                      A
 Frequencies --   3215.6749              3223.4472              3226.7003
 Red. masses --      1.0866                 1.0941                 1.0910
 Frc consts  --      6.6200                 6.6979                 6.6925
 IR Inten    --      1.9907                17.4716                 3.3565

                     67                     68                     69
                      A                      A                      A
 Frequencies --   3233.7744              3237.3982              3242.9849
 Red. masses --      1.0974                 1.0961                 1.0996
 Frc consts  --      6.7616                 6.7685                 6.8133
 IR Inten    --     19.0330                 7.6401                 9.7268

 - Thermochemistry -
 -------------------
 Temperature   298.150 Kelvin.  Pressure   1.00000 Atm.
 Atom     1 has atomic number  6 and mass  12.00000

 Molecular mass:   227.04049 amu.
 Principal axes and moments of inertia in atomic units:
                           1         2         3
     Eigenvalues --  1304.122936248.233097552.35602
           X           -0.70609   0.70813  -0.00000
           Y            0.70813   0.70609  -0.00003
           Z            0.00002   0.00002   1.00000
 This molecule is an asymmetric top.
 Rotational symmetry number  1.
 Warning -- assumption of classical behavior for rotation
           may cause significant error
 Rotational temperatures (Kelvin)      0.06642     0.01386     0.01147
 Rotational constants (GHZ):           1.38387     0.28884     0.23896
    1 imaginary frequencies ignored.
 Zero-point vibrational energy     487798.9 (Joules/Mol)
                                  116.58674 (Kcal/Mol)
 Warning -- explicit consideration of  18 degrees of freedom as
           vibrations may cause significant error
 Vibrational temperatures:     81.94   100.59   199.28   218.08   289.35
          (Kelvin)            348.97   398.63   458.05   555.12   602.89
                              623.73   656.75   740.49   774.69   796.32
                              817.67   834.76   882.77   932.40  1000.60
                             1034.82  1083.64  1102.50  1119.11  1120.28
                             1123.40  1225.82  1265.54  1273.72  1347.34
                             1393.92  1401.93  1457.82  1462.37  1464.27
                             1516.07  1518.44  1587.76  1658.06  1661.94
                             1665.84  1692.08  1706.02  1809.03  1855.98
                             1909.04  1964.76  1986.82  1994.61  2025.04
                             2149.94  2164.81  2190.67  2252.21  2285.37
                             2308.09  2389.87  2420.39  2460.76  2908.93
                             4582.60  4599.30  4626.64  4637.82  4642.50
                             4652.68  4657.89  4665.93

 Zero-point correction=                           0.185793 (Hartree/Particle)
 Thermal correction to Energy=                    0.197182
 Thermal correction to Enthalpy=                  0.198126
 Thermal correction to Gibbs Free Energy=         0.147675
 Sum of electronic and zero-point Energies=          -1028.628657
 Sum of electronic and thermal Energies=             -1028.617268
 Sum of electronic and thermal Enthalpies=           -1028.616324
 Sum of electronic and thermal Free Energies=        -1028.666775

                     E (Thermal)             CV                S
                      KCal/Mol        Cal/Mol-Kelvin    Cal/Mol-Kelvin
 Total                  123.733             46.563            106.183
 Electronic               0.000              0.000              0.000
 Translational            0.889              2.981             42.162
 Rotational               0.889              2.981             32.487
 Vibrational            121.956             40.601             31.534
 Vibration     1          0.596              1.975              4.560
 Vibration     2          0.598              1.968              4.156
 Vibration     3          0.614              1.915              2.824
 Vibration     4          0.619              1.901              2.652
 Vibration     5          0.638              1.838              2.123
 Vibration     6          0.659              1.775              1.784
 Vibration     7          0.678              1.716              1.552
 Vibration     8          0.705              1.638              1.319
 Vibration     9          0.755              1.500              1.016
 Vibration    10          0.782              1.429              0.895
 Vibration    11          0.794              1.397              0.847
 Vibration    12          0.815              1.347              0.776
 Vibration    13          0.870              1.218              0.622
 Vibration    14          0.893              1.165              0.569
 Vibration    15          0.909              1.132              0.537
 Vibration    16          0.924              1.100              0.508
 Vibration    17          0.937              1.074              0.485
 Vibration    18          0.973              1.003              0.427

 Optimization completed.
    -- Stationary point found.
 Normal termination of Gaussian 16 at Tue Oct 27 22:21:53 2020.
