 Gaussian 16, Revision C.01,
 Gaussian 16:  ES64L-G16RevC.01  3-Jul-2019

 ----------------------------------------------------------------------
 #p opt=addgic freq wb97xd/cc-pvdz nosymm int=ultrafine scrf=(solvent=C
 arbonTetraChloride)
 ----------------------------------------------------------------------

 ------------------------------------------------
 NM 2D-scan of HBT TD-WB97XD pVDZ in CTC Relaxed.
 ------------------------------------------------
 Symbolic Z-matrix:
 Charge =  0 Multiplicity = 1

 SCF Done:  E(RwB97XD) =  -1028.76585372     A.U. after   15 cycles
 SCF Done:  E(RwB97XD) =  -1028.82040549     A.U. after   13 cycles
 SCF Done:  E(RwB97XD) =  -1028.82509216     A.U. after   13 cycles
 SCF Done:  E(RwB97XD) =  -1028.82596736     A.U. after   12 cycles
 SCF Done:  E(RwB97XD) =  -1028.82600649     A.U. after   10 cycles
 SCF Done:  E(RwB97XD) =  -1028.82601602     A.U. after    9 cycles
 SCF Done:  E(RwB97XD) =  -1028.82601662     A.U. after    9 cycles
 SCF Done:  E(RwB97XD) =  -1028.82601665     A.U. after    7 cycles
 SCF Done:  E(RwB97XD) =  -1028.82601669     A.U. after    6 cycles
 Optimization completed.
    -- Stationary point found.
 Normal termination of Gaussian 16 at Tue Oct 27 21:58:09 2020.

 --------------------------------------------------------------------
 #P Geom=AllCheck Guess=TCheck SCRF=Check GenChk RwB97XD/CC-pVDZ Freq
 --------------------------------------------------------------------

 Structure from the checkpoint file:  "config_3_5.chk"
 ------------------------------------------------
 NM 2D-scan of HBT TD-WB97XD pVDZ in CTC Relaxed.
 ------------------------------------------------
 Charge =  0 Multiplicity = 1

                          Input orientation:
 ---------------------------------------------------------------------
 Center     Atomic      Atomic             Coordinates (Angstroms)
 Number     Number       Type             X           Y           Z
 ---------------------------------------------------------------------
      1          6           0        1.714995   -3.307029   -0.000010
      2          6           0        0.979768   -2.113687   -0.000034
      3          6           0        1.656376   -0.881444   -0.000037
      4          6           0        3.052635   -0.807788   -0.000021
      5          6           0        3.775444   -1.985885   -0.000001
      6          6           0        3.106554   -3.222476    0.000006
      7          1           0        1.221639   -4.279464   -0.000011
      8          1           0        3.532927    0.171149   -0.000024
      9          1           0        4.865939   -1.959410    0.000011
     10          1           0        3.689741   -4.144779    0.000019
     11          7           0        0.857040    0.230206   -0.000047
     12         16           0       -0.757739   -1.803727   -0.000084
     13          6           0       -1.380863    1.069072   -0.000017
     14          6           0       -2.779960    0.890749   -0.000015
     15          6           0       -0.885877    2.410119    0.000021
     16          6           0       -3.653067    1.967832    0.000039
     17          1           0       -3.183554   -0.124992   -0.000051
     18          6           0       -1.782018    3.487662    0.000081
     19          6           0       -3.145381    3.275160    0.000092
     20          1           0       -4.729585    1.795955    0.000042
     21          1           0       -1.353983    4.490541    0.000113
     22          1           0       -3.825790    4.128676    0.000139
     23          6           0       -0.414223   -0.041445   -0.000051
     24          8           0        0.405439    2.760466   -0.000007
     25          1           0        0.931695    1.930752   -0.000052
 ---------------------------------------------------------------------

 SCF Done:  E(RwB97XD) =  -1028.82601669     A.U. after    1 cycles

 Alpha  occ. eigenvalues --  -89.08924 -19.28025 -14.46677 -10.39641 -10.37402
 Alpha  occ. eigenvalues --  -10.35040 -10.34647 -10.32739 -10.32507 -10.31888
 Alpha  occ. eigenvalues --  -10.31650 -10.31500 -10.31434 -10.31280 -10.30206
 Alpha  occ. eigenvalues --  -10.29908  -8.10835  -6.05705  -6.05348  -6.04875
 Alpha  occ. eigenvalues --   -1.16467  -1.09015  -0.97198  -0.96020  -0.91241
 Alpha  occ. eigenvalues --   -0.88530  -0.85236  -0.84450  -0.82963  -0.75485
 Alpha  occ. eigenvalues --   -0.71279  -0.70589  -0.69456  -0.68134  -0.62982
 Alpha  occ. eigenvalues --   -0.60376  -0.58657  -0.58340  -0.56314  -0.54456
 Alpha  occ. eigenvalues --   -0.53920  -0.53168  -0.52472  -0.50969  -0.50282
 Alpha  occ. eigenvalues --   -0.49344  -0.47787  -0.45834  -0.45295  -0.44929
 Alpha  occ. eigenvalues --   -0.43745  -0.42866  -0.42658  -0.39726  -0.37127
 Alpha  occ. eigenvalues --   -0.36148  -0.32173  -0.31660  -0.29004
 Alpha virt. eigenvalues --   -0.00452   0.04796   0.06868   0.07210   0.07424
 Alpha virt. eigenvalues --    0.11470   0.13139   0.15110   0.15942   0.17765
 Alpha virt. eigenvalues --    0.18981   0.20573   0.21720   0.22496   0.22768

 Mulliken charges:
               1
     1  C    0.001008
     2  C   -0.217224
     3  C    0.237477
     4  C   -0.012632
     5  C    0.007921
     6  C   -0.001679
     7  H    0.020771
     8  H    0.017595
     9  H    0.019558
    10  H    0.021672
    11  N   -0.333676
    12  S    0.140617
    13  C   -0.074447
    14  C   -0.016727
    15  C    0.070399
    16  C   -0.008741
    17  H    0.009747
    18  C    0.015130
    19  C    0.019777
    20  H    0.010098
    21  H    0.016099
    22  H    0.017964
    23  C    0.078782
    24  O   -0.197318
    25  H    0.157829
 Sum of Mulliken charges =  -0.00000

 Dipole moment (field-independent basis, Debye):
    X=              0.1779    Y=             -2.2752    Z=             -0.0000  Tot=              2.2822
 Quadrupole moment (field-independent basis, Debye-Ang):
   XX=            -82.7021   YY=            -89.8689   ZZ=           -104.2254
   XY=             -7.0124   XZ=             -0.0001   YZ=              0.0003

  Exact polarizability:     275.396     -65.875     256.688      -0.000       0.003      63.102
 Approx polarizability:     263.473     -22.613     243.509       0.000       0.002      82.284

                      1                      2                      3
                      A                      A                      A
 Frequencies --     45.3791                54.7441               116.4299
 Red. masses --      5.7498                 5.6354                 5.6626
 Frc consts  --      0.0070                 0.0100                 0.0452
 IR Inten    --      0.1591                 1.0873                 1.0803

                      4                      5                      6
                      A                      A                      A
 Frequencies --    151.0313               199.5549               245.2209
 Red. masses --      4.8847                 5.7583                 5.8052
 Frc consts  --      0.0656                 0.1351                 0.2057
 IR Inten    --      0.0026                 0.4531                 0.0590

                      7                      8                      9
                      A                      A                      A
 Frequencies --    265.7430               303.4158               325.4566
 Red. masses --      7.8947                 6.4107                 5.0712
 Frc consts  --      0.3285                 0.3477                 0.3165
 IR Inten    --      1.2731                 6.3891                 0.4206

                     10                     11                     12
                      A                      A                      A
 Frequencies --    400.4186               439.2948               468.0229
 Red. masses --      8.9587                 3.1555                 3.7272
 Frc consts  --      0.8463                 0.3588                 0.4810
 IR Inten    --      0.2751                 2.0513                 8.5974

                     13                     14                     15
                      A                      A                      A
 Frequencies --    507.4036               514.1242               538.9090
 Red. masses --      4.7576                 8.5945                 3.4661
 Frc consts  --      0.7217                 1.3385                 0.5931
 IR Inten    --      5.9864                 0.0218                 3.9343

                     16                     17                     18
                      A                      A                      A
 Frequencies --    547.2111               573.5714               594.5796
 Red. masses --      8.6439                 3.7052                 7.6912
 Frc consts  --      1.5250                 0.7182                 1.6020
 IR Inten    --      2.7200                 0.0232                 6.0284

                     19                     20                     21
                      A                      A                      A
 Frequencies --    644.0157               679.2583               697.1983
 Red. masses --      5.3939                 6.4320                 8.2553
 Frc consts  --      1.3181                 1.7485                 2.3643
 IR Inten    --      0.8625                11.4799                40.0482

                     22                     23                     24
                      A                      A                      A
 Frequencies --    723.4610               745.0935               755.2608
 Red. masses --      8.1244                 1.6289                 1.8991
 Frc consts  --      2.5054                 0.5328                 0.6383
 IR Inten    --      2.5875                50.7987                13.5224

                     25                     26                     27
                      A                      A                      A
 Frequencies --    775.3741               783.2774               795.2081
 Red. masses --      1.4973                 1.7655                 1.6578
 Frc consts  --      0.5304                 0.6382                 0.6177
 IR Inten    --     68.2485                17.3245                57.9591

                     28                     29                     30
                      A                      A                      A
 Frequencies --    840.9265               884.9503               886.8388
 Red. masses --      6.0186                 1.5351                 1.4361
 Frc consts  --      2.5076                 0.7083                 0.6655
 IR Inten    --     23.5378                 4.6221                 0.8858

                     31                     32                     33
                      A                      A                      A
 Frequencies --    897.7346               971.9465               975.6347
 Red. masses --      6.4536                 1.3567                 1.3637
 Frc consts  --      3.0644                 0.7551                 0.7648
 IR Inten    --      1.0569                 1.1482                 1.5214

                     34                     35                     36
                      A                      A                      A
 Frequencies --    979.8390              1011.3170              1015.1509
 Red. masses --      7.5772                 1.3003                 1.3052
 Frc consts  --      4.2862                 0.7835                 0.7925
 IR Inten    --     69.2995                 0.3184                 0.0099

                     37                     38                     39
                      A                      A                      A
 Frequencies --   1050.7126              1068.0138              1092.4514
 Red. masses --      2.0284                 2.0030                 4.6037
 Frc consts  --      1.3194                 1.3461                 3.2371
 IR Inten    --      7.9620                13.0995                 5.8874

                     40                     41                     42
                      A                      A                      A
 Frequencies --   1144.9804              1150.1579              1174.4094
 Red. masses --      1.5316                 1.2743                 1.1156
 Frc consts  --      1.1830                 0.9932                 0.9066
 IR Inten    --      8.3833                 5.2189                47.2525

                     43                     44                     45
                      A                      A                      A
 Frequencies --   1183.6854              1240.4051              1280.5171
 Red. masses --      1.1850                 1.7639                 2.2916
 Frc consts  --      0.9782                 1.5990                 2.2139
 IR Inten    --      0.3314               151.5453               106.5970

                     46                     47                     48
                      A                      A                      A
 Frequencies --   1282.6984              1314.9946              1354.7273
 Red. masses --      1.5677                 5.3478                 3.1086
 Frc consts  --      1.5197                 5.4485                 3.3614
 IR Inten    --      0.0681                17.0845                14.9469

                     49                     50                     51
                      A                      A                      A
 Frequencies --   1369.7559              1377.7050              1441.0870
 Red. masses --      7.9722                 3.0631                 1.7034
 Frc consts  --      8.8128                 3.4255                 2.0843
 IR Inten    --     17.0360                 9.9801                69.0161

                     52                     53                     54
                      A                      A                      A
 Frequencies --   1491.2868              1497.9635              1518.4785
 Red. masses --      2.6413                 3.1708                 3.5658
 Frc consts  --      3.4610                 4.1919                 4.8443
 IR Inten    --     24.5838                16.6141               132.7602

                     55                     56                     57
                      A                      A                      A
 Frequencies --   1541.0273              1598.7454              1644.8566
 Red. masses --      2.5392                 8.1663                 6.4125
 Frc consts  --      3.5528                12.2979                10.2220
 IR Inten    --     52.1322               206.8175                14.3530

                     58                     59                     60
                      A                      A                      A
 Frequencies --   1653.6793              1683.3429              1708.3882
 Red. masses --      4.9676                 6.8975                 6.3655
 Frc consts  --      8.0039                11.5156                10.9461
 IR Inten    --    113.1886                 9.1008               102.6382

                     61                     62                     63
                      A                      A                      A
 Frequencies --   3192.5080              3208.2241              3211.5131
 Red. masses --      1.0896                 1.0883                 1.0860
 Frc consts  --      6.5429                 6.5997                 6.5994
 IR Inten    --      3.5401                 6.8407                 1.0554

                     64                     65                     66
                      A                      A                      A
 Frequencies --   3221.9483              3228.7153              3231.6425
 Red. masses --      1.0903                 1.0939                 1.0960
 Frc consts  --      6.6685                 6.7190                 6.7436
 IR Inten    --      4.0400                10.5195                12.2104

                     67                     68                     69
                      A                      A                      A
 Frequencies --   3236.1152              3238.4419              3425.0819
 Red. masses --      1.0992                 1.1000                 1.0669
 Frc consts  --      6.7822                 6.7970                 7.3742
 IR Inten    --     18.1303                14.1627               786.0887

 - Thermochemistry -
 -------------------
 Temperature   298.150 Kelvin.  Pressure   1.00000 Atm.
 Atom     1 has atomic number  6 and mass  12.00000

 Molecular mass:   227.04049 amu.
 Principal axes and moments of inertia in atomic units:
                           1         2         3
     Eigenvalues --  1341.986416351.982007693.96840
           X           -0.69612   0.71792  -0.00000
           Y            0.71792   0.69612  -0.00002
           Z            0.00001   0.00001   1.00000
 This molecule is an asymmetric top.
 Rotational symmetry number  1.
 Warning -- assumption of classical behavior for rotation
           may cause significant error
 Rotational temperatures (Kelvin)      0.06454     0.01364     0.01126
 Rotational constants (GHZ):           1.34483     0.28412     0.23457
 Zero-point vibrational energy     498910.1 (Joules/Mol)
                                  119.24238 (Kcal/Mol)
 Warning -- explicit consideration of  18 degrees of freedom as
           vibrations may cause significant error
 Vibrational temperatures:     65.29    78.76   167.52   217.30   287.11
          (Kelvin)            352.82   382.34   436.55   468.26   576.11
                              632.05   673.38   730.04   739.71   775.37
                              787.31   825.24   855.47   926.59   977.30
                             1003.11  1040.90  1072.02  1086.65  1115.59
                             1126.96  1144.13  1209.91  1273.25  1275.96
                             1291.64  1398.41  1403.72  1409.77  1455.06
                             1460.58  1511.74  1536.63  1571.79  1647.37
                             1654.82  1689.71  1703.06  1784.67  1842.38
                             1845.52  1891.98  1949.15  1970.77  1982.21
                             2073.40  2145.63  2155.24  2184.75  2217.19
                             2300.24  2366.58  2379.28  2421.95  2457.99
                             4593.31  4615.92  4620.65  4635.66  4645.40
                             4649.61  4656.05  4659.40  4927.93

 Zero-point correction=                           0.190025 (Hartree/Particle)
 Thermal correction to Energy=                    0.201801
 Thermal correction to Enthalpy=                  0.202745
 Thermal correction to Gibbs Free Energy=         0.151195
 Sum of electronic and zero-point Energies=          -1028.635992
 Sum of electronic and thermal Energies=             -1028.624216
 Sum of electronic and thermal Enthalpies=           -1028.623272
 Sum of electronic and thermal Free Energies=        -1028.674821

                     E (Thermal)             CV                S
                      KCal/Mol        Cal/Mol-Kelvin    Cal/Mol-Kelvin
 Total                  126.632             47.887            108.495
 Electronic               0.000              0.000              0.000
 Translational            0.889              2.981             42.162
 Rotational               0.889              2.981             32.550
 Vibrational            124.855             41.925             33.783
 Vibration     1          0.595              1.979              5.009
 Vibration     2          0.596              1.976              4.638
 Vibration     3          0.608              1.936              3.159
 Vibration     4          0.618              1.902              2.659
 Vibration     5          0.638              1.841              2.137
 Vibration     6          0.660              1.771              1.765
 Vibration     7          0.672              1.736              1.624
 Vibration     8          0.695              1.667              1.398
 Vibration     9          0.710              1.625              1.283
 Vibration    10          0.766              1.469              0.961
 Vibration    11          0.799              1.384              0.829
 Vibration    12          0.825              1.321              0.743
 Vibration    13          0.863              1.234              0.640
 Vibration    14          0.869              1.219              0.624
 Vibration    15          0.894              1.164              0.568
 Vibration    16          0.902              1.146              0.550
 Vibration    17          0.930              1.088              0.497
 Vibration    18          0.952              1.043              0.459

 Optimization completed.
    -- Stationary point found.
 Normal termination of Gaussian 16 at Tue Oct 27 22:04:53 2020.
