 Gaussian 16, Revision C.01,
 Gaussian 16:  ES64L-G16RevC.01  3-Jul-2019

 ----------------------------------------------------------------------
 #p opt=addgic freq wb97xd/cc-pvdz nosymm int=ultrafine scrf=(solvent=C
 arbonTetraChloride)
 ----------------------------------------------------------------------

 ------------------------------------------------
 NM 2D-scan of HBT TD-WB97XD pVDZ in CTC Relaxed.
 ------------------------------------------------
 Symbolic Z-matrix:
 Charge =  0 Multiplicity = 1

 SCF Done:  E(RwB97XD) =  -1028.81032107     A.U. after   15 cycles
 SCF Done:  E(RwB97XD) =  -1028.81573998     A.U. after   13 cycles
 SCF Done:  E(RwB97XD) =  -1028.81684536     A.U. after   13 cycles
 SCF Done:  E(RwB97XD) =  -1028.81719988     A.U. after   12 cycles
 SCF Done:  E(RwB97XD) =  -1028.81739293     A.U. after   12 cycles
 SCF Done:  E(RwB97XD) =  -1028.81744754     A.U. after   11 cycles
 SCF Done:  E(RwB97XD) =  -1028.81745132     A.U. after    9 cycles
 Optimization completed.
    -- Stationary point found.
 Normal termination of Gaussian 16 at Tue Oct 27 22:42:55 2020.

 --------------------------------------------------------------------
 #P Geom=AllCheck Guess=TCheck SCRF=Check GenChk RwB97XD/CC-pVDZ Freq
 --------------------------------------------------------------------

 Structure from the checkpoint file:  "config_7_9.chk"
 ------------------------------------------------
 NM 2D-scan of HBT TD-WB97XD pVDZ in CTC Relaxed.
 ------------------------------------------------
 Charge =  0 Multiplicity = 1

                          Input orientation:
 ---------------------------------------------------------------------
 Center     Atomic      Atomic             Coordinates (Angstroms)
 Number     Number       Type             X           Y           Z
 ---------------------------------------------------------------------
      1          6           0        1.642367   -3.249624   -0.000041
      2          6           0        1.006775   -2.011029   -0.000025
      3          6           0        1.725805   -0.809492   -0.000007
      4          6           0        3.124809   -0.832913   -0.000005
      5          6           0        3.761239   -2.070402   -0.000019
      6          6           0        3.031111   -3.267584   -0.000038
      7          1           0        1.066064   -4.174972   -0.000055
      8          1           0        3.692620    0.097792    0.000009
      9          1           0        4.851436   -2.108432   -0.000017
     10          1           0        3.556621   -4.223273   -0.000050
     11          7           0        0.888271    0.293373    0.000007
     12         16           0       -0.719793   -1.692238   -0.000023
     13          6           0       -1.376700    1.071488    0.000020
     14          6           0       -2.757829    0.827232    0.000025
     15          6           0       -0.852321    2.403246    0.000027
     16          6           0       -3.662179    1.874178    0.000034
     17          1           0       -3.119049   -0.204726    0.000020
     18          6           0       -1.809147    3.456658    0.000033
     19          6           0       -3.169014    3.190433    0.000036
     20          1           0       -4.734916    1.681283    0.000039
     21          1           0       -1.438150    4.482680    0.000035
     22          1           0       -3.873504    4.025341    0.000041
     23          6           0       -0.398493    0.011180    0.000004
     24          8           0        0.430672    2.611046    0.000026
     25          1           0        0.932859    1.553802    0.000016
 ---------------------------------------------------------------------

 SCF Done:  E(RwB97XD) =  -1028.81745132     A.U. after    1 cycles

 Alpha  occ. eigenvalues --  -89.09400 -19.24491 -14.48496 -10.40159 -10.36659
 Alpha  occ. eigenvalues --  -10.36022 -10.35315 -10.32759 -10.32358 -10.32040
 Alpha  occ. eigenvalues --  -10.31961 -10.31546 -10.31286 -10.31069 -10.29647
 Alpha  occ. eigenvalues --  -10.29425  -8.11478  -6.06334  -6.05966  -6.05520
 Alpha  occ. eigenvalues --   -1.14137  -1.09786  -0.97811  -0.95725  -0.92507
 Alpha  occ. eigenvalues --   -0.88880  -0.85936  -0.83976  -0.82845  -0.75712
 Alpha  occ. eigenvalues --   -0.71666  -0.70897  -0.68967  -0.68317  -0.63599
 Alpha  occ. eigenvalues --   -0.60876  -0.59392  -0.57641  -0.55991  -0.55016
 Alpha  occ. eigenvalues --   -0.54588  -0.53559  -0.52540  -0.51024  -0.49818
 Alpha  occ. eigenvalues --   -0.49666  -0.47214  -0.46399  -0.45247  -0.45154
 Alpha  occ. eigenvalues --   -0.44210  -0.43128  -0.42140  -0.40399  -0.36394
 Alpha  occ. eigenvalues --   -0.34780  -0.32804  -0.31546  -0.28006
 Alpha virt. eigenvalues --   -0.00786   0.04344   0.06595   0.07354   0.08029
 Alpha virt. eigenvalues --    0.11074   0.14357   0.14940   0.16480   0.17779
 Alpha virt. eigenvalues --    0.19115   0.20720   0.21682   0.22182   0.22830

 Mulliken charges:
               1
     1  C    0.015843
     2  C   -0.232620
     3  C    0.267381
     4  C   -0.011837
     5  C    0.007183
     6  C    0.003525
     7  H    0.021495
     8  H    0.026061
     9  H    0.023845
    10  H    0.023947
    11  N   -0.291107
    12  S    0.171362
    13  C   -0.092948
    14  C   -0.018291
    15  C    0.107614
    16  C   -0.019197
    17  H    0.009120
    18  C   -0.012826
    19  C    0.023017
    20  H    0.005886
    21  H    0.008968
    22  H    0.016044
    23  C    0.076343
    24  O   -0.327569
    25  H    0.198758
 Sum of Mulliken charges =  -0.00000

 Dipole moment (field-independent basis, Debye):
    X=              0.7220    Y=             -3.9375    Z=             -0.0000  Tot=              4.0032
 Quadrupole moment (field-independent basis, Debye-Ang):
   XX=            -82.6639   YY=            -91.9415   ZZ=           -103.9712
   XY=             -7.1208   XZ=             -0.0001   YZ=              0.0001

  Exact polarizability:     278.604     -73.319     263.643      -0.001       0.002      62.879
 Approx polarizability:     264.189     -26.354     246.856      -0.000       0.002      82.137

 ******    1 imaginary frequencies (negative Signs) ******

                      1                      2                      3
                      A                      A                      A
 Frequencies --   -842.8189                42.1574                65.9854
 Red. masses --      1.1480                 5.0150                 6.2640
 Frc consts  --      0.4805                 0.0053                 0.0161
 IR Inten    --   1647.3400                 0.0215                 1.5061

                      4                      5                      6
                      A                      A                      A
 Frequencies --    142.3067               152.8213               199.2888
 Red. masses --      5.6311                 5.1331                 6.1577
 Frc consts  --      0.0672                 0.0706                 0.1441
 IR Inten    --      2.2465                 0.5892                 0.2334

                      7                      8                      9
                      A                      A                      A
 Frequencies --    243.0820               279.6561               324.5144
 Red. masses --      5.8618                 7.1262                 5.2455
 Frc consts  --      0.2041                 0.3284                 0.3255
 IR Inten    --      0.2685                 5.5570                 0.3771

                     10                     11                     12
                      A                      A                      A
 Frequencies --    387.7174               425.1597               434.0626
 Red. masses --      6.0296                11.3620                 3.1201
 Frc consts  --      0.5340                 1.2101                 0.3464
 IR Inten    --      9.3611                 5.6521                 1.7169

                     13                     14                     15
                      A                      A                      A
 Frequencies --    458.8638               516.9295               538.8812
 Red. masses --      3.6048                 8.7546                 3.3218
 Frc consts  --      0.4472                 1.3783                 0.5683
 IR Inten    --      8.7776                 3.8982                 3.7882

                     16                     17                     18
                      A                      A                      A
 Frequencies --    559.5787               572.4009               581.5980
 Red. masses --      8.2998                 3.6631                 7.8639
 Frc consts  --      1.5312                 0.7071                 1.5672
 IR Inten    --      9.5501                 0.1151                 3.0118

                     19                     20                     21
                      A                      A                      A
 Frequencies --    644.4451               649.0601               695.2903
 Red. masses --      7.1939                 6.5127                 6.5122
 Frc consts  --      1.7603                 1.6165                 1.8549
 IR Inten    --     90.2372                 0.0037                 0.9088

                     22                     23                     24
                      A                      A                      A
 Frequencies --    729.6505               754.7169               768.1595
 Red. masses --      6.5399                 2.2536                 1.7439
 Frc consts  --      2.0514                 0.7563                 0.6063
 IR Inten    --      1.5972                19.7055                29.0042

                     25                     26                     27
                      A                      A                      A
 Frequencies --    776.4100               776.8750               782.0725
 Red. masses --      2.0797                 8.8581                 1.7456
 Frc consts  --      0.7387                 3.1499                 0.6290
 IR Inten    --     34.2182                25.6480                44.1936

                     28                     29                     30
                      A                      A                      A
 Frequencies --    855.4146               880.1363               885.4895
 Red. masses --      6.1907                 1.6371                 1.3955
 Frc consts  --      2.6689                 0.7472                 0.6447
 IR Inten    --     17.3161                 6.7914                 0.4351

                     31                     32                     33
                      A                      A                      A
 Frequencies --    932.0384               967.3001               974.5606
 Red. masses --      7.1877                 1.3491                 1.3621
 Frc consts  --      3.6788                 0.7437                 0.7622
 IR Inten    --     12.0186                 0.8541                 1.2812

                     34                     35                     36
                      A                      A                      A
 Frequencies --   1011.1675              1014.0563              1016.3560
 Red. masses --      1.3028                 7.4223                 1.3054
 Frc consts  --      0.7848                 4.4969                 0.7945
 IR Inten    --      0.2867                12.7148                 0.0009

                     37                     38                     39
                      A                      A                      A
 Frequencies --   1054.2273              1062.0059              1103.9262
 Red. masses --      2.0120                 1.9215                 3.6399
 Frc consts  --      1.3175                 1.2769                 2.6135
 IR Inten    --      7.5500                 9.1968                 4.0487

                     40                     41                     42
                      A                      A                      A
 Frequencies --   1154.1414              1158.1190              1175.4845
 Red. masses --      1.4524                 1.3397                 1.0993
 Frc consts  --      1.1399                 1.0587                 0.8949
 IR Inten    --     11.5927                 0.5506                94.4406

                     43                     44                     45
                      A                      A                      A
 Frequencies --   1176.2166              1186.0352              1259.7939
 Red. masses --      1.0565                 1.1925                 1.9425
 Frc consts  --      0.8612                 0.9883                 1.8164
 IR Inten    --     68.7243                 0.9271                63.0345

                     46                     47                     48
                      A                      A                      A
 Frequencies --   1289.8810              1322.2124              1355.6348
 Red. masses --      1.5253                 3.3098                 3.1299
 Frc consts  --      1.4952                 3.4092                 3.3890
 IR Inten    --      5.1684               345.2969                 8.5787

                     49                     50                     51
                      A                      A                      A
 Frequencies --   1383.3843              1386.9636              1396.7082
 Red. masses --      5.8043                 7.9663                 2.4427
 Frc consts  --      6.5447                 9.0289                 2.8076
 IR Inten    --     28.4586                 6.6531                11.1147

                     52                     53                     54
                      A                      A                      A
 Frequencies --   1491.8718              1501.4876              1518.6802
 Red. masses --      2.8086                 2.8400                 3.4517
 Frc consts  --      3.6831                 3.7723                 4.6904
 IR Inten    --     29.4333                20.7811                29.7907

                     55                     56                     57
                      A                      A                      A
 Frequencies --   1567.8074              1580.4838              1615.4342
 Red. masses --      6.3586                 4.7340                 5.8282
 Frc consts  --      9.2087                 6.9673                 8.9611
 IR Inten    --   1253.9661               206.2120               122.6165

                     58                     59                     60
                      A                      A                      A
 Frequencies --   1661.3926              1682.4539              1708.6604
 Red. masses --      7.0013                 6.7966                 6.8264
 Frc consts  --     11.3861                11.3351                11.7423
 IR Inten    --      3.6984                 6.4467               193.6205

                     61                     62                     63
                      A                      A                      A
 Frequencies --   1900.5358              3190.9309              3200.4363
 Red. masses --      1.0987                 1.0893                 1.0886
 Frc consts  --      2.3383                 6.5350                 6.5696
 IR Inten    --    108.3134                 4.3241                 9.4172

                     64                     65                     66
                      A                      A                      A
 Frequencies --   3215.1450              3224.8607              3226.0038
 Red. masses --      1.0864                 1.0939                 1.0909
 Frc consts  --      6.6167                 6.7025                 6.6889
 IR Inten    --      2.0368                16.7049                 3.3589

                     67                     68                     69
                      A                      A                      A
 Frequencies --   3236.1785              3236.5589              3242.2367
 Red. masses --      1.0976                 1.0960                 1.0996
 Frc consts  --      6.7729                 6.7646                 6.8106
 IR Inten    --     18.1000                 7.4053                11.5381

 - Thermochemistry -
 -------------------
 Temperature   298.150 Kelvin.  Pressure   1.00000 Atm.
 Atom     1 has atomic number  6 and mass  12.00000

 Molecular mass:   227.04049 amu.
 Principal axes and moments of inertia in atomic units:
                           1         2         3
     Eigenvalues --  1286.590716244.665337531.25604
           X            0.70749   0.70672   0.00000
           Y           -0.70672   0.70749  -0.00001
           Z           -0.00001   0.00001   1.00000
 This molecule is an asymmetric top.
 Rotational symmetry number  1.
 Warning -- assumption of classical behavior for rotation
           may cause significant error
 Rotational temperatures (Kelvin)      0.06732     0.01387     0.01150
 Rotational constants (GHZ):           1.40273     0.28901     0.23963
    1 imaginary frequencies ignored.
 Zero-point vibrational energy     487502.8 (Joules/Mol)
                                  116.51595 (Kcal/Mol)
 Warning -- explicit consideration of  17 degrees of freedom as
           vibrations may cause significant error
 Vibrational temperatures:     60.66    94.94   204.75   219.88   286.73
          (Kelvin)            349.74   402.36   466.90   557.84   611.71
                              624.52   660.20   743.75   775.33   805.11
                              823.56   836.79   927.21   933.85  1000.37
                             1049.80  1085.87  1105.21  1117.08  1117.75
                             1125.23  1230.75  1266.32  1274.02  1341.00
                             1391.73  1402.18  1454.84  1459.00  1462.31
                             1516.80  1527.99  1588.30  1660.55  1666.27
                             1691.26  1692.31  1706.44  1812.56  1855.85
                             1902.37  1950.46  1990.38  1995.53  2009.55
                             2146.47  2160.31  2185.04  2255.73  2273.96
                             2324.25  2390.37  2420.68  2458.38  2734.45
                             4591.04  4604.71  4625.88  4639.86  4641.50
                             4656.14  4656.69  4664.86

 Zero-point correction=                           0.185680 (Hartree/Particle)
 Thermal correction to Energy=                    0.197050
 Thermal correction to Enthalpy=                  0.197995
 Thermal correction to Gibbs Free Energy=         0.147325
 Sum of electronic and zero-point Energies=          -1028.631771
 Sum of electronic and thermal Energies=             -1028.620401
 Sum of electronic and thermal Enthalpies=           -1028.619457
 Sum of electronic and thermal Free Energies=        -1028.670127

                     E (Thermal)             CV                S
                      KCal/Mol        Cal/Mol-Kelvin    Cal/Mol-Kelvin
 Total                  123.651             46.406            106.643
 Electronic               0.000              0.000              0.000
 Translational            0.889              2.981             42.162
 Rotational               0.889              2.981             32.470
 Vibrational            121.873             40.445             32.011
 Vibration     1          0.595              1.980              5.155
 Vibration     2          0.597              1.970              4.270
 Vibration     3          0.616              1.911              2.773
 Vibration     4          0.619              1.900              2.637
 Vibration     5          0.637              1.841              2.140
 Vibration     6          0.659              1.774              1.780
 Vibration     7          0.680              1.711              1.536
 Vibration     8          0.709              1.626              1.287
 Vibration     9          0.756              1.496              1.009
 Vibration    10          0.787              1.416              0.875
 Vibration    11          0.795              1.396              0.845
 Vibration    12          0.817              1.341              0.769
 Vibration    13          0.872              1.212              0.617
 Vibration    14          0.894              1.164              0.568
 Vibration    15          0.915              1.119              0.525
 Vibration    16          0.929              1.091              0.500
 Vibration    17          0.938              1.071              0.482

 Optimization completed.
    -- Stationary point found.
 Normal termination of Gaussian 16 at Tue Oct 27 22:49:11 2020.
