 Gaussian 16, Revision C.01,
 Gaussian 16:  ES64L-G16RevC.01  3-Jul-2019

 ----------------------------------------------------------------------
 #p opt=addgic freq wb97xd/cc-pvdz nosymm int=ultrafine scrf=(solvent=C
 arbonTetraChloride)
 ----------------------------------------------------------------------

 ------------------------------------------------
 NM 2D-scan of HBT TD-WB97XD pVDZ in CTC Relaxed.
 ------------------------------------------------
 Symbolic Z-matrix:
 Charge =  0 Multiplicity = 1

 SCF Done:  E(RwB97XD) =  -1028.80919953     A.U. after   15 cycles
 SCF Done:  E(RwB97XD) =  -1028.82247497     A.U. after   13 cycles
 SCF Done:  E(RwB97XD) =  -1028.82349417     A.U. after   12 cycles
 SCF Done:  E(RwB97XD) =  -1028.82364504     A.U. after   11 cycles
 SCF Done:  E(RwB97XD) =  -1028.82370606     A.U. after   10 cycles
 SCF Done:  E(RwB97XD) =  -1028.82370951     A.U. after    9 cycles
 Optimization completed.
    -- Stationary point found.
 Normal termination of Gaussian 16 at Wed Oct 28 02:12:09 2020.

 --------------------------------------------------------------------
 #P Geom=AllCheck Guess=TCheck SCRF=Check GenChk RwB97XD/CC-pVDZ Freq
 --------------------------------------------------------------------

 Structure from the checkpoint file:  "config_3_20.chk"
 ------------------------------------------------
 NM 2D-scan of HBT TD-WB97XD pVDZ in CTC Relaxed.
 ------------------------------------------------
 Charge =  0 Multiplicity = 1

                          Input orientation:
 ---------------------------------------------------------------------
 Center     Atomic      Atomic             Coordinates (Angstroms)
 Number     Number       Type             X           Y           Z
 ---------------------------------------------------------------------
      1          6           0        1.498188   -3.261217   -0.000101
      2          6           0        1.000998   -1.961861   -0.000069
      3          6           0        1.808551   -0.810960    0.000010
      4          6           0        3.201695   -0.996648    0.000056
      5          6           0        3.709616   -2.296345    0.000027
      6          6           0        2.873113   -3.423721   -0.000051
      7          1           0        0.820050   -4.115046   -0.000160
      8          1           0        3.873322   -0.137228    0.000120
      9          1           0        4.791472   -2.438687    0.000067
     10          1           0        3.304835   -4.425404   -0.000071
     11          7           0        1.063920    0.378072    0.000044
     12         16           0       -0.675857   -1.531415   -0.000101
     13          6           0       -1.284815    1.133054    0.000038
     14          6           0       -2.626028    0.730814    0.000095
     15          6           0       -0.933458    2.496232   -0.000008
     16          6           0       -3.648834    1.662512    0.000098
     17          1           0       -2.875458   -0.331836    0.000145
     18          6           0       -1.983982    3.440206   -0.000011
     19          6           0       -3.312610    3.020940    0.000038
     20          1           0       -4.690332    1.341244    0.000144
     21          1           0       -1.735619    4.502407   -0.000059
     22          1           0       -4.104755    3.772485    0.000030
     23          6           0       -0.225214    0.137471    0.000007
     24          8           0        0.349347    2.840046   -0.000070
     25          1           0        0.898959    1.983202   -0.000092
 ---------------------------------------------------------------------

 SCF Done:  E(RwB97XD) =  -1028.82370951     A.U. after    1 cycles

 Alpha  occ. eigenvalues --  -89.08309 -19.27892 -14.47418 -10.39263 -10.37366
 Alpha  occ. eigenvalues --  -10.35373 -10.34496 -10.32154 -10.31962 -10.31864
 Alpha  occ. eigenvalues --  -10.31808 -10.31599 -10.31559 -10.31551 -10.30423
 Alpha  occ. eigenvalues --  -10.30293  -8.10513  -6.05347  -6.04987  -6.04567
 Alpha  occ. eigenvalues --   -1.16299  -1.08850  -0.97390  -0.96402  -0.92088
 Alpha  occ. eigenvalues --   -0.88623  -0.85629  -0.84644  -0.82873  -0.75496
 Alpha  occ. eigenvalues --   -0.71687  -0.70752  -0.69394  -0.67965  -0.63407
 Alpha  occ. eigenvalues --   -0.60684  -0.58967  -0.58517  -0.56530  -0.54590
 Alpha  occ. eigenvalues --   -0.54235  -0.53427  -0.52988  -0.50792  -0.50399
 Alpha  occ. eigenvalues --   -0.49149  -0.47262  -0.46023  -0.45553  -0.45091
 Alpha  occ. eigenvalues --   -0.44132  -0.43020  -0.42478  -0.39824  -0.37205
 Alpha  occ. eigenvalues --   -0.36247  -0.32105  -0.31718  -0.29210
 Alpha virt. eigenvalues --   -0.00498   0.04829   0.06689   0.07131   0.08283
 Alpha virt. eigenvalues --    0.11330   0.14667   0.15286   0.17482   0.18078
 Alpha virt. eigenvalues --    0.19038   0.21160   0.21520   0.22576   0.22658

 Mulliken charges:
               1
     1  C    0.019467
     2  C   -0.207891
     3  C    0.212491
     4  C   -0.021691
     5  C    0.001569
     6  C    0.003957
     7  H    0.017939
     8  H    0.020819
     9  H    0.020536
    10  H    0.021427
    11  N   -0.363956
    12  S    0.150464
    13  C   -0.040576
    14  C   -0.036340
    15  C    0.073937
    16  C   -0.005182
    17  H    0.025303
    18  C   -0.002928
    19  C    0.021593
    20  H    0.009623
    21  H    0.017224
    22  H    0.019395
    23  C    0.089827
    24  O   -0.220890
    25  H    0.173883
 Sum of Mulliken charges =  -0.00000

 Dipole moment (field-independent basis, Debye):
    X=             -0.2914    Y=             -2.8231    Z=             -0.0000  Tot=              2.8381
 Quadrupole moment (field-independent basis, Debye-Ang):
   XX=            -82.6805   YY=            -90.4612   ZZ=           -103.9852
   XY=             -7.3498   XZ=             -0.0001   YZ=              0.0002

  Exact polarizability:     272.651     -67.885     253.277      -0.000       0.002      62.820
 Approx polarizability:     260.940     -23.066     241.445       0.001       0.002      82.135

 ******    1 imaginary frequencies (negative Signs) ******

                      1                      2                      3
                      A                      A                      A
 Frequencies --    -34.7662                64.7173               129.9705
 Red. masses --      5.4796                 5.9175                 5.6516
 Frc consts  --      0.0039                 0.0146                 0.0562
 IR Inten    --      0.0289                 1.1611                 2.1363

                      4                      5                      6
                      A                      A                      A
 Frequencies --    150.7557               197.0078               244.8965
 Red. masses --      5.0064                 6.1349                 5.4830
 Frc consts  --      0.0670                 0.1403                 0.1937
 IR Inten    --      0.1275                 0.8196                 0.0172

                      7                      8                      9
                      A                      A                      A
 Frequencies --    279.6422               319.0625               330.9376
 Red. masses --      7.5284                 6.3203                 5.0733
 Frc consts  --      0.3469                 0.3791                 0.3274
 IR Inten    --      1.0216                 9.7031                 0.0161

                     10                     11                     12
                      A                      A                      A
 Frequencies --    425.9521               436.8475               465.0801
 Red. masses --     10.1388                 3.0848                 3.5783
 Frc consts  --      1.0838                 0.3469                 0.4560
 IR Inten    --      0.1651                 1.5411                 8.2241

                     13                     14                     15
                      A                      A                      A
 Frequencies --    516.9001               524.1898               535.9850
 Red. masses --      7.4148                 6.3517                 3.4559
 Frc consts  --      1.1672                 1.0283                 0.5849
 IR Inten    --      2.3830                11.1270                 3.5117

                     16                     17                     18
                      A                      A                      A
 Frequencies --    559.5235               577.4354               589.5385
 Red. masses --      7.2117                 3.7587                 7.6535
 Frc consts  --      1.3302                 0.7384                 1.5672
 IR Inten    --      2.8816                 0.0316                 3.8346

                     19                     20                     21
                      A                      A                      A
 Frequencies --    647.5279               680.2878               739.4448
 Red. masses --      6.2439                 6.6988                 6.4289
 Frc consts  --      1.5425                 1.8266                 2.0711
 IR Inten    --      0.0024                 3.3616                14.2991

                     22                     23                     24
                      A                      A                      A
 Frequencies --    756.9970               761.8374               766.2970
 Red. masses --      1.9505                 9.9576                 3.5304
 Frc consts  --      0.6586                 3.4051                 1.2214
 IR Inten    --     31.1888                21.4578                 0.0006

                     25                     26                     27
                      A                      A                      A
 Frequencies --    773.1886               786.3324               853.2051
 Red. masses --      1.3124                 1.9721                 5.9521
 Frc consts  --      0.4623                 0.7184                 2.5529
 IR Inten    --     57.5947                41.7447                15.1040

                     28                     29                     30
                      A                      A                      A
 Frequencies --    880.6067               887.1593               888.7219
 Red. masses --      1.5638                 1.4098                 6.7189
 Frc consts  --      0.7145                 0.6537                 3.1267
 IR Inten    --      5.6920                 0.2460                 5.4848

                     31                     32                     33
                      A                      A                      A
 Frequencies --    941.5471               965.6125               975.5526
 Red. masses --      1.0736                 1.3676                 1.3673
 Frc consts  --      0.5608                 0.7513                 0.7667
 IR Inten    --     77.6568                 0.5488                 1.8179

                     34                     35                     36
                      A                      A                      A
 Frequencies --   1010.9380              1012.2909              1015.5469
 Red. masses --      1.3052                 7.7960                 1.3057
 Frc consts  --      0.7859                 4.7069                 0.7934
 IR Inten    --      0.6522                41.3976                 0.0352

                     37                     38                     39
                      A                      A                      A
 Frequencies --   1052.2222              1069.0060              1111.3692
 Red. masses --      2.0052                 1.8730                 3.1259
 Frc consts  --      1.3081                 1.2611                 2.2748
 IR Inten    --      9.0251                 8.5737                 5.1800

                     40                     41                     42
                      A                      A                      A
 Frequencies --   1156.8938              1162.2881              1176.3768
 Red. masses --      1.4226                 1.3867                 1.1504
 Frc consts  --      1.1218                 1.1037                 0.9380
 IR Inten    --      7.2731                 2.5321                38.1557

                     43                     44                     45
                      A                      A                      A
 Frequencies --   1185.7474              1257.5577              1275.7899
 Red. masses --      1.3192                 2.0388                 3.4792
 Frc consts  --      1.0928                 1.8997                 3.3365
 IR Inten    --      1.2188                57.7453               119.0196

                     46                     47                     48
                      A                      A                      A
 Frequencies --   1289.8793              1310.6025              1357.4924
 Red. masses --      1.7716                 2.1337                 3.3116
 Frc consts  --      1.7366                 2.1594                 3.5955
 IR Inten    --     69.4490                40.2640                33.4059

                     49                     50                     51
                      A                      A                      A
 Frequencies --   1372.2804              1380.1799              1477.7888
 Red. masses --      6.3561                 6.7474                 2.5472
 Frc consts  --      7.0523                 7.5729                 3.2775
 IR Inten    --     14.7507                 7.9478                15.6847

                     52                     53                     54
                      A                      A                      A
 Frequencies --   1489.4989              1503.2132              1541.5712
 Red. masses --      2.5472                 2.8442                 3.8485
 Frc consts  --      3.3296                 3.7866                 5.3884
 IR Inten    --     34.5667                23.4853               109.1300

                     55                     56                     57
                      A                      A                      A
 Frequencies --   1576.2786              1605.1845              1648.6882
 Red. masses --      6.2770                 2.2593                 6.8759
 Frc consts  --      9.1890                 3.4298                11.0118
 IR Inten    --    289.1791                 5.2044                 5.6319

                     58                     59                     60
                      A                      A                      A
 Frequencies --   1677.0968              1691.5098              1716.6767
 Red. masses --      6.7306                 4.9199                 2.3183
 Frc consts  --     11.1537                 8.2938                 4.0253
 IR Inten    --     21.7642               165.4280               158.9203

                     61                     62                     63
                      A                      A                      A
 Frequencies --   2842.5604              3207.6320              3208.9423
 Red. masses --      1.0763                 1.0861                 1.0861
 Frc consts  --      5.1239                 6.5840                 6.5891
 IR Inten    --   1223.3348                 0.3417                 1.2467

                     64                     65                     66
                      A                      A                      A
 Frequencies --   3213.3128              3218.6818              3227.8447
 Red. masses --      1.0904                 1.0904                 1.0944
 Frc consts  --      6.6337                 6.6554                 6.7180
 IR Inten    --     10.2912                 2.3665                12.9500

                     67                     68                     69
                      A                      A                      A
 Frequencies --   3227.9560              3235.5997              3239.2238
 Red. masses --      1.0959                 1.1001                 1.0991
 Frc consts  --      6.7278                 6.7855                 6.7948
 IR Inten    --     11.0666                16.9815                12.8445

 - Thermochemistry -
 -------------------
 Temperature   298.150 Kelvin.  Pressure   1.00000 Atm.
 Atom     1 has atomic number  6 and mass  12.00000

 Molecular mass:   227.04049 amu.
 Principal axes and moments of inertia in atomic units:
                           1         2         3
     Eigenvalues --  1267.860146302.656477570.51660
           X           -0.70279   0.71139  -0.00000
           Y            0.71139   0.70279  -0.00001
           Z            0.00001   0.00001   1.00000
 This molecule is an asymmetric top.
 Rotational symmetry number  1.
 Warning -- assumption of classical behavior for rotation
           may cause significant error
 Rotational temperatures (Kelvin)      0.06832     0.01374     0.01144
 Rotational constants (GHZ):           1.42345     0.28635     0.23839
    1 imaginary frequencies ignored.
 Zero-point vibrational energy     498833.7 (Joules/Mol)
                                  119.22412 (Kcal/Mol)
 Warning -- explicit consideration of  17 degrees of freedom as
           vibrations may cause significant error
 Vibrational temperatures:     93.11   187.00   216.90   283.45   352.35
          (Kelvin)            402.34   459.06   476.15   612.85   628.53
                              669.15   743.70   754.19   771.16   805.03
                              830.80   848.21   931.65   978.78  1063.90
                             1089.15  1096.11  1102.53  1112.45  1131.36
                             1227.57  1267.00  1276.42  1278.67  1354.68
                             1389.30  1403.60  1454.51  1456.46  1461.15
                             1513.91  1538.06  1599.01  1664.51  1672.27
                             1692.54  1706.03  1809.35  1835.58  1855.85
                             1885.66  1953.13  1974.41  1985.77  2126.21
                             2143.06  2162.79  2217.98  2267.91  2309.50
                             2372.09  2412.97  2433.71  2469.91  4089.81
                             4615.07  4616.95  4623.24  4630.97  4644.15
                             4644.31  4655.31  4660.52

 Zero-point correction=                           0.189996 (Hartree/Particle)
 Thermal correction to Energy=                    0.200719
 Thermal correction to Enthalpy=                  0.201663
 Thermal correction to Gibbs Free Energy=         0.153048
 Sum of electronic and zero-point Energies=          -1028.633714
 Sum of electronic and thermal Energies=             -1028.622990
 Sum of electronic and thermal Enthalpies=           -1028.622046
 Sum of electronic and thermal Free Energies=        -1028.670662

                     E (Thermal)             CV                S
                      KCal/Mol        Cal/Mol-Kelvin    Cal/Mol-Kelvin
 Total                  125.953             45.200            102.320
 Electronic               0.000              0.000              0.000
 Translational            0.889              2.981             42.162
 Rotational               0.889              2.981             32.470
 Vibrational            124.176             39.239             27.688
 Vibration     1          0.597              1.971              4.308
 Vibration     2          0.612              1.923              2.946
 Vibration     3          0.618              1.902              2.663
 Vibration     4          0.636              1.844              2.161
 Vibration     5          0.660              1.771              1.767
 Vibration     6          0.680              1.711              1.536
 Vibration     7          0.705              1.637              1.315
 Vibration     8          0.713              1.614              1.256
 Vibration     9          0.788              1.414              0.872
 Vibration    10          0.797              1.390              0.837
 Vibration    11          0.823              1.328              0.751
 Vibration    12          0.872              1.213              0.617
 Vibration    13          0.879              1.196              0.600
 Vibration    14          0.891              1.170              0.574
 Vibration    15          0.915              1.119              0.525
 Vibration    16          0.934              1.080              0.490
 Vibration    17          0.947              1.054              0.468

 Optimization completed.
    -- Stationary point found.
 Normal termination of Gaussian 16 at Wed Oct 28 02:18:35 2020.
