 Gaussian 16, Revision C.01,
 Gaussian 16:  ES64L-G16RevC.01  3-Jul-2019

 ----------------------------------------------------------------------
 #p opt=addgic freq wb97xd/cc-pvdz nosymm int=ultrafine scrf=(solvent=C
 arbonTetraChloride)
 ----------------------------------------------------------------------

 ------------------------------------------------
 NM 2D-scan of HBT TD-WB97XD pVDZ in CTC Relaxed.
 ------------------------------------------------
 Symbolic Z-matrix:
 Charge =  0 Multiplicity = 1

 SCF Done:  E(RwB97XD) =  -1028.67503409     A.U. after   15 cycles
 SCF Done:  E(RwB97XD) =  -1028.80169784     A.U. after   13 cycles
 SCF Done:  E(RwB97XD) =  -1028.81198630     A.U. after   15 cycles
 SCF Done:  E(RwB97XD) =  -1028.82896076     A.U. after   13 cycles
 SCF Done:  E(RwB97XD) =  -1028.83003244     A.U. after   12 cycles
 SCF Done:  E(RwB97XD) =  -1028.83015360     A.U. after   11 cycles
 SCF Done:  E(RwB97XD) =  -1028.83016792     A.U. after    9 cycles
 Optimization completed.
    -- Stationary point found.
 Normal termination of Gaussian 16 at Wed Oct 28 00:42:13 2020.

 --------------------------------------------------------------------
 #P Geom=AllCheck Guess=TCheck SCRF=Check GenChk RwB97XD/CC-pVDZ Freq
 --------------------------------------------------------------------

 Structure from the checkpoint file:  "config_1_16.chk"
 ------------------------------------------------
 NM 2D-scan of HBT TD-WB97XD pVDZ in CTC Relaxed.
 ------------------------------------------------
 Charge =  0 Multiplicity = 1

                          Input orientation:
 ---------------------------------------------------------------------
 Center     Atomic      Atomic             Coordinates (Angstroms)
 Number     Number       Type             X           Y           Z
 ---------------------------------------------------------------------
      1          6           0        1.563153   -3.308725   -0.000022
      2          6           0        0.975472   -2.041819   -0.000011
      3          6           0        1.748055   -0.863867   -0.000010
      4          6           0        3.146113   -0.956866   -0.000022
      5          6           0        3.733769   -2.214144   -0.000032
      6          6           0        2.950328   -3.380584   -0.000032
      7          1           0        0.953135   -4.212467   -0.000021
      8          1           0        3.746298   -0.046331   -0.000021
      9          1           0        4.821405   -2.299319   -0.000041
     10          1           0        3.436705   -4.357202   -0.000040
     11          7           0        1.018114    0.315685    0.000002
     12         16           0       -0.717275   -1.624670    0.000005
     13          6           0       -1.292074    1.128296    0.000021
     14          6           0       -2.657788    0.785528    0.000019
     15          6           0       -0.936325    2.498592    0.000032
     16          6           0       -3.649413    1.749018    0.000025
     17          1           0       -2.944881   -0.268218    0.000011
     18          6           0       -1.948819    3.470261    0.000037
     19          6           0       -3.283314    3.101418    0.000033
     20          1           0       -4.699310    1.456607    0.000023
     21          1           0       -1.647448    4.518367    0.000044
     22          1           0       -4.052853    3.875502    0.000037
     23          6           0       -0.264776    0.086581    0.000011
     24          8           0        0.330742    2.937309    0.000040
     25          1           0        0.924196    2.156997    0.000035
 ---------------------------------------------------------------------

 SCF Done:  E(RwB97XD) =  -1028.83016792     A.U. after    1 cycles

 Alpha  occ. eigenvalues --  -89.08354 -19.28846 -14.46943 -10.39286 -10.37610
 Alpha  occ. eigenvalues --  -10.34802 -10.34616 -10.32486 -10.32186 -10.31923
 Alpha  occ. eigenvalues --  -10.31522 -10.31509 -10.31493 -10.31340 -10.30382
 Alpha  occ. eigenvalues --  -10.30305  -8.10412  -6.05261  -6.04906  -6.04462
 Alpha  occ. eigenvalues --   -1.16850  -1.08658  -0.97282  -0.96247  -0.91515
 Alpha  occ. eigenvalues --   -0.88543  -0.85424  -0.84711  -0.82787  -0.75444
 Alpha  occ. eigenvalues --   -0.71553  -0.70680  -0.69393  -0.68145  -0.63214
 Alpha  occ. eigenvalues --   -0.60314  -0.58724  -0.58501  -0.56596  -0.54556
 Alpha  occ. eigenvalues --   -0.53834  -0.53110  -0.52915  -0.50714  -0.50522
 Alpha  occ. eigenvalues --   -0.49101  -0.47813  -0.45847  -0.45419  -0.45014
 Alpha  occ. eigenvalues --   -0.44001  -0.43101  -0.42339  -0.39633  -0.37513
 Alpha  occ. eigenvalues --   -0.36189  -0.31977  -0.31762  -0.29273
 Alpha virt. eigenvalues --   -0.00415   0.04948   0.06725   0.07071   0.07996
 Alpha virt. eigenvalues --    0.11565   0.14255   0.15240   0.16765   0.18051
 Alpha virt. eigenvalues --    0.18806   0.20499   0.21554   0.22503   0.22639

 Mulliken charges:
               1
     1  C    0.010372
     2  C   -0.204067
     3  C    0.203657
     4  C   -0.016660
     5  C    0.004512
     6  C    0.000387
     7  H    0.017929
     8  H    0.016373
     9  H    0.018878
    10  H    0.020800
    11  N   -0.338208
    12  S    0.136833
    13  C   -0.036652
    14  C   -0.030639
    15  C    0.053720
    16  C   -0.002894
    17  H    0.020735
    18  C    0.013397
    19  C    0.020829
    20  H    0.010400
    21  H    0.018200
    22  H    0.019240
    23  C    0.078035
    24  O   -0.192473
    25  H    0.157296
 Sum of Mulliken charges =  -0.00000

 Dipole moment (field-independent basis, Debye):
    X=             -0.2352    Y=             -2.1989    Z=             -0.0000  Tot=              2.2115
 Quadrupole moment (field-independent basis, Debye-Ang):
   XX=            -82.6917   YY=            -89.8928   ZZ=           -104.1295
   XY=             -7.0056   XZ=             -0.0001   YZ=              0.0001

  Exact polarizability:     273.280     -66.523     254.520      -0.001       0.002      62.942
 Approx polarizability:     261.584     -22.599     242.232      -0.001       0.001      82.148

                      1                      2                      3
                      A                      A                      A
 Frequencies --     44.5253                61.4250               116.2688
 Red. masses --      5.9908                 5.2107                 5.6593
 Frc consts  --      0.0070                 0.0116                 0.0451
 IR Inten    --      0.3168                 0.7735                 1.1939

                      4                      5                      6
                      A                      A                      A
 Frequencies --    150.8415               198.0310               246.7099
 Red. masses --      4.9937                 5.9921                 5.6300
 Frc consts  --      0.0669                 0.1385                 0.2019
 IR Inten    --      0.0004                 0.7314                 0.0095

                      7                      8                      9
                      A                      A                      A
 Frequencies --    263.2349               294.0261               328.9491
 Red. masses --      8.0104                 6.2470                 5.0583
 Frc consts  --      0.3270                 0.3182                 0.3225
 IR Inten    --      3.3341                 5.3522                 0.1182

                     10                     11                     12
                      A                      A                      A
 Frequencies --    410.3687               438.9448               469.8616
 Red. masses --      8.8788                 3.1287                 3.7113
 Frc consts  --      0.8809                 0.3552                 0.4827
 IR Inten    --      0.2601                 1.9018                 8.1178

                     13                     14                     15
                      A                      A                      A
 Frequencies --    506.6718               516.5207               537.1442
 Red. masses --      4.9131                 8.6656                 3.4257
 Frc consts  --      0.7431                 1.3621                 0.5823
 IR Inten    --      5.9637                 0.1709                 3.9661

                     16                     17                     18
                      A                      A                      A
 Frequencies --    548.6629               575.7566               591.9363
 Red. masses --      8.3739                 3.7542                 7.7197
 Frc consts  --      1.4852                 0.7332                 1.5937
 IR Inten    --      2.0315                 0.0158                 6.4539

                     19                     20                     21
                      A                      A                      A
 Frequencies --    642.9412               675.8343               715.3534
 Red. masses --      4.6037                 6.7099                 1.1967
 Frc consts  --      1.1212                 1.8057                 0.3608
 IR Inten    --      3.0683                 2.7812                84.6222

                     22                     23                     24
                      A                      A                      A
 Frequencies --    719.2276               732.1511               756.3255
 Red. masses --      8.1857                 7.8151                 1.8785
 Frc consts  --      2.4948                 2.4682                 0.6331
 IR Inten    --     38.8967                 1.7443                25.9677

                     25                     26                     27
                      A                      A                      A
 Frequencies --    769.7623               778.5228               788.4459
 Red. masses --      2.7164                 1.4140                 2.0067
 Frc consts  --      0.9483                 0.5049                 0.7350
 IR Inten    --     33.8279                26.6045                43.4750

                     28                     29                     30
                      A                      A                      A
 Frequencies --    845.1110               883.9380               887.0989
 Red. masses --      5.9370                 1.5442                 6.4650
 Frc consts  --      2.4983                 0.7109                 2.9975
 IR Inten    --     21.5380                 4.1199                 4.5977

                     31                     32                     33
                      A                      A                      A
 Frequencies --    888.0105               970.2481               976.1374
 Red. masses --      1.4261                 1.3616                 1.3672
 Frc consts  --      0.6626                 0.7552                 0.7675
 IR Inten    --      0.7572                 1.0768                 1.5875

                     34                     35                     36
                      A                      A                      A
 Frequencies --    988.8782              1011.8989              1015.1232
 Red. masses --      7.6960                 1.3040                 1.3054
 Frc consts  --      4.4341                 0.7867                 0.7925
 IR Inten    --     58.3006                 0.3816                 0.0192

                     37                     38                     39
                      A                      A                      A
 Frequencies --   1051.5858              1071.3285              1102.6457
 Red. masses --      1.9958                 1.9596                 3.8907
 Frc consts  --      1.3003                 1.3251                 2.7871
 IR Inten    --      8.4381                12.6061                 5.9923

                     40                     41                     42
                      A                      A                      A
 Frequencies --   1151.9124              1154.5642              1176.8990
 Red. masses --      1.4717                 1.3444                 1.1276
 Frc consts  --      1.1505                 1.0559                 0.9202
 IR Inten    --      3.5053                 3.8080                41.0070

                     43                     44                     45
                      A                      A                      A
 Frequencies --   1183.8193              1241.5394              1275.5734
 Red. masses --      1.2327                 1.8352                 2.3255
 Frc consts  --      1.0178                 1.6667                 2.2293
 IR Inten    --      0.0906               148.1040                95.5702

                     46                     47                     48
                      A                      A                      A
 Frequencies --   1282.7475              1325.1979              1334.0272
 Red. masses --      1.6214                 3.7764                 3.3371
 Frc consts  --      1.5719                 3.9074                 3.4990
 IR Inten    --      4.0819                42.6668                 2.0692

                     49                     50                     51
                      A                      A                      A
 Frequencies --   1368.8090              1379.1314              1439.5899
 Red. masses --      7.6544                 3.7378                 1.6790
 Frc consts  --      8.4498                 4.1887                 2.0502
 IR Inten    --     16.1659                10.7057                65.0261

                     52                     53                     54
                      A                      A                      A
 Frequencies --   1486.3475              1503.7988              1524.1791
 Red. masses --      2.6226                 2.8650                 2.9775
 Frc consts  --      3.4137                 3.8173                 4.0754
 IR Inten    --     42.5251                 9.2464                46.6675

                     55                     56                     57
                      A                      A                      A
 Frequencies --   1537.0958              1598.4557              1643.8623
 Red. masses --      2.7915                 8.3897                 6.7460
 Frc consts  --      3.8860                12.6298                10.7405
 IR Inten    --    151.1112               190.3401                 5.9832

                     58                     59                     60
                      A                      A                      A
 Frequencies --   1661.8615              1681.1373              1708.1935
 Red. masses --      5.3183                 6.9133                 6.1529
 Frc consts  --      8.6539                11.5118                10.5781
 IR Inten    --    118.0772                 4.8249               103.9400

                     61                     62                     63
                      A                      A                      A
 Frequencies --   3204.6381              3210.3602              3214.0998
 Red. masses --      1.0879                 1.0860                 1.0888
 Frc consts  --      6.5829                 6.5947                 6.6271
 IR Inten    --      3.4610                 1.2081                 7.2008

                     64                     65                     66
                      A                      A                      A
 Frequencies --   3221.5261              3231.3602              3231.9677
 Red. masses --      1.0904                 1.0943                 1.0959
 Frc consts  --      6.6677                 6.7321                 6.7448
 IR Inten    --      4.9778                10.3149                10.9762

                     67                     68                     69
                      A                      A                      A
 Frequencies --   3237.8960              3239.8305              3520.1233
 Red. masses --      1.0995                 1.0996                 1.0670
 Frc consts  --      6.7918                 6.8002                 7.7900
 IR Inten    --     16.9525                14.0204               557.0237

 - Thermochemistry -
 -------------------
 Temperature   298.150 Kelvin.  Pressure   1.00000 Atm.
 Atom     1 has atomic number  6 and mass  12.00000

 Molecular mass:   227.04049 amu.
 Principal axes and moments of inertia in atomic units:
                           1         2         3
     Eigenvalues --  1306.274096383.919887690.19397
           X           -0.69524   0.71877   0.00000
           Y            0.71877   0.69524  -0.00001
           Z            0.00001   0.00000   1.00000
 This molecule is an asymmetric top.
 Rotational symmetry number  1.
 Warning -- assumption of classical behavior for rotation
           may cause significant error
 Rotational temperatures (Kelvin)      0.06631     0.01357     0.01126
 Rotational constants (GHZ):           1.38159     0.28270     0.23468
 Zero-point vibrational energy     499686.1 (Joules/Mol)
                                  119.42784 (Kcal/Mol)
 Warning -- explicit consideration of  18 degrees of freedom as
           vibrations may cause significant error
 Vibrational temperatures:     64.06    88.38   167.28   217.03   284.92
          (Kelvin)            354.96   378.74   423.04   473.28   590.43
                              631.54   676.03   728.99   743.16   772.83
                              789.40   828.39   851.66   925.05   972.37
                             1029.23  1034.81  1053.40  1088.18  1107.52
                             1120.12  1134.40  1215.93  1271.79  1276.34
                             1277.65  1395.97  1404.44  1422.78  1455.90
                             1460.54  1513.00  1541.40  1586.46  1657.34
                             1661.16  1693.30  1703.25  1786.30  1835.27
                             1845.59  1906.66  1919.37  1969.41  1984.26
                             2071.25  2138.52  2163.63  2192.95  2211.54
                             2299.82  2365.15  2391.05  2418.78  2457.71
                             4610.76  4618.99  4624.37  4635.06  4649.21
                             4650.08  4658.61  4661.39  5064.67

 Zero-point correction=                           0.190320 (Hartree/Particle)
 Thermal correction to Energy=                    0.202089
 Thermal correction to Enthalpy=                  0.203033
 Thermal correction to Gibbs Free Energy=         0.151570
 Sum of electronic and zero-point Energies=          -1028.639848
 Sum of electronic and thermal Energies=             -1028.628079
 Sum of electronic and thermal Enthalpies=           -1028.627135
 Sum of electronic and thermal Free Energies=        -1028.678598

                     E (Thermal)             CV                S
                      KCal/Mol        Cal/Mol-Kelvin    Cal/Mol-Kelvin
 Total                  126.813             47.886            108.312
 Electronic               0.000              0.000              0.000
 Translational            0.889              2.981             42.162
 Rotational               0.889              2.981             32.528
 Vibrational            125.035             41.925             33.622
 Vibration     1          0.595              1.980              5.047
 Vibration     2          0.597              1.973              4.411
 Vibration     3          0.608              1.936              3.161
 Vibration     4          0.618              1.902              2.662
 Vibration     5          0.637              1.843              2.151
 Vibration     6          0.661              1.768              1.754
 Vibration     7          0.670              1.740              1.640
 Vibration     8          0.689              1.685              1.451
 Vibration     9          0.712              1.618              1.265
 Vibration    10          0.775              1.448              0.925
 Vibration    11          0.799              1.385              0.830
 Vibration    12          0.827              1.317              0.738
 Vibration    13          0.862              1.235              0.642
 Vibration    14          0.872              1.213              0.618
 Vibration    15          0.892              1.168              0.571
 Vibration    16          0.904              1.143              0.547
 Vibration    17          0.932              1.084              0.493
 Vibration    18          0.949              1.049              0.464

                           ! Non-Optimized Parameters !
 Normal termination of Gaussian 16 at Wed Oct 28 00:48:09 2020.
