 Gaussian 16, Revision C.01,
 Gaussian 16:  ES64L-G16RevC.01  3-Jul-2019

 ----------------------------------------------------------------------
 #p opt=addgic freq wb97xd/cc-pvdz nosymm int=ultrafine scrf=(solvent=C
 arbonTetraChloride)
 ----------------------------------------------------------------------

 ------------------------------------------------
 NM 2D-scan of HBT TD-WB97XD pVDZ in CTC Relaxed.
 ------------------------------------------------
 Symbolic Z-matrix:
 Charge =  0 Multiplicity = 1

 SCF Done:  E(RwB97XD) =  -1028.61155947     A.U. after   16 cycles
 SCF Done:  E(RwB97XD) =  -1028.74801623     A.U. after   14 cycles
 SCF Done:  E(RwB97XD) =  -1028.78152087     A.U. after   15 cycles
 SCF Done:  E(RwB97XD) =  -1028.79829033     A.U. after   13 cycles
 SCF Done:  E(RwB97XD) =  -1028.80031924     A.U. after   13 cycles
 SCF Done:  E(RwB97XD) =  -1028.80063524     A.U. after   12 cycles
 SCF Done:  E(RwB97XD) =  -1028.80066813     A.U. after   10 cycles
 SCF Done:  E(RwB97XD) =  -1028.80067183     A.U. after    9 cycles
 Optimization completed.
    -- Stationary point found.
 Normal termination of Gaussian 16 at Wed Oct 28 00:59:01 2020.

 --------------------------------------------------------------------
 #P Geom=AllCheck Guess=TCheck SCRF=Check GenChk RwB97XD/CC-pVDZ Freq
 --------------------------------------------------------------------

 Structure from the checkpoint file:  "config_11_17.chk"
 ------------------------------------------------
 NM 2D-scan of HBT TD-WB97XD pVDZ in CTC Relaxed.
 ------------------------------------------------
 Charge =  0 Multiplicity = 1

                          Input orientation:
 ---------------------------------------------------------------------
 Center     Atomic      Atomic             Coordinates (Angstroms)
 Number     Number       Type             X           Y           Z
 ---------------------------------------------------------------------
      1          6           0        1.551791   -3.280071   -0.000044
      2          6           0        1.002198   -2.005571   -0.000026
      3          6           0        1.798359   -0.870807   -0.000007
      4          6           0        3.190134   -0.971512   -0.000005
      5          6           0        3.744427   -2.252548   -0.000022
      6          6           0        2.938168   -3.395027   -0.000041
      7          1           0        0.912467   -4.162711   -0.000059
      8          1           0        3.822511   -0.082699    0.000011
      9          1           0        4.830004   -2.358433   -0.000019
     10          1           0        3.397605   -4.383770   -0.000055
     11          7           0        1.003904    0.270839    0.000008
     12         16           0       -0.701784   -1.567085   -0.000020
     13          6           0       -1.324877    1.135479    0.000035
     14          6           0       -2.699707    0.776106    0.000045
     15          6           0       -0.892667    2.528370    0.000041
     16          6           0       -3.687802    1.726206    0.000047
     17          1           0       -2.979556   -0.281225    0.000052
     18          6           0       -2.002830    3.490863    0.000015
     19          6           0       -3.317027    3.100895    0.000025
     20          1           0       -4.738227    1.434315    0.000057
     21          1           0       -1.735532    4.549689   -0.000006
     22          1           0       -4.104566    3.859283    0.000014
     23          6           0       -0.338905    0.128280    0.000013
     24          8           0        0.310976    2.824767    0.000016
     25          1           0        1.508283    1.126141    0.000018
 ---------------------------------------------------------------------

 SCF Done:  E(RwB97XD) =  -1028.80067183     A.U. after    1 cycles

 Alpha  occ. eigenvalues --  -89.09684 -19.21093 -14.52484 -10.41610 -10.37168
 Alpha  occ. eigenvalues --  -10.35931 -10.35696 -10.33209 -10.33189 -10.32646
 Alpha  occ. eigenvalues --  -10.32296 -10.31065 -10.30692 -10.30242 -10.29096
 Alpha  occ. eigenvalues --  -10.28618  -8.11787  -6.06670  -6.06275  -6.05789
 Alpha  occ. eigenvalues --   -1.12973  -1.10045  -0.98648  -0.95637  -0.93299
 Alpha  occ. eigenvalues --   -0.89152  -0.86749  -0.83827  -0.81649  -0.75455
 Alpha  occ. eigenvalues --   -0.74156  -0.72011  -0.69409  -0.67847  -0.64553
 Alpha  occ. eigenvalues --   -0.60912  -0.59740  -0.56676  -0.56030  -0.55982
 Alpha  occ. eigenvalues --   -0.55015  -0.53825  -0.52973  -0.50049  -0.49387
 Alpha  occ. eigenvalues --   -0.48982  -0.48285  -0.46755  -0.45677  -0.44750
 Alpha  occ. eigenvalues --   -0.44493  -0.42831  -0.41878  -0.40360  -0.36916
 Alpha  occ. eigenvalues --   -0.33610  -0.31650  -0.31208  -0.26082
 Alpha virt. eigenvalues --   -0.01309   0.03767   0.05804   0.07125   0.09579
 Alpha virt. eigenvalues --    0.11346   0.14043   0.14689   0.15980   0.16888
 Alpha virt. eigenvalues --    0.17973   0.19736   0.20950   0.21573   0.22793

 Mulliken charges:
               1
     1  C    0.016663
     2  C   -0.232518
     3  C    0.212500
     4  C   -0.012653
     5  C    0.009288
     6  C    0.005054
     7  H    0.023422
     8  H    0.030097
     9  H    0.027526
    10  H    0.025966
    11  N   -0.112576
    12  S    0.177941
    13  C   -0.087189
    14  C   -0.020033
    15  C    0.093847
    16  C   -0.033641
    17  H    0.012166
    18  C   -0.043736
    19  C    0.029033
    20  H    0.001863
    21  H    0.001644
    22  H    0.013954
    23  C    0.099650
    24  O   -0.357802
    25  H    0.119535
 Sum of Mulliken charges =  -0.00000

 Dipole moment (field-independent basis, Debye):
    X=              2.2066    Y=             -5.4372    Z=             -0.0000  Tot=              5.8679
 Quadrupole moment (field-independent basis, Debye-Ang):
   XX=            -80.9653   YY=            -96.4247   ZZ=           -103.9703
   XY=             -6.3505   XZ=             -0.0000   YZ=              0.0001

  Exact polarizability:     290.130     -91.507     288.517      -0.001       0.002      62.868
 Approx polarizability:     266.982     -34.725     254.747      -0.001       0.001      81.858

                      1                      2                      3
                      A                      A                      A
 Frequencies --     11.2633                62.8898               110.6551
 Red. masses --      4.5861                 6.1893                 5.7889
 Frc consts  --      0.0003                 0.0144                 0.0418
 IR Inten    --      2.6468                 0.9986                 1.1372

                      4                      5                      6
                      A                      A                      A
 Frequencies --    113.5796               190.0525               223.2233
 Red. masses --      5.4732                 5.9230                 5.7237
 Frc consts  --      0.0416                 0.1260                 0.1680
 IR Inten    --      0.2343                 0.1257                 2.2723

                      7                      8                      9
                      A                      A                      A
 Frequencies --    266.7242               292.2690               303.1654
 Red. masses --      8.2451                 6.9413                 4.4258
 Frc consts  --      0.3456                 0.3493                 0.2397
 IR Inten    --      5.5415                 1.9084                 4.9810

                     10                     11                     12
                      A                      A                      A
 Frequencies --    393.1008               417.6753               443.1205
 Red. masses --      7.7722                 2.6530                 3.4597
 Frc consts  --      0.7076                 0.2727                 0.4003
 IR Inten    --      3.5677                13.5656                11.6403

                     13                     14                     15
                      A                      A                      A
 Frequencies --    462.0616               505.9210               520.3109
 Red. masses --      1.2430                 8.1124                 2.5577
 Frc consts  --      0.1564                 1.2234                 0.4080
 IR Inten    --     65.3237                10.0051                 0.9500

                     16                     17                     18
                      A                      A                      A
 Frequencies --    531.0168               545.6063               562.9019
 Red. masses --      6.8046                 7.5436                 3.8352
 Frc consts  --      1.1305                 1.3231                 0.7160
 IR Inten    --      4.1491                14.0620                 0.0420

                     19                     20                     21
                      A                      A                      A
 Frequencies --    580.0823               631.9641               656.6005
 Red. masses --      7.3725                 6.9045                 6.2884
 Frc consts  --      1.4617                 1.6247                 1.5973
 IR Inten    --     39.5201                 2.0841                 1.4573

                     22                     23                     24
                      A                      A                      A
 Frequencies --    713.7999               742.4716               750.8727
 Red. masses --      5.5047                 7.2674                 2.5434
 Frc consts  --      1.6525                 2.3604                 0.8449
 IR Inten    --     60.9742                47.8131                15.9829

                     25                     26                     27
                      A                      A                      A
 Frequencies --    757.5173               774.0518               778.9068
 Red. masses --      1.4184                 1.5974                 2.4635
 Frc consts  --      0.4795                 0.5639                 0.8806
 IR Inten    --     48.3175                47.7040                16.9990

                     28                     29                     30
                      A                      A                      A
 Frequencies --    831.1038               875.8128               881.0251
 Red. masses --      6.2605                 2.0917                 1.3769
 Frc consts  --      2.5478                 0.9453                 0.6297
 IR Inten    --     20.9540                16.3440                 0.8911

                     31                     32                     33
                      A                      A                      A
 Frequencies --    888.4585               963.7222               969.1002
 Red. masses --      5.3025                 1.3249                 1.3613
 Frc consts  --      2.4660                 0.7250                 0.7532
 IR Inten    --      0.3731                 0.0762                 1.6650

                     34                     35                     36
                      A                      A                      A
 Frequencies --    971.9206              1012.5546              1018.0530
 Red. masses --      4.2961                 1.3035                 1.3071
 Frc consts  --      2.3911                 0.7874                 0.7982
 IR Inten    --     26.8895                 0.0050                 0.3459

                     37                     38                     39
                      A                      A                      A
 Frequencies --   1043.5560              1056.6492              1099.2066
 Red. masses --      2.1180                 2.0617                 3.5199
 Frc consts  --      1.3590                 1.3562                 2.5058
 IR Inten    --     12.6995                12.7521                 9.6466

                     40                     41                     42
                      A                      A                      A
 Frequencies --   1123.4352              1158.3495              1162.9341
 Red. masses --      1.8747                 1.3749                 1.1954
 Frc consts  --      1.3941                 1.0869                 0.9525
 IR Inten    --     37.9882                 3.5550                75.8961

                     43                     44                     45
                      A                      A                      A
 Frequencies --   1180.2716              1197.6484              1234.0266
 Red. masses --      1.1529                 1.2196                 2.2933
 Frc consts  --      0.9462                 1.0307                 2.0576
 IR Inten    --     23.4639                12.4180                27.0102

                     46                     47                     48
                      A                      A                      A
 Frequencies --   1277.4180              1299.0731              1349.9241
 Red. masses --      2.2200                 1.8527                 2.5886
 Frc consts  --      2.1343                 1.8422                 2.7793
 IR Inten    --     94.0979               109.6177                24.9591

                     49                     50                     51
                      A                      A                      A
 Frequencies --   1387.4465              1396.9785              1410.5208
 Red. masses --      5.9539                 5.4752                 2.1023
 Frc consts  --      6.7528                 6.2955                 2.4643
 IR Inten    --    221.6652                23.4527                 7.2334

                     52                     53                     54
                      A                      A                      A
 Frequencies --   1492.9268              1506.1212              1528.6224
 Red. masses --      2.8599                 2.9986                 3.0532
 Frc consts  --      3.7556                 4.0077                 4.2035
 IR Inten    --     37.1906               597.9210                 6.1118

                     55                     56                     57
                      A                      A                      A
 Frequencies --   1540.6032              1596.1463              1656.5752
 Red. masses --      4.7816                 7.1197                 6.0991
 Frc consts  --      6.6866                10.6870                 9.8613
 IR Inten    --   1937.8289                57.1439                69.8405

                     58                     59                     60
                      A                      A                      A
 Frequencies --   1680.9814              1694.0267              1735.9163
 Red. masses --      7.1577                 7.7186                 9.3004
 Frc consts  --     11.9166                13.0506                16.5123
 IR Inten    --     39.9506                18.1379               469.6757

                     61                     62                     63
                      A                      A                      A
 Frequencies --   3184.7094              3192.5949              3214.6458
 Red. masses --      1.0882                 1.0878                 1.0866
 Frc consts  --      6.5028                 6.5325                 6.6160
 IR Inten    --      2.7952                13.3093                 1.4176

                     64                     65                     66
                      A                      A                      A
 Frequencies --   3215.2390              3224.1402              3231.1447
 Red. masses --      1.0949                 1.0908                 1.0973
 Frc consts  --      6.6688                 6.6810                 6.7496
 IR Inten    --     35.1058                 1.4917                18.6504

                     67                     68                     69
                      A                      A                      A
 Frequencies --   3232.2162              3241.3038              3872.9529
 Red. masses --      1.0959                 1.0997                 1.0791
 Frc consts  --      6.7456                 6.8073                 9.5366
 IR Inten    --      5.0380                12.2982               120.5916

 - Thermochemistry -
 -------------------
 Temperature   298.150 Kelvin.  Pressure   1.00000 Atm.
 Atom     1 has atomic number  6 and mass  12.00000

 Molecular mass:   227.04049 amu.
 Principal axes and moments of inertia in atomic units:
                           1         2         3
     Eigenvalues --  1268.579476428.576887697.15635
           X           -0.70456   0.70964   0.00000
           Y            0.70964   0.70456  -0.00001
           Z            0.00001   0.00000   1.00000
 This molecule is an asymmetric top.
 Rotational symmetry number  1.
 Warning -- assumption of classical behavior for rotation
           may cause significant error
 Rotational temperatures (Kelvin)      0.06828     0.01347     0.01125
 Rotational constants (GHZ):           1.42265     0.28074     0.23447
 Zero-point vibrational energy     497478.2 (Joules/Mol)
                                  118.90014 (Kcal/Mol)
 Warning -- explicit consideration of  19 degrees of freedom as
           vibrations may cause significant error
 Vibrational temperatures:     16.21    90.48   159.21   163.42   273.44
          (Kelvin)            321.17   383.76   420.51   436.19   565.58
                              600.94   637.55   664.80   727.91   748.61
                              764.01   785.01   809.89   834.61   909.26
                              944.70  1027.00  1068.25  1080.34  1089.90
                             1113.69  1120.67  1195.77  1260.10  1267.60
                             1278.29  1386.58  1394.32  1398.38  1456.84
                             1464.75  1501.44  1520.28  1581.51  1616.37
                             1666.61  1673.20  1698.15  1723.15  1775.49
                             1837.92  1869.08  1942.24  1996.23  2009.94
                             2029.42  2147.99  2166.97  2199.35  2216.58
                             2296.50  2383.44  2418.56  2437.33  2497.60
                             4582.09  4593.43  4625.16  4626.01  4638.82
                             4648.90  4650.44  4663.51  5572.32

 Zero-point correction=                           0.189479 (Hartree/Particle)
 Thermal correction to Energy=                    0.201738
 Thermal correction to Enthalpy=                  0.202682
 Thermal correction to Gibbs Free Energy=         0.149060
 Sum of electronic and zero-point Energies=          -1028.611192
 Sum of electronic and thermal Energies=             -1028.598934
 Sum of electronic and thermal Enthalpies=           -1028.597990
 Sum of electronic and thermal Free Energies=        -1028.651611

                     E (Thermal)             CV                S
                      KCal/Mol        Cal/Mol-Kelvin    Cal/Mol-Kelvin
 Total                  126.592             49.050            112.856
 Electronic               0.000              0.000              0.000
 Translational            0.889              2.981             42.162
 Rotational               0.889              2.981             32.507
 Vibrational            124.815             43.088             38.188
 Vibration     1          0.593              1.987              7.775
 Vibration     2          0.597              1.972              4.364
 Vibration     3          0.606              1.941              3.257
 Vibration     4          0.607              1.938              3.207
 Vibration     5          0.633              1.854              2.227
 Vibration     6          0.649              1.806              1.933
 Vibration     7          0.672              1.734              1.617
 Vibration     8          0.688              1.688              1.461
 Vibration     9          0.695              1.668              1.399
 Vibration    10          0.760              1.485              0.988
 Vibration    11          0.781              1.432              0.900
 Vibration    12          0.803              1.376              0.817
 Vibration    13          0.820              1.334              0.760
 Vibration    14          0.861              1.237              0.643
 Vibration    15          0.875              1.205              0.609
 Vibration    16          0.886              1.181              0.585
 Vibration    17          0.901              1.149              0.553
 Vibration    18          0.919              1.112              0.518
 Vibration    19          0.937              1.074              0.485

 Optimization completed.
    -- Stationary point found.
 Normal termination of Gaussian 16 at Wed Oct 28 01:05:02 2020.
