 Gaussian 16, Revision C.01,
 Gaussian 16:  ES64L-G16RevC.01  3-Jul-2019

 ----------------------------------------------------------------------
 #p opt=addgic freq wb97xd/cc-pvdz nosymm int=ultrafine scrf=(solvent=C
 arbonTetraChloride)
 ----------------------------------------------------------------------

 ------------------------------------------------
 NM 2D-scan of HBT TD-WB97XD pVDZ in CTC Relaxed.
 ------------------------------------------------
 Symbolic Z-matrix:
 Charge =  0 Multiplicity = 1

 SCF Done:  E(RwB97XD) =  -1028.81311382     A.U. after   15 cycles
 SCF Done:  E(RwB97XD) =  -1028.81990414     A.U. after   13 cycles
 SCF Done:  E(RwB97XD) =  -1028.81943285     A.U. after   13 cycles
 SCF Done:  E(RwB97XD) =  -1028.82155718     A.U. after   12 cycles
 SCF Done:  E(RwB97XD) =  -1028.82157773     A.U. after   10 cycles
 SCF Done:  E(RwB97XD) =  -1028.82157963     A.U. after    9 cycles
 SCF Done:  E(RwB97XD) =  -1028.82157996     A.U. after    9 cycles
 SCF Done:  E(RwB97XD) =  -1028.82158014     A.U. after    7 cycles
 Optimization completed.
    -- Stationary point found.
 Normal termination of Gaussian 16 at Tue Oct 27 21:12:39 2020.

 --------------------------------------------------------------------
 #P Geom=AllCheck Guess=TCheck SCRF=Check GenChk RwB97XD/CC-pVDZ Freq
 --------------------------------------------------------------------

 Structure from the checkpoint file:  "config_6_3.chk"
 ------------------------------------------------
 NM 2D-scan of HBT TD-WB97XD pVDZ in CTC Relaxed.
 ------------------------------------------------
 Charge =  0 Multiplicity = 1

                          Input orientation:
 ---------------------------------------------------------------------
 Center     Atomic      Atomic             Coordinates (Angstroms)
 Number     Number       Type             X           Y           Z
 ---------------------------------------------------------------------
      1          6           0        1.733434   -3.269400   -0.000050
      2          6           0        1.001662   -2.078730   -0.000024
      3          6           0        1.663667   -0.845628    0.000007
      4          6           0        3.059240   -0.763244    0.000018
      5          6           0        3.782501   -1.945069   -0.000006
      6          6           0        3.123169   -3.184712   -0.000041
      7          1           0        1.236048   -4.239495   -0.000075
      8          1           0        3.544848    0.212925    0.000044
      9          1           0        4.872844   -1.913633    0.000001
     10          1           0        3.709863   -4.104444   -0.000061
     11          7           0        0.813147    0.228746    0.000018
     12         16           0       -0.744449   -1.804059   -0.000023
     13          6           0       -1.414658    1.049367    0.000004
     14          6           0       -2.810823    0.900862    0.000009
     15          6           0       -0.851002    2.367818    0.000012
     16          6           0       -3.655251    2.003341    0.000035
     17          1           0       -3.238062   -0.105320   -0.000002
     18          6           0       -1.730317    3.470977    0.000045
     19          6           0       -3.102393    3.291740    0.000057
     20          1           0       -4.736574    1.865021    0.000042
     21          1           0       -1.285626    4.466920    0.000056
     22          1           0       -3.758328    4.164756    0.000082
     23          6           0       -0.460744   -0.062524   -0.000003
     24          8           0        0.446823    2.586919   -0.000017
     25          1           0        0.892200    1.634838   -0.000043
 ---------------------------------------------------------------------

 SCF Done:  E(RwB97XD) =  -1028.82158014     A.U. after    1 cycles

 Alpha  occ. eigenvalues --  -89.09298 -19.26078 -14.47166 -10.39994 -10.36974
 Alpha  occ. eigenvalues --  -10.35231 -10.35174 -10.32694 -10.32155 -10.31924
 Alpha  occ. eigenvalues --  -10.31847 -10.31763 -10.31706 -10.31126 -10.29889
 Alpha  occ. eigenvalues --  -10.29607  -8.11260  -6.06128  -6.05760  -6.05300
 Alpha  occ. eigenvalues --   -1.15454  -1.09542  -0.97473  -0.95790  -0.91764
 Alpha  occ. eigenvalues --   -0.88698  -0.85436  -0.84197  -0.83043  -0.75632
 Alpha  occ. eigenvalues --   -0.71441  -0.70437  -0.69222  -0.68487  -0.63177
 Alpha  occ. eigenvalues --   -0.60754  -0.59032  -0.58041  -0.56120  -0.54525
 Alpha  occ. eigenvalues --   -0.54478  -0.53422  -0.52369  -0.51132  -0.49951
 Alpha  occ. eigenvalues --   -0.49740  -0.47449  -0.46131  -0.45280  -0.45078
 Alpha  occ. eigenvalues --   -0.43832  -0.42945  -0.42482  -0.40048  -0.36253
 Alpha  occ. eigenvalues --   -0.35847  -0.32553  -0.31537  -0.28539
 Alpha virt. eigenvalues --   -0.00606   0.04541   0.06905   0.07394   0.07595
 Alpha virt. eigenvalues --    0.11180   0.13340   0.15025   0.16050   0.17833
 Alpha virt. eigenvalues --    0.19088   0.20766   0.21756   0.22504   0.22630

 Mulliken charges:
               1
     1  C    0.006933
     2  C   -0.233205
     3  C    0.266857
     4  C   -0.011520
     5  C    0.008573
     6  C    0.000551
     7  H    0.021423
     8  H    0.023055
     9  H    0.021967
    10  H    0.023033
    11  N   -0.324372
    12  S    0.156888
    13  C   -0.096198
    14  C   -0.013978
    15  C    0.090980
    16  C   -0.015529
    17  H    0.006409
    18  C    0.000626
    19  C    0.021976
    20  H    0.008192
    21  H    0.012075
    22  H    0.016729
    23  C    0.081136
    24  O   -0.250297
    25  H    0.177697
 Sum of Mulliken charges =  -0.00000

 Dipole moment (field-independent basis, Debye):
    X=              0.5032    Y=             -3.0831    Z=             -0.0000  Tot=              3.1239
 Quadrupole moment (field-independent basis, Debye-Ang):
   XX=            -82.7357   YY=            -90.6284   ZZ=           -104.0966
   XY=             -7.1485   XZ=             -0.0001   YZ=              0.0004

  Exact polarizability:     276.930     -68.676     259.235      -0.001       0.003      63.011
 Approx polarizability:     264.095     -24.318     244.442      -0.000       0.003      82.246

 ******    1 imaginary frequencies (negative Signs) ******

                      1                      2                      3
                      A                      A                      A
 Frequencies --    -15.8980                61.8106               123.6468
 Red. masses --      5.5439                 6.0313                 5.6186
 Frc consts  --      0.0008                 0.0136                 0.0506
 IR Inten    --      0.0337                 1.4872                 2.0813

                      4                      5                      6
                      A                      A                      A
 Frequencies --    151.4485               197.3157               244.1678
 Red. masses --      4.9616                 5.7704                 5.7914
 Frc consts  --      0.0671                 0.1324                 0.2034
 IR Inten    --      0.1502                 0.3947                 0.1386

                      7                      8                      9
                      A                      A                      A
 Frequencies --    271.5917               324.9954               342.2586
 Red. masses --      7.3666                 5.1605                 6.0236
 Frc consts  --      0.3201                 0.3211                 0.4157
 IR Inten    --      0.7639                 0.4183                15.7235

                     10                     11                     12
                      A                      A                      A
 Frequencies --    407.5859               436.4107               461.6940
 Red. masses --     10.2070                 3.1299                 3.6563
 Frc consts  --      0.9990                 0.3512                 0.4592
 IR Inten    --      0.3085                 2.0970                 8.5078

                     13                     14                     15
                      A                      A                      A
 Frequencies --    515.2662               524.9649               539.5867
 Red. masses --      8.3979                 5.2430                 3.4531
 Frc consts  --      1.3137                 0.8513                 0.5924
 IR Inten    --      0.7164                32.2853                 3.7189

                     16                     17                     18
                      A                      A                      A
 Frequencies --    555.5405               573.2816               592.6828
 Red. masses --      7.2599                 3.6635                 7.6542
 Frc consts  --      1.3201                 0.7094                 1.5841
 IR Inten    --      8.6356                 0.1023                 3.2667

                     19                     20                     21
                      A                      A                      A
 Frequencies --    648.3358               686.3793               710.9193
 Red. masses --      6.4007                 6.3271                 6.7217
 Frc consts  --      1.5852                 1.7562                 2.0016
 IR Inten    --      0.0160                17.0679                22.3783

                     22                     23                     24
                      A                      A                      A
 Frequencies --    754.2655               756.3160               767.7541
 Red. masses --      2.0948                10.0933                 2.7789
 Frc consts  --      0.7022                 3.4017                 0.9651
 IR Inten    --     22.8473                12.7528                 4.1414

                     25                     26                     27
                      A                      A                      A
 Frequencies --    774.8516               784.1331               847.9521
 Red. masses --      1.4417                 1.8335                 5.9763
 Frc consts  --      0.5100                 0.6642                 2.5318
 IR Inten    --     62.6345                36.1586                16.9940

                     28                     29                     30
                      A                      A                      A
 Frequencies --    882.6825               885.1208               914.3242
 Red. masses --      1.5782                 1.4170                 6.6859
 Frc consts  --      0.7245                 0.6541                 3.2931
 IR Inten    --      5.8263                 0.1444                 0.3698

                     31                     32                     33
                      A                      A                      A
 Frequencies --    968.9777               975.0080               997.5331
 Red. masses --      1.3559                 1.3608                 7.3352
 Frc consts  --      0.7501                 0.7622                 4.3005
 IR Inten    --      1.1949                 0.7706                64.4658

                     34                     35                     36
                      A                      A                      A
 Frequencies --   1010.5571              1015.8003              1052.7251
 Red. masses --      1.2994                 1.3050                 2.0337
 Frc consts  --      0.7818                 0.7934                 1.3279
 IR Inten    --      0.1352                 0.0434                 8.8378

                     37                     38                     39
                      A                      A                      A
 Frequencies --   1063.6179              1066.2318              1094.5223
 Red. masses --      1.0680                 1.9484                 4.2901
 Frc consts  --      0.7118                 1.3050                 3.0281
 IR Inten    --     70.7459                 9.4512                 4.6369

                     40                     41                     42
                      A                      A                      A
 Frequencies --   1145.9650              1152.3393              1171.2630
 Red. masses --      1.4956                 1.2857                 1.1394
 Frc consts  --      1.1572                 1.0059                 0.9210
 IR Inten    --     19.5231                 3.1462                43.1085

                     43                     44                     45
                      A                      A                      A
 Frequencies --   1184.2465              1255.3586              1286.6536
 Red. masses --      1.1745                 1.8670                 1.5825
 Frc consts  --      0.9705                 1.7336                 1.5435
 IR Inten    --      0.0125               133.5709                 4.4211

                     46                     47                     48
                      A                      A                      A
 Frequencies --   1299.3320              1327.1128              1344.8280
 Red. masses --      2.6725                 3.4207                 6.2759
 Frc consts  --      2.6584                 3.5496                 6.6875
 IR Inten    --    132.8768               108.6821                 5.0435

                     49                     50                     51
                      A                      A                      A
 Frequencies --   1379.1583              1384.4325              1455.9924
 Red. masses --      6.7520                 2.7915                 2.3493
 Frc consts  --      7.5668                 3.1523                 2.9344
 IR Inten    --     10.3669                17.1296                 2.0004

                     52                     53                     54
                      A                      A                      A
 Frequencies --   1494.5371              1498.7261              1528.1949
 Red. masses --      2.7362                 2.8093                 4.3080
 Frc consts  --      3.6009                 3.7178                 5.9277
 IR Inten    --      5.9105                36.5715                82.7287

                     55                     56                     57
                      A                      A                      A
 Frequencies --   1582.4941              1598.4396              1656.1646
 Red. masses --      6.8332                 3.1711                 6.5637
 Frc consts  --     10.0822                 4.7737                10.6073
 IR Inten    --    282.5852                51.5977                28.0864

                     58                     59                     60
                      A                      A                      A
 Frequencies --   1671.4250              1699.5488              1710.8929
 Red. masses --      5.1600                 6.5247                 2.0673
 Frc consts  --      8.4932                11.1040                 3.5654
 IR Inten    --    234.3510               182.0015               385.2258

                     61                     62                     63
                      A                      A                      A
 Frequencies --   2253.9325              3190.0307              3203.5553
 Red. masses --      1.1033                 1.0896                 1.0884
 Frc consts  --      3.3025                 6.5327                 6.5811
 IR Inten    --   1521.7336                 4.4407                 6.4452

                     64                     65                     66
                      A                      A                      A
 Frequencies --   3213.6996              3224.0865              3225.8097
 Red. masses --      1.0862                 1.0905                 1.0936
 Frc consts  --      6.6092                 6.6788                 6.7048
 IR Inten    --      1.4726                 3.1027                12.7331

                     67                     68                     69
                      A                      A                      A
 Frequencies --   3233.3581              3233.7839              3240.1968
 Red. masses --      1.0987                 1.0961                 1.0999
 Frc consts  --      6.7674                 6.7533                 6.8040
 IR Inten    --     19.4156                 8.5484                13.7731

 - Thermochemistry -
 -------------------
 Temperature   298.150 Kelvin.  Pressure   1.00000 Atm.
 Atom     1 has atomic number  6 and mass  12.00000

 Molecular mass:   227.04049 amu.
 Principal axes and moments of inertia in atomic units:
                           1         2         3
     Eigenvalues --  1318.730106275.247237593.97733
           X           -0.70351   0.71068   0.00000
           Y            0.71068   0.70351  -0.00001
           Z            0.00001   0.00001   1.00000
 This molecule is an asymmetric top.
 Rotational symmetry number  1.
 Warning -- assumption of classical behavior for rotation
           may cause significant error
 Rotational temperatures (Kelvin)      0.06568     0.01380     0.01141
 Rotational constants (GHZ):           1.36854     0.28760     0.23765
    1 imaginary frequencies ignored.
 Zero-point vibrational energy     495420.3 (Joules/Mol)
                                  118.40830 (Kcal/Mol)
 Warning -- explicit consideration of  17 degrees of freedom as
           vibrations may cause significant error
 Vibrational temperatures:     88.93   177.90   217.90   283.89   351.30
          (Kelvin)            390.76   467.60   492.43   586.43   627.90
                              664.27   741.35   755.31   776.34   799.30
                              824.82   852.74   932.81   987.55  1022.85
                             1085.22  1088.17  1104.63  1114.84  1128.19
                             1220.01  1269.98  1273.49  1315.51  1394.14
                             1402.82  1435.23  1453.97  1461.51  1514.64
                             1530.31  1534.07  1574.77  1648.79  1657.96
                             1685.19  1703.87  1806.18  1851.21  1869.45
                             1909.42  1934.91  1984.30  1991.89  2094.85
                             2150.31  2156.33  2198.73  2276.86  2299.80
                             2382.85  2404.81  2445.27  2461.59  3242.91
                             4589.74  4609.20  4623.80  4638.74  4641.22
                             4652.08  4652.69  4661.92

 Zero-point correction=                           0.188696 (Hartree/Particle)
 Thermal correction to Energy=                    0.199442
 Thermal correction to Enthalpy=                  0.200386
 Thermal correction to Gibbs Free Energy=         0.151653
 Sum of electronic and zero-point Energies=          -1028.632884
 Sum of electronic and thermal Energies=             -1028.622138
 Sum of electronic and thermal Enthalpies=           -1028.621194
 Sum of electronic and thermal Free Energies=        -1028.669928

                     E (Thermal)             CV                S
                      KCal/Mol        Cal/Mol-Kelvin    Cal/Mol-Kelvin
 Total                  125.152             45.179            102.569
 Electronic               0.000              0.000              0.000
 Translational            0.889              2.981             42.162
 Rotational               0.889              2.981             32.508
 Vibrational            123.374             39.218             27.899
 Vibration     1          0.597              1.973              4.399
 Vibration     2          0.610              1.929              3.043
 Vibration     3          0.619              1.901              2.654
 Vibration     4          0.637              1.844              2.158
 Vibration     5          0.659              1.772              1.772
 Vibration     6          0.675              1.726              1.586
 Vibration     7          0.709              1.625              1.285
 Vibration     8          0.721              1.591              1.202
 Vibration     9          0.772              1.454              0.935
 Vibration    10          0.797              1.391              0.838
 Vibration    11          0.819              1.335              0.761
 Vibration    12          0.870              1.216              0.621
 Vibration    13          0.880              1.195              0.599
 Vibration    14          0.895              1.163              0.566
 Vibration    15          0.911              1.128              0.533
 Vibration    16          0.930              1.089              0.498
 Vibration    17          0.950              1.047              0.462

 Optimization completed.
    -- Stationary point found.
 Normal termination of Gaussian 16 at Tue Oct 27 21:19:35 2020.
