 Gaussian 16, Revision C.01,
 Gaussian 16:  ES64L-G16RevC.01  3-Jul-2019

 ----------------------------------------------------------------------
 #p opt=addgic freq wb97xd/cc-pvdz nosymm int=ultrafine scrf=(solvent=C
 arbonTetraChloride)
 ----------------------------------------------------------------------

 ------------------------------------------------
 NM 2D-scan of HBT TD-WB97XD pVDZ in CTC Relaxed.
 ------------------------------------------------
 Symbolic Z-matrix:
 Charge =  0 Multiplicity = 1

 SCF Done:  E(RwB97XD) =  -1028.78428303     A.U. after   16 cycles
 SCF Done:  E(RwB97XD) =  -1028.80760401     A.U. after   14 cycles
 SCF Done:  E(RwB97XD) =  -1028.81031456     A.U. after   13 cycles
 SCF Done:  E(RwB97XD) =  -1028.81091638     A.U. after   12 cycles
 SCF Done:  E(RwB97XD) =  -1028.81096565     A.U. after   10 cycles
 SCF Done:  E(RwB97XD) =  -1028.81097338     A.U. after    9 cycles
 SCF Done:  E(RwB97XD) =  -1028.81097392     A.U. after    9 cycles
 Optimization completed.
    -- Stationary point found.
 Normal termination of Gaussian 16 at Wed Oct 28 00:32:25 2020.

 --------------------------------------------------------------------
 #P Geom=AllCheck Guess=TCheck SCRF=Check GenChk RwB97XD/CC-pVDZ Freq
 --------------------------------------------------------------------

 Structure from the checkpoint file:  "config_9_16.chk"
 ------------------------------------------------
 NM 2D-scan of HBT TD-WB97XD pVDZ in CTC Relaxed.
 ------------------------------------------------
 Charge =  0 Multiplicity = 1

                          Input orientation:
 ---------------------------------------------------------------------
 Center     Atomic      Atomic             Coordinates (Angstroms)
 Number     Number       Type             X           Y           Z
 ---------------------------------------------------------------------
      1          6           0        1.554165   -3.270637   -0.000090
      2          6           0        0.993773   -1.998082   -0.000042
      3          6           0        1.780183   -0.839004    0.000022
      4          6           0        3.172571   -0.943126    0.000042
      5          6           0        3.735861   -2.218510   -0.000009
      6          6           0        2.940985   -3.371541   -0.000075
      7          1           0        0.921951   -4.158848   -0.000137
      8          1           0        3.797570   -0.049764    0.000094
      9          1           0        4.822225   -2.316266    0.000004
     10          1           0        3.410660   -4.355667   -0.000111
     11          7           0        0.990994    0.308499    0.000066
     12         16           0       -0.712314   -1.595945   -0.000035
     13          6           0       -1.312748    1.115987    0.000041
     14          6           0       -2.694581    0.767943    0.000073
     15          6           0       -0.876935    2.504701    0.000022
     16          6           0       -3.665405    1.728287    0.000081
     17          1           0       -2.983188   -0.286808    0.000099
     18          6           0       -1.955556    3.476480   -0.000022
     19          6           0       -3.271442    3.098752    0.000027
     20          1           0       -4.720976    1.457042    0.000113
     21          1           0       -1.669264    4.529823   -0.000098
     22          1           0       -4.047000    3.869034    0.000010
     23          6           0       -0.335466    0.105219    0.000025
     24          8           0        0.338653    2.828504   -0.000141
     25          1           0        1.268525    1.305756    0.000138
 ---------------------------------------------------------------------

 SCF Done:  E(RwB97XD) =  -1028.81097392     A.U. after    1 cycles

 Alpha  occ. eigenvalues --  -89.09735 -19.21611 -14.52152 -10.41175 -10.37426
 Alpha  occ. eigenvalues --  -10.36116 -10.35865 -10.33174 -10.32979 -10.32494
 Alpha  occ. eigenvalues --  -10.32263 -10.31197 -10.30799 -10.30368 -10.29211
 Alpha  occ. eigenvalues --  -10.28693  -8.11821  -6.06696  -6.06318  -6.05829
 Alpha  occ. eigenvalues --   -1.12798  -1.09728  -0.98551  -0.95516  -0.93247
 Alpha  occ. eigenvalues --   -0.89205  -0.86716  -0.83747  -0.81950  -0.75579
 Alpha  occ. eigenvalues --   -0.72995  -0.72146  -0.68929  -0.67956  -0.64819
 Alpha  occ. eigenvalues --   -0.60916  -0.59711  -0.56794  -0.55833  -0.55814
 Alpha  occ. eigenvalues --   -0.55023  -0.53889  -0.52986  -0.50142  -0.49660
 Alpha  occ. eigenvalues --   -0.49024  -0.48297  -0.46765  -0.45601  -0.44803
 Alpha  occ. eigenvalues --   -0.44479  -0.42966  -0.41912  -0.40437  -0.36806
 Alpha  occ. eigenvalues --   -0.33527  -0.31918  -0.31605  -0.26441
 Alpha virt. eigenvalues --   -0.01221   0.03840   0.05780   0.06980   0.09220
 Alpha virt. eigenvalues --    0.11217   0.14155   0.14828   0.16249   0.17431
 Alpha virt. eigenvalues --    0.18507   0.20000   0.20899   0.21527   0.22844

 Mulliken charges:
               1
     1  C    0.018243
     2  C   -0.231218
     3  C    0.251213
     4  C   -0.011447
     5  C    0.008719
     6  C    0.004266
     7  H    0.024198
     8  H    0.030057
     9  H    0.026751
    10  H    0.025812
    11  N   -0.146039
    12  S    0.182281
    13  C   -0.096452
    14  C   -0.018702
    15  C    0.103052
    16  C   -0.029754
    17  H    0.012809
    18  C   -0.024601
    19  C    0.026924
    20  H    0.002489
    21  H    0.002855
    22  H    0.014037
    23  C    0.073899
    24  O   -0.390414
    25  H    0.141026
 Sum of Mulliken charges =  -0.00000

 Dipole moment (field-independent basis, Debye):
    X=              1.6963    Y=             -5.2917    Z=              0.0004  Tot=              5.5569
 Quadrupole moment (field-independent basis, Debye-Ang):
   XX=            -81.6939   YY=            -95.8069   ZZ=           -104.0028
   XY=             -6.7490   XZ=              0.0004   YZ=              0.0014

  Exact polarizability:     285.969     -86.604     284.160      -0.002       0.002      62.841
 Approx polarizability:     265.126     -31.856     255.310      -0.002       0.001      81.897

                      1                      2                      3
                      A                      A                      A
 Frequencies --     55.6342                69.2898               115.7694
 Red. masses --      5.9797                 4.6738                 5.7717
 Frc consts  --      0.0109                 0.0132                 0.0456
 IR Inten    --      1.2100                 0.8977                 1.8525

                      4                      5                      6
                      A                      A                      A
 Frequencies --    135.9474               197.8884               229.3292
 Red. masses --      5.4840                 6.2495                 5.9797
 Frc consts  --      0.0597                 0.1442                 0.1853
 IR Inten    --      1.7684                 0.0000                 0.8550

                      7                      8                      9
                      A                      A                      A
 Frequencies --    270.1103               303.8729               308.8051
 Red. masses --      7.9289                 6.7017                 5.3935
 Frc consts  --      0.3408                 0.3646                 0.3030
 IR Inten    --      8.7925                 1.6970                 0.6894

                     10                     11                     12
                      A                      A                      A
 Frequencies --    407.8166               428.6827               449.0983
 Red. masses --      9.2918                 3.2740                 3.5204
 Frc consts  --      0.9105                 0.3545                 0.4183
 IR Inten    --      3.1840                 0.0058                10.2361

                     13                     14                     15
                      A                      A                      A
 Frequencies --    510.9912               524.5412               536.2063
 Red. masses --      8.5858                 2.7159                 7.4383
 Frc consts  --      1.3209                 0.4403                 1.2600
 IR Inten    --     11.3701                 5.5919                 7.5311

                     16                     17                     18
                      A                      A                      A
 Frequencies --    551.0408               561.5614               582.4647
 Red. masses --      6.8280                 3.8489                 7.0779
 Frc consts  --      1.2215                 0.7151                 1.4148
 IR Inten    --      7.4847                 0.0414                37.7135

                     19                     20                     21
                      A                      A                      A
 Frequencies --    634.5498               652.0254               722.6373
 Red. masses --      5.4215                 5.9407                 5.9378
 Frc consts  --      1.2862                 1.4881                 1.8269
 IR Inten    --      0.6211                 3.9525                46.7047

                     22                     23                     24
                      A                      A                      A
 Frequencies --    737.9057               751.2186               759.2976
 Red. masses --      7.9056                 2.7285                 1.4439
 Frc consts  --      2.5362                 0.9072                 0.4905
 IR Inten    --     65.0857                 4.5618                66.4138

                     25                     26                     27
                      A                      A                      A
 Frequencies --    773.3383               776.8523               836.4194
 Red. masses --      1.7089                 1.9620                 5.8592
 Frc consts  --      0.6022                 0.6976                 2.4151
 IR Inten    --     16.7165                40.8592                17.0886

                     28                     29                     30
                      A                      A                      A
 Frequencies --    838.1222               866.7221               878.7683
 Red. masses --      1.1392                 4.2853                 2.0187
 Frc consts  --      0.4715                 1.8967                 0.9185
 IR Inten    --     64.5076                 5.7648                28.3204

                     31                     32                     33
                      A                      A                      A
 Frequencies --    884.6389               965.2912               966.7044
 Red. masses --      1.3724                 1.3233                 4.7375
 Frc consts  --      0.6328                 0.7265                 2.6085
 IR Inten    --      0.0487                 0.1028                33.0141

                     34                     35                     36
                      A                      A                      A
 Frequencies --    970.8751              1013.6910              1018.7541
 Red. masses --      1.3602                 1.3036                 1.3078
 Frc consts  --      0.7554                 0.7892                 0.7997
 IR Inten    --      1.3265                 0.0175                 0.3862

                     37                     38                     39
                      A                      A                      A
 Frequencies --   1041.0200              1055.3363              1091.4656
 Red. masses --      2.1755                 2.0498                 3.6186
 Frc consts  --      1.3890                 1.3451                 2.5399
 IR Inten    --     18.1767                10.6575                22.6370

                     40                     41                     42
                      A                      A                      A
 Frequencies --   1143.6509              1161.2166              1163.9100
 Red. masses --      1.9260                 1.3781                 1.2187
 Frc consts  --      1.4842                 1.0949                 0.9727
 IR Inten    --     70.5895                 2.2906                77.9932

                     43                     44                     45
                      A                      A                      A
 Frequencies --   1180.0802              1206.5738              1255.8823
 Red. masses --      1.1597                 1.3585                 2.0067
 Frc consts  --      0.9515                 1.1652                 1.8648
 IR Inten    --     16.6618                27.9285                22.4554

                     46                     47                     48
                      A                      A                      A
 Frequencies --   1288.1617              1313.4320              1356.3245
 Red. masses --      1.5758                 2.5954                 3.2649
 Frc consts  --      1.5406                 2.6379                 3.5387
 IR Inten    --     12.8818               131.0280                13.6227

                     49                     50                     51
                      A                      A                      A
 Frequencies --   1380.1749              1400.4402              1419.4357
 Red. masses --      4.3122                 4.5783                 2.6989
 Frc consts  --      4.8397                 5.2903                 3.2038
 IR Inten    --    115.9896                44.7943                22.9411

                     52                     53                     54
                      A                      A                      A
 Frequencies --   1494.7545              1506.1347              1517.5533
 Red. masses --      2.6441                 2.6065                 3.2400
 Frc consts  --      3.4807                 3.4837                 4.3963
 IR Inten    --     13.2094               119.8545                42.4222

                     55                     56                     57
                      A                      A                      A
 Frequencies --   1569.6742              1602.9675              1638.0076
 Red. masses --      4.3199                 5.7990                 8.1787
 Frc consts  --      6.2711                 8.7792                12.9290
 IR Inten    --   1817.7261               171.6436               348.4921

                     58                     59                     60
                      A                      A                      A
 Frequencies --   1667.1928              1681.3854              1714.5857
 Red. masses --      7.0610                 6.9935                 6.7339
 Frc consts  --     11.5634                11.6487                11.6637
 IR Inten    --     31.7497                72.9434               336.2880

                     61                     62                     63
                      A                      A                      A
 Frequencies --   3189.6336              3195.8493              3214.8167
 Red. masses --      1.0876                 1.0884                 1.0863
 Frc consts  --      6.5194                 6.5493                 6.6147
 IR Inten    --      2.5398                16.1394                 1.1782

                     64                     65                     66
                      A                      A                      A
 Frequencies --   3220.0395              3224.4483              3233.2118
 Red. masses --      1.0952                 1.0907                 1.0961
 Frc consts  --      6.6905                 6.6812                 6.7509
 IR Inten    --     28.4482                 2.4976                 4.0031

                     67                     68                     69
                      A                      A                      A
 Frequencies --   3234.2156              3240.2037              3289.9837
 Red. masses --      1.0976                 1.1000                 1.0850
 Frc consts  --      6.7647                 6.8044                 6.9191
 IR Inten    --     17.4866                12.5205               235.2935

 - Thermochemistry -
 -------------------
 Temperature   298.150 Kelvin.  Pressure   1.00000 Atm.
 Atom     1 has atomic number  6 and mass  12.00000

 Molecular mass:   227.04049 amu.
 Principal axes and moments of inertia in atomic units:
                           1         2         3
     Eigenvalues --  1287.210026341.875687629.08569
           X           -0.70279   0.71140   0.00001
           Y            0.71140   0.70279  -0.00000
           Z            0.00001  -0.00001   1.00000
 This molecule is an asymmetric top.
 Rotational symmetry number  1.
 Warning -- assumption of classical behavior for rotation
           may cause significant error
 Rotational temperatures (Kelvin)      0.06729     0.01366     0.01135
 Rotational constants (GHZ):           1.40206     0.28458     0.23656
 Zero-point vibrational energy     497518.7 (Joules/Mol)
                                  118.90981 (Kcal/Mol)
 Warning -- explicit consideration of  18 degrees of freedom as
           vibrations may cause significant error
 Vibrational temperatures:     80.05    99.69   166.57   195.60   284.72
          (Kelvin)            329.95   388.63   437.21   444.30   586.76
                              616.78   646.15   735.20   754.70   771.48
                              792.82   807.96   838.04   912.98   938.12
                             1039.71  1061.68  1080.84  1092.46  1112.66
                             1117.72  1203.42  1205.87  1247.02  1264.35
                             1272.80  1388.84  1390.87  1396.87  1458.48
                             1465.76  1497.80  1518.39  1570.38  1645.46
                             1670.73  1674.61  1697.87  1735.99  1806.93
                             1853.38  1889.74  1951.45  1985.76  2014.92
                             2042.25  2150.62  2166.99  2183.42  2258.41
                             2306.31  2356.73  2398.72  2419.14  2466.91
                             4589.17  4598.11  4625.40  4632.92  4639.26
                             4651.87  4653.31  4661.93  4733.55

 Zero-point correction=                           0.189495 (Hartree/Particle)
 Thermal correction to Energy=                    0.201315
 Thermal correction to Enthalpy=                  0.202259
 Thermal correction to Gibbs Free Energy=         0.150912
 Sum of electronic and zero-point Energies=          -1028.621479
 Sum of electronic and thermal Energies=             -1028.609659
 Sum of electronic and thermal Enthalpies=           -1028.608715
 Sum of electronic and thermal Free Energies=        -1028.660062

                     E (Thermal)             CV                S
                      KCal/Mol        Cal/Mol-Kelvin    Cal/Mol-Kelvin
 Total                  126.327             48.064            108.070
 Electronic               0.000              0.000              0.000
 Translational            0.889              2.981             42.162
 Rotational               0.889              2.981             32.499
 Vibrational            124.550             42.102             33.409
 Vibration     1          0.596              1.975              4.606
 Vibration     2          0.598              1.969              4.173
 Vibration     3          0.608              1.936              3.170
 Vibration     4          0.614              1.917              2.860
 Vibration     5          0.637              1.843              2.153
 Vibration     6          0.652              1.796              1.884
 Vibration     7          0.674              1.728              1.596
 Vibration     8          0.695              1.666              1.395
 Vibration     9          0.698              1.657              1.369
 Vibration    10          0.772              1.453              0.934
 Vibration    11          0.790              1.408              0.863
 Vibration    12          0.808              1.363              0.799
 Vibration    13          0.866              1.226              0.631
 Vibration    14          0.879              1.196              0.600
 Vibration    15          0.891              1.170              0.574
 Vibration    16          0.906              1.137              0.542
 Vibration    17          0.917              1.114              0.521
 Vibration    18          0.939              1.069              0.481

 Optimization completed.
    -- Stationary point found.
 Normal termination of Gaussian 16 at Wed Oct 28 00:38:32 2020.
