 Gaussian 16, Revision C.01,
 Gaussian 16:  ES64L-G16RevC.01  3-Jul-2019

 ----------------------------------------------------------------------
 #p opt=addgic freq wb97xd/cc-pvdz nosymm int=ultrafine scrf=(solvent=C
 arbonTetraChloride)
 ----------------------------------------------------------------------

 ------------------------------------------------
 NM 2D-scan of HBT TD-WB97XD pVDZ in CTC Relaxed.
 ------------------------------------------------
 Symbolic Z-matrix:
 Charge =  0 Multiplicity = 1

 SCF Done:  E(RwB97XD) =  -1028.81155434     A.U. after   15 cycles
 SCF Done:  E(RwB97XD) =  -1028.82657620     A.U. after   13 cycles
 SCF Done:  E(RwB97XD) =  -1028.82780009     A.U. after   12 cycles
 SCF Done:  E(RwB97XD) =  -1028.82789207     A.U. after   11 cycles
 SCF Done:  E(RwB97XD) =  -1028.82790039     A.U. after    9 cycles
 SCF Done:  E(RwB97XD) =  -1028.82790255     A.U. after    9 cycles
 Optimization completed.
    -- Stationary point found.
 Normal termination of Gaussian 16 at Wed Oct 28 01:25:02 2020.

 --------------------------------------------------------------------
 #P Geom=AllCheck Guess=TCheck SCRF=Check GenChk RwB97XD/CC-pVDZ Freq
 --------------------------------------------------------------------

 Structure from the checkpoint file:  "config_3_17.chk"
 ------------------------------------------------
 NM 2D-scan of HBT TD-WB97XD pVDZ in CTC Relaxed.
 ------------------------------------------------
 Charge =  0 Multiplicity = 1

                          Input orientation:
 ---------------------------------------------------------------------
 Center     Atomic      Atomic             Coordinates (Angstroms)
 Number     Number       Type             X           Y           Z
 ---------------------------------------------------------------------
      1          6           0        1.540396   -3.273741   -0.000063
      2          6           0        0.993483   -1.992761   -0.000043
      3          6           0        1.776344   -0.824782    0.000002
      4          6           0        3.173231   -0.956854    0.000027
      5          6           0        3.726163   -2.234727    0.000007
      6          6           0        2.922301   -3.385796   -0.000037
      7          1           0        0.898574   -4.155168   -0.000097
      8          1           0        3.807310   -0.069518    0.000062
      9          1           0        4.811833   -2.343358    0.000028
     10          1           0        3.385985   -4.373174   -0.000051
     11          7           0        1.022565    0.349044    0.000022
     12         16           0       -0.696226   -1.583694   -0.000060
     13          6           0       -1.303074    1.120308    0.000019
     14          6           0       -2.657965    0.760967    0.000050
     15          6           0       -0.922581    2.480080    0.000005
     16          6           0       -3.652203    1.723857    0.000066
     17          1           0       -2.936410   -0.295072    0.000068
     18          6           0       -1.942575    3.452509    0.000019
     19          6           0       -3.280416    3.073689    0.000048
     20          1           0       -4.702635    1.433033    0.000093
     21          1           0       -1.657201    4.505276    0.000002
     22          1           0       -4.051424    3.846748    0.000055
     23          6           0       -0.263116    0.102044   -0.000002
     24          8           0        0.361465    2.823898   -0.000036
     25          1           0        0.903491    1.971085   -0.000068
 ---------------------------------------------------------------------

 SCF Done:  E(RwB97XD) =  -1028.82790255     A.U. after    1 cycles

 Alpha  occ. eigenvalues --  -89.08453 -19.27904 -14.47249 -10.39318 -10.37357
 Alpha  occ. eigenvalues --  -10.35204 -10.34613 -10.32216 -10.31981 -10.31841
 Alpha  occ. eigenvalues --  -10.31835 -10.31588 -10.31522 -10.31507 -10.30304
 Alpha  occ. eigenvalues --  -10.30274  -8.10594  -6.05435  -6.05077  -6.04647
 Alpha  occ. eigenvalues --   -1.16348  -1.08891  -0.97352  -0.96321  -0.91927
 Alpha  occ. eigenvalues --   -0.88615  -0.85546  -0.84615  -0.82905  -0.75498
 Alpha  occ. eigenvalues --   -0.71592  -0.70673  -0.69414  -0.68075  -0.63328
 Alpha  occ. eigenvalues --   -0.60625  -0.58909  -0.58478  -0.56490  -0.54564
 Alpha  occ. eigenvalues --   -0.54179  -0.53313  -0.52954  -0.50815  -0.50384
 Alpha  occ. eigenvalues --   -0.49239  -0.47412  -0.45989  -0.45496  -0.45062
 Alpha  occ. eigenvalues --   -0.44073  -0.42992  -0.42544  -0.39815  -0.37206
 Alpha  occ. eigenvalues --   -0.36235  -0.32097  -0.31733  -0.29163
 Alpha virt. eigenvalues --   -0.00484   0.04835   0.06753   0.07150   0.08075
 Alpha virt. eigenvalues --    0.11373   0.14566   0.15243   0.17149   0.18079
 Alpha virt. eigenvalues --    0.18949   0.21089   0.21589   0.22571   0.22707

 Mulliken charges:
               1
     1  C    0.016302
     2  C   -0.210924
     3  C    0.217344
     4  C   -0.018736
     5  C    0.003217
     6  C    0.002685
     7  H    0.018102
     8  H    0.019811
     9  H    0.020271
    10  H    0.021416
    11  N   -0.358278
    12  S    0.149124
    13  C   -0.045370
    14  C   -0.032327
    15  C    0.070626
    16  C   -0.005515
    17  H    0.021218
    18  C    0.001497
    19  C    0.021347
    20  H    0.009629
    21  H    0.016848
    22  H    0.019097
    23  C    0.087769
    24  O   -0.215247
    25  H    0.170095
 Sum of Mulliken charges =  -0.00000

 Dipole moment (field-independent basis, Debye):
    X=             -0.1992    Y=             -2.7109    Z=             -0.0000  Tot=              2.7182
 Quadrupole moment (field-independent basis, Debye-Ang):
   XX=            -82.7082   YY=            -90.3036   ZZ=           -104.0211
   XY=             -7.2896   XZ=             -0.0001   YZ=              0.0002

  Exact polarizability:     273.180     -67.555     253.909      -0.001       0.002      62.855
 Approx polarizability:     261.371     -23.090     241.719      -0.000       0.002      82.135

                      1                      2                      3
                      A                      A                      A
 Frequencies --     17.5559                63.9585               126.9116
 Red. masses --      5.4978                 5.8097                 5.6342
 Frc consts  --      0.0010                 0.0140                 0.0535
 IR Inten    --      0.0501                 1.1793                 1.7220

                      4                      5                      6
                      A                      A                      A
 Frequencies --    151.6259               197.3327               245.1727
 Red. masses --      5.0317                 6.0842                 5.5606
 Frc consts  --      0.0682                 0.1396                 0.1969
 IR Inten    --      0.0820                 0.7874                 0.0203

                      7                      8                      9
                      A                      A                      A
 Frequencies --    277.2148               318.2712               330.1213
 Red. masses --      7.5282                 6.3529                 5.0890
 Frc consts  --      0.3409                 0.3792                 0.3268
 IR Inten    --      0.9043                 8.2537                 0.0552

                     10                     11                     12
                      A                      A                      A
 Frequencies --    419.5077               437.3087               465.6806
 Red. masses --      9.9621                 3.1033                 3.6118
 Frc consts  --      1.0330                 0.3497                 0.4615
 IR Inten    --      0.1123                 1.7046                 8.1263

                     13                     14                     15
                      A                      A                      A
 Frequencies --    517.3710               524.8200               536.8248
 Red. masses --      8.1935                 5.6770                 3.4604
 Frc consts  --      1.2922                 0.9213                 0.5876
 IR Inten    --      0.3748                11.4059                 3.5371

                     16                     17                     18
                      A                      A                      A
 Frequencies --    556.1324               576.7159               590.7773
 Red. masses --      7.4450                 3.7459                 7.6603
 Frc consts  --      1.3567                 0.7341                 1.5752
 IR Inten    --      2.5368                 0.0291                 4.4021

                     19                     20                     21
                      A                      A                      A
 Frequencies --    647.4537               681.1160               732.7643
 Red. masses --      6.1947                 6.6323                 6.5069
 Frc consts  --      1.5300                 1.8128                 2.0585
 IR Inten    --      0.0002                 3.6882                18.3670

                     22                     23                     24
                      A                      A                      A
 Frequencies --    753.4496               756.4260               766.1092
 Red. masses --     10.1761                 1.9314                 3.4145
 Frc consts  --      3.4036                 0.6511                 1.1808
 IR Inten    --     18.8111                30.6785                 0.1696

                     25                     26                     27
                      A                      A                      A
 Frequencies --    774.4384               786.4359               852.1710
 Red. masses --      1.3174                 1.9837                 5.9086
 Frc consts  --      0.4655                 0.7229                 2.5280
 IR Inten    --     60.4077                38.9965                16.5643

                     28                     29                     30
                      A                      A                      A
 Frequencies --    882.0504               887.2339               892.1729
 Red. masses --      1.5646                 1.4107                 6.6260
 Frc consts  --      0.7172                 0.6543                 3.1074
 IR Inten    --      6.0728                 0.0376                 4.4308

                     31                     32                     33
                      A                      A                      A
 Frequencies --    917.1898               967.1554               975.6183
 Red. masses --      1.0807                 1.3651                 1.3666
 Frc consts  --      0.5356                 0.7523                 0.7664
 IR Inten    --     77.3587                 0.8210                 1.8602

                     34                     35                     36
                      A                      A                      A
 Frequencies --   1006.3205              1011.2251              1015.2788
 Red. masses --      7.6567                 1.3043                 1.3055
 Frc consts  --      4.5684                 0.7858                 0.7929
 IR Inten    --     47.1322                 0.5230                 0.0289

                     37                     38                     39
                      A                      A                      A
 Frequencies --   1051.7921              1068.0262              1106.3731
 Red. masses --      1.9930                 1.8891                 3.4255
 Frc consts  --      1.2990                 1.2696                 2.4705
 IR Inten    --      8.6462                 9.8138                 5.4980

                     40                     41                     42
                      A                      A                      A
 Frequencies --   1153.5917              1158.5148              1174.8434
 Red. masses --      1.4333                 1.3778                 1.1231
 Frc consts  --      1.1238                 1.0895                 0.9133
 IR Inten    --      7.4835                 2.8698                39.0620

                     43                     44                     45
                      A                      A                      A
 Frequencies --   1183.4224              1256.4365              1282.4180
 Red. masses --      1.2580                 1.8966                 2.1454
 Frc consts  --      1.0381                 1.7641                 2.0788
 IR Inten    --      0.5203                72.0691                45.9754

                     46                     47                     48
                      A                      A                      A
 Frequencies --   1288.4918              1317.5977              1355.0733
 Red. masses --      2.3252                 2.4911                 3.7275
 Frc consts  --      2.2744                 2.5480                 4.0327
 IR Inten    --    138.7764                25.8795                25.7473

                     49                     50                     51
                      A                      A                      A
 Frequencies --   1373.4513              1379.5904              1477.9135
 Red. masses --      6.8635                 5.3568                 2.4829
 Frc consts  --      7.6282                 6.0070                 3.1953
 IR Inten    --     14.3941                12.1549                 8.4807

                     52                     53                     54
                      A                      A                      A
 Frequencies --   1489.0087              1504.3408              1535.8787
 Red. masses --      2.5587                 2.8886                 3.8807
 Frc consts  --      3.3425                 3.8516                 5.3935
 IR Inten    --     43.8502                19.4483               114.0730

                     55                     56                     57
                      A                      A                      A
 Frequencies --   1574.5916              1594.7832              1648.7142
 Red. masses --      3.6322                 2.7327                 6.8802
 Frc consts  --      5.3058                 4.0949                11.0190
 IR Inten    --    271.5821                32.5717                 5.5014

                     58                     59                     60
                      A                      A                      A
 Frequencies --   1677.7402              1685.1853              1711.0073
 Red. masses --      6.5857                 3.8017                 3.5097
 Frc consts  --     10.9220                 6.3609                 6.0538
 IR Inten    --     24.4964               162.7779               149.9907

                     61                     62                     63
                      A                      A                      A
 Frequencies --   2966.3379              3204.2473              3209.4027
 Red. masses --      1.0730                 1.0878                 1.0860
 Frc consts  --      5.5630                 6.5805                 6.5909
 IR Inten    --   1135.5649                 3.0920                 1.4113

                     64                     65                     66
                      A                      A                      A
 Frequencies --   3211.3815              3219.7649              3228.8258
 Red. masses --      1.0893                 1.0904                 1.0941
 Frc consts  --      6.6189                 6.6600                 6.7206
 IR Inten    --      6.1580                 3.0274                12.2782

                     67                     68                     69
                      A                      A                      A
 Frequencies --   3229.4926              3236.1940              3238.1928
 Red. masses --      1.0959                 1.0999                 1.0992
 Frc consts  --      6.7343                 6.7867                 6.7912
 IR Inten    --      9.5212                17.0582                14.2448

 - Thermochemistry -
 -------------------
 Temperature   298.150 Kelvin.  Pressure   1.00000 Atm.
 Atom     1 has atomic number  6 and mass  12.00000

 Molecular mass:   227.04049 amu.
 Principal axes and moments of inertia in atomic units:
                           1         2         3
     Eigenvalues --  1280.259866313.436947593.69680
           X           -0.70167   0.71250   0.00000
           Y            0.71250   0.70167  -0.00001
           Z            0.00001   0.00001   1.00000
 This molecule is an asymmetric top.
 Rotational symmetry number  1.
 Warning -- assumption of classical behavior for rotation
           may cause significant error
 Rotational temperatures (Kelvin)      0.06765     0.01372     0.01141
 Rotational constants (GHZ):           1.40967     0.28586     0.23766
 Zero-point vibrational energy     499145.1 (Joules/Mol)
                                  119.29853 (Kcal/Mol)
 Warning -- explicit consideration of  18 degrees of freedom as
           vibrations may cause significant error
 Vibrational temperatures:     25.26    92.02   182.60   218.16   283.92
          (Kelvin)            352.75   398.85   457.92   474.97   603.58
                              629.19   670.01   744.38   755.10   772.37
                              800.15   829.77   850.00   931.54   979.97
                             1054.28  1084.05  1088.33  1102.26  1114.24
                             1131.51  1226.08  1269.07  1276.53  1283.64
                             1319.63  1391.52  1403.70  1447.87  1454.93
                             1460.76  1513.29  1536.65  1591.82  1659.76
                             1666.84  1690.34  1702.68  1807.73  1845.11
                             1853.85  1895.73  1949.65  1976.09  1984.92
                             2126.39  2142.35  2164.41  2209.79  2265.49
                             2294.54  2372.13  2413.89  2424.61  2461.76
                             4267.90  4610.20  4617.61  4620.46  4632.52
                             4645.56  4646.52  4656.16  4659.04

 Zero-point correction=                           0.190114 (Hartree/Particle)
 Thermal correction to Energy=                    0.201768
 Thermal correction to Enthalpy=                  0.202712
 Thermal correction to Gibbs Free Energy=         0.150756
 Sum of electronic and zero-point Energies=          -1028.637788
 Sum of electronic and thermal Energies=             -1028.626134
 Sum of electronic and thermal Enthalpies=           -1028.625190
 Sum of electronic and thermal Free Energies=        -1028.677147

                     E (Thermal)             CV                S
                      KCal/Mol        Cal/Mol-Kelvin    Cal/Mol-Kelvin
 Total                  126.611             47.277            109.352
 Electronic               0.000              0.000              0.000
 Translational            0.889              2.981             42.162
 Rotational               0.889              2.981             32.484
 Vibrational            124.834             41.316             34.706
 Vibration     1          0.593              1.986              6.893
 Vibration     2          0.597              1.972              4.331
 Vibration     3          0.611              1.926              2.992
 Vibration     4          0.619              1.901              2.652
 Vibration     5          0.637              1.844              2.158
 Vibration     6          0.660              1.771              1.765
 Vibration     7          0.678              1.716              1.551
 Vibration     8          0.705              1.639              1.319
 Vibration     9          0.713              1.615              1.259
 Vibration    10          0.782              1.428              0.894
 Vibration    11          0.798              1.389              0.835
 Vibration    12          0.823              1.326              0.750
 Vibration    13          0.872              1.212              0.616
 Vibration    14          0.880              1.195              0.599
 Vibration    15          0.892              1.169              0.572
 Vibration    16          0.912              1.126              0.532
 Vibration    17          0.933              1.082              0.491
 Vibration    18          0.948              1.051              0.466

 Optimization completed.
    -- Stationary point found.
 Normal termination of Gaussian 16 at Wed Oct 28 01:31:31 2020.
