 Gaussian 16, Revision C.01,
 Gaussian 16:  ES64L-G16RevC.01  3-Jul-2019

 ----------------------------------------------------------------------
 #p opt=addgic freq wb97xd/cc-pvdz nosymm int=ultrafine scrf=(solvent=C
 arbonTetraChloride)
 ----------------------------------------------------------------------

 ------------------------------------------------
 NM 2D-scan of HBT TD-WB97XD pVDZ in CTC Relaxed.
 ------------------------------------------------
 Symbolic Z-matrix:
 Charge =  0 Multiplicity = 1

 SCF Done:  E(RwB97XD) =  -1028.81054372     A.U. after   15 cycles
 SCF Done:  E(RwB97XD) =  -1028.81636313     A.U. after   13 cycles
 SCF Done:  E(RwB97XD) =  -1028.81773148     A.U. after   13 cycles
 SCF Done:  E(RwB97XD) =  -1028.81813919     A.U. after   12 cycles
 SCF Done:  E(RwB97XD) =  -1028.81830594     A.U. after   12 cycles
 SCF Done:  E(RwB97XD) =  -1028.81834158     A.U. after   11 cycles
 SCF Done:  E(RwB97XD) =  -1028.81834359     A.U. after    9 cycles
 Optimization completed.
    -- Stationary point found.
 Normal termination of Gaussian 16 at Tue Oct 27 21:51:54 2020.

 --------------------------------------------------------------------
 #P Geom=AllCheck Guess=TCheck SCRF=Check GenChk RwB97XD/CC-pVDZ Freq
 --------------------------------------------------------------------

 Structure from the checkpoint file:  "config_7_6.chk"
 ------------------------------------------------
 NM 2D-scan of HBT TD-WB97XD pVDZ in CTC Relaxed.
 ------------------------------------------------
 Charge =  0 Multiplicity = 1

                          Input orientation:
 ---------------------------------------------------------------------
 Center     Atomic      Atomic             Coordinates (Angstroms)
 Number     Number       Type             X           Y           Z
 ---------------------------------------------------------------------
      1          6           0        1.686318   -3.254628   -0.000034
      2          6           0        1.006781   -2.037558   -0.000024
      3          6           0        1.698519   -0.821478   -0.000011
      4          6           0        3.096588   -0.794850   -0.000008
      5          6           0        3.773149   -2.008245   -0.000018
      6          6           0        3.076286   -3.225632   -0.000031
      7          1           0        1.145292   -4.201010   -0.000046
      8          1           0        3.627849    0.157152    0.000002
      9          1           0        4.863948   -2.013949   -0.000016
     10          1           0        3.630381   -4.165120   -0.000040
     11          7           0        0.847733    0.262545   -0.000003
     12         16           0       -0.730444   -1.743245   -0.000029
     13          6           0       -1.397826    1.059009    0.000012
     14          6           0       -2.786679    0.861993    0.000011
     15          6           0       -0.845143    2.382472    0.000029
     16          6           0       -3.660402    1.937526    0.000030
     17          1           0       -3.180188   -0.158138   -0.000003
     18          6           0       -1.766920    3.462174    0.000046
     19          6           0       -3.133641    3.239482    0.000047
     20          1           0       -4.738080    1.774029    0.000031
     21          1           0       -1.360099    4.474418    0.000058
     22          1           0       -3.813371    4.094510    0.000061
     23          6           0       -0.434553   -0.025210   -0.000004
     24          8           0        0.442469    2.579895    0.000023
     25          1           0        0.911797    1.544487    0.000007
 ---------------------------------------------------------------------

 SCF Done:  E(RwB97XD) =  -1028.81834359     A.U. after    1 cycles

 Alpha  occ. eigenvalues --  -89.09452 -19.24782 -14.48085 -10.40188 -10.36722
 Alpha  occ. eigenvalues --  -10.35772 -10.35332 -10.32781 -10.32243 -10.31996
 Alpha  occ. eigenvalues --  -10.31941 -10.31595 -10.31545 -10.31052 -10.29681
 Alpha  occ. eigenvalues --  -10.29418  -8.11482  -6.06344  -6.05975  -6.05523
 Alpha  occ. eigenvalues --   -1.14477  -1.09788  -0.97738  -0.95673  -0.92297
 Alpha  occ. eigenvalues --   -0.88847  -0.85783  -0.84039  -0.82885  -0.75716
 Alpha  occ. eigenvalues --   -0.71626  -0.70692  -0.69006  -0.68486  -0.63497
 Alpha  occ. eigenvalues --   -0.60845  -0.59315  -0.57724  -0.56014  -0.54925
 Alpha  occ. eigenvalues --   -0.54552  -0.53537  -0.52439  -0.51084  -0.49862
 Alpha  occ. eigenvalues --   -0.49716  -0.47280  -0.46340  -0.45213  -0.45188
 Alpha  occ. eigenvalues --   -0.44090  -0.43084  -0.42191  -0.40322  -0.36363
 Alpha  occ. eigenvalues --   -0.34942  -0.32773  -0.31535  -0.28104
 Alpha virt. eigenvalues --   -0.00753   0.04373   0.06715   0.07314   0.07948
 Alpha virt. eigenvalues --    0.11069   0.13943   0.14950   0.16267   0.17782
 Alpha virt. eigenvalues --    0.19131   0.20726   0.21714   0.22263   0.22781

 Mulliken charges:
               1
     1  C    0.012723
     2  C   -0.235455
     3  C    0.270857
     4  C   -0.010900
     5  C    0.008138
     6  C    0.002483
     7  H    0.021678
     8  H    0.025574
     9  H    0.023485
    10  H    0.023818
    11  N   -0.295012
    12  S    0.167955
    13  C   -0.098664
    14  C   -0.015028
    15  C    0.103352
    16  C   -0.019022
    17  H    0.006883
    18  C   -0.009093
    19  C    0.023008
    20  H    0.006437
    21  H    0.009401
    22  H    0.016024
    23  C    0.077182
    24  O   -0.307841
    25  H    0.192015
 Sum of Mulliken charges =  -0.00000

 Dipole moment (field-independent basis, Debye):
    X=              0.7119    Y=             -3.7272    Z=             -0.0000  Tot=              3.7946
 Quadrupole moment (field-independent basis, Debye-Ang):
   XX=            -82.7163   YY=            -91.5477   ZZ=           -104.0081
   XY=             -7.1228   XZ=             -0.0001   YZ=              0.0002

  Exact polarizability:     278.427     -72.182     262.909      -0.001       0.002      62.928
 Approx polarizability:     264.412     -25.971     246.416      -0.000       0.002      82.175

 ******    1 imaginary frequencies (negative Signs) ******

                      1                      2                      3
                      A                      A                      A
 Frequencies --   -390.7432                33.3164                65.7059
 Red. masses --      1.4354                 5.2158                 6.1863
 Frc consts  --      0.1291                 0.0034                 0.0157
 IR Inten    --   1077.6846                 0.0333                 1.5531

                      4                      5                      6
                      A                      A                      A
 Frequencies --    147.8116               152.9990               198.5087
 Red. masses --      5.5047                 5.0903                 6.0020
 Frc consts  --      0.0709                 0.0702                 0.1393
 IR Inten    --     17.5580                 0.4337                 0.2695

                      7                      8                      9
                      A                      A                      A
 Frequencies --    243.2157               277.7491               324.4179
 Red. masses --      5.8471                 6.9277                 5.2382
 Frc consts  --      0.2038                 0.3149                 0.3248
 IR Inten    --      0.2360                11.1653                 0.4439

                     10                     11                     12
                      A                      A                      A
 Frequencies --    398.3694               427.0260               434.9717
 Red. masses --      5.8900                 8.8848                 3.1333
 Frc consts  --      0.5507                 0.9546                 0.3493
 IR Inten    --     28.8924                34.3869                 1.8849

                     13                     14                     15
                      A                      A                      A
 Frequencies --    459.4222               516.6988               539.6583
 Red. masses --      3.6283                 8.7109                 3.3661
 Frc consts  --      0.4512                 1.3702                 0.5776
 IR Inten    --      8.6402                 4.1872                 3.8026

                     16                     17                     18
                      A                      A                      A
 Frequencies --    559.7537               572.5911               586.0622
 Red. masses --      7.8727                 3.6543                 7.9470
 Frc consts  --      1.4533                 0.7059                 1.6082
 IR Inten    --     12.5972                 0.1296                 2.0643

                     19                     20                     21
                      A                      A                      A
 Frequencies --    649.1609               682.1764               708.6052
 Red. masses --      6.5136                 5.9356                 6.5209
 Frc consts  --      1.6172                 1.6274                 1.9291
 IR Inten    --      0.0122               110.0968                77.5637

                     22                     23                     24
                      A                      A                      A
 Frequencies --    750.6294               754.7075               768.3186
 Red. masses --      4.9708                 2.2401                 1.8996
 Frc consts  --      1.6502                 0.7518                 0.6607
 IR Inten    --    154.8225                19.4825                22.3561

                     25                     26                     27
                      A                      A                      A
 Frequencies --    775.0119               776.2069               783.1304
 Red. masses --      9.3132                 1.8919                 1.7484
 Frc consts  --      3.2958                 0.6716                 0.6318
 IR Inten    --     32.7966                43.6607                41.2053

                     28                     29                     30
                      A                      A                      A
 Frequencies --    853.6407               881.0363               886.1438
 Red. masses --      6.0833                 1.6232                 1.3980
 Frc consts  --      2.6118                 0.7423                 0.6468
 IR Inten    --     24.2111                 6.4047                 0.3760

                     31                     32                     33
                      A                      A                      A
 Frequencies --    934.3789               968.5887               975.5622
 Red. masses --      7.0026                 1.3489                 1.3604
 Frc consts  --      3.6021                 0.7456                 0.7628
 IR Inten    --     36.8706                 0.9684                 1.1826

                     34                     35                     36
                      A                      A                      A
 Frequencies --   1010.9831              1012.4192              1016.7068
 Red. masses --      1.3013                 7.3679                 1.3048
 Frc consts  --      0.7837                 4.4495                 0.7947
 IR Inten    --      0.2491                 6.9890                 0.0004

                     37                     38                     39
                      A                      A                      A
 Frequencies --   1054.4909              1062.0136              1101.1733
 Red. masses --      2.0212                 1.9276                 3.8289
 Frc consts  --      1.3242                 1.2809                 2.7355
 IR Inten    --      6.6738                11.2728                 4.9846

                     40                     41                     42
                      A                      A                      A
 Frequencies --   1150.5666              1156.1954              1162.6810
 Red. masses --      1.4707                 1.3136                 1.0585
 Frc consts  --      1.1471                 1.0346                 0.8431
 IR Inten    --     11.7696                 0.9048                67.9199

                     43                     44                     45
                      A                      A                      A
 Frequencies --   1174.8688              1185.5604              1258.6037
 Red. masses --      1.0857                 1.1770                 1.9370
 Frc consts  --      0.8829                 0.9747                 1.8078
 IR Inten    --    101.3624                 2.6700                70.3597

                     46                     47                     48
                      A                      A                      A
 Frequencies --   1289.4447              1317.7991              1361.0933
 Red. masses --      1.5249                 3.0435                 4.3664
 Frc consts  --      1.4938                 3.1140                 4.7659
 IR Inten    --     10.1114               335.4715                 3.7986

                     49                     50                     51
                      A                      A                      A
 Frequencies --   1379.9646              1385.8370              1398.8000
 Red. masses --      5.8197                 4.5801                 2.4291
 Frc consts  --      6.5296                 5.1826                 2.8003
 IR Inten    --      1.7055                28.5364                18.2522

                     52                     53                     54
                      A                      A                      A
 Frequencies --   1493.7883              1502.3457              1524.0328
 Red. masses --      2.8029                 2.8313                 3.7956
 Frc consts  --      3.6850                 3.7651                 5.1942
 IR Inten    --     17.9873                28.2736                29.4815

                     55                     56                     57
                      A                      A                      A
 Frequencies --   1573.9403              1584.4172              1615.5070
 Red. masses --      6.8229                 4.0834                 5.7518
 Frc consts  --      9.9585                 6.0397                 8.8445
 IR Inten    --    956.1897               452.6331               235.2813

                     58                     59                     60
                      A                      A                      A
 Frequencies --   1661.6668              1685.5446              1710.5090
 Red. masses --      7.0465                 6.7582                 6.3686
 Frc consts  --     11.4634                11.3125                10.9786
 IR Inten    --      5.0721                24.5757               198.2007

                     61                     62                     63
                      A                      A                      A
 Frequencies --   1891.7862              3188.5239              3200.1405
 Red. masses --      1.1007                 1.0896                 1.0884
 Frc consts  --      2.3210                 6.5267                 6.5672
 IR Inten    --     86.0592                 4.1891                 8.4529

                     64                     65                     66
                      A                      A                      A
 Frequencies --   3214.5403              3223.7916              3225.8798
 Red. masses --      1.0865                 1.0940                 1.0909
 Frc consts  --      6.6150                 6.6986                 6.6884
 IR Inten    --      2.2542                15.0471                 3.4960

                     67                     68                     69
                      A                      A                      A
 Frequencies --   3234.4646              3236.6385              3242.1313
 Red. masses --      1.0978                 1.0960                 1.0996
 Frc consts  --      6.7664                 6.7649                 6.8101
 IR Inten    --     18.5435                 7.9129                11.4228

 - Thermochemistry -
 -------------------
 Temperature   298.150 Kelvin.  Pressure   1.00000 Atm.
 Atom     1 has atomic number  6 and mass  12.00000

 Molecular mass:   227.04049 amu.
 Principal axes and moments of inertia in atomic units:
                           1         2         3
     Eigenvalues --  1298.153896250.687427548.84130
           X           -0.70666   0.70755  -0.00000
           Y            0.70755   0.70666  -0.00001
           Z            0.00001   0.00001   1.00000
 This molecule is an asymmetric top.
 Rotational symmetry number  1.
 Warning -- assumption of classical behavior for rotation
           may cause significant error
 Rotational temperatures (Kelvin)      0.06672     0.01386     0.01147
 Rotational constants (GHZ):           1.39024     0.28873     0.23908
    1 imaginary frequencies ignored.
 Zero-point vibrational energy     487923.4 (Joules/Mol)
                                  116.61650 (Kcal/Mol)
 Warning -- explicit consideration of  17 degrees of freedom as
           vibrations may cause significant error
 Vibrational temperatures:     47.93    94.54   212.67   220.13   285.61
          (Kelvin)            349.93   399.62   466.76   573.16   614.40
                              625.83   661.01   743.41   776.45   805.36
                              823.83   843.21   934.00   981.50  1019.52
                             1079.99  1085.86  1105.44  1115.07  1116.79
                             1126.75  1228.20  1267.61  1274.96  1344.36
                             1393.58  1403.62  1454.58  1456.65  1462.81
                             1517.18  1528.00  1584.34  1655.41  1663.51
                             1672.84  1690.37  1705.76  1810.85  1855.22
                             1896.02  1958.31  1985.46  1993.91  2012.56
                             2149.23  2161.54  2192.74  2264.55  2279.62
                             2324.35  2390.77  2425.12  2461.04  2721.86
                             4587.57  4604.29  4625.01  4638.32  4641.32
                             4653.67  4656.80  4664.70

 Zero-point correction=                           0.185840 (Hartree/Particle)
 Thermal correction to Energy=                    0.197179
 Thermal correction to Enthalpy=                  0.198123
 Thermal correction to Gibbs Free Energy=         0.147318
 Sum of electronic and zero-point Energies=          -1028.632503
 Sum of electronic and thermal Energies=             -1028.621165
 Sum of electronic and thermal Enthalpies=           -1028.620221
 Sum of electronic and thermal Free Energies=        -1028.671026

                     E (Thermal)             CV                S
                      KCal/Mol        Cal/Mol-Kelvin    Cal/Mol-Kelvin
 Total                  123.731             46.238            106.928
 Electronic               0.000              0.000              0.000
 Translational            0.889              2.981             42.162
 Rotational               0.889              2.981             32.482
 Vibrational            121.954             40.277             32.284
 Vibration     1          0.594              1.983              5.621
 Vibration     2          0.597              1.971              4.278
 Vibration     3          0.617              1.905              2.700
 Vibration     4          0.619              1.899              2.635
 Vibration     5          0.637              1.842              2.147
 Vibration     6          0.659              1.774              1.779
 Vibration     7          0.679              1.715              1.547
 Vibration     8          0.709              1.627              1.288
 Vibration     9          0.765              1.474              0.969
 Vibration    10          0.789              1.411              0.868
 Vibration    11          0.796              1.394              0.843
 Vibration    12          0.817              1.340              0.768
 Vibration    13          0.872              1.213              0.618
 Vibration    14          0.895              1.162              0.566
 Vibration    15          0.915              1.118              0.524
 Vibration    16          0.929              1.091              0.499
 Vibration    17          0.943              1.062              0.474

 Optimization completed.
    -- Stationary point found.
 Normal termination of Gaussian 16 at Tue Oct 27 21:58:06 2020.
