 Gaussian 16, Revision C.01,
 Gaussian 16:  ES64L-G16RevC.01  3-Jul-2019

 ----------------------------------------------------------------------
 #p opt=addgic freq wb97xd/cc-pvdz nosymm int=ultrafine scrf=(solvent=C
 arbonTetraChloride)
 ----------------------------------------------------------------------

 ------------------------------------------------
 NM 2D-scan of HBT TD-WB97XD pVDZ in CTC Relaxed.
 ------------------------------------------------
 Symbolic Z-matrix:
 Charge =  0 Multiplicity = 1

 SCF Done:  E(RwB97XD) =  -1028.77651355     A.U. after   16 cycles
 SCF Done:  E(RwB97XD) =  -1028.80431512     A.U. after   14 cycles
 SCF Done:  E(RwB97XD) =  -1028.80859190     A.U. after   13 cycles
 SCF Done:  E(RwB97XD) =  -1028.80924166     A.U. after   12 cycles
 SCF Done:  E(RwB97XD) =  -1028.80929784     A.U. after   10 cycles
 SCF Done:  E(RwB97XD) =  -1028.80930735     A.U. after   10 cycles
 SCF Done:  E(RwB97XD) =  -1028.80930800     A.U. after    9 cycles
 Optimization completed.
    -- Stationary point found.
 Normal termination of Gaussian 16 at Wed Oct 28 01:05:22 2020.

 --------------------------------------------------------------------
 #P Geom=AllCheck Guess=TCheck SCRF=Check GenChk RwB97XD/CC-pVDZ Freq
 --------------------------------------------------------------------

 Structure from the checkpoint file:  "config_9_18.chk"
 ------------------------------------------------
 NM 2D-scan of HBT TD-WB97XD pVDZ in CTC Relaxed.
 ------------------------------------------------
 Charge =  0 Multiplicity = 1

                          Input orientation:
 ---------------------------------------------------------------------
 Center     Atomic      Atomic             Coordinates (Angstroms)
 Number     Number       Type             X           Y           Z
 ---------------------------------------------------------------------
      1          6           0        1.527840   -3.271453   -0.000123
      2          6           0        0.993025   -1.988552   -0.000051
      3          6           0        1.796224   -0.840829    0.000042
      4          6           0        3.186679   -0.973060    0.000070
      5          6           0        3.726023   -2.259922   -0.000006
      6          6           0        2.911936   -3.399297   -0.000102
      7          1           0        0.876914   -4.146032   -0.000192
      8          1           0        3.830531   -0.093144    0.000146
      9          1           0        4.810529   -2.376691    0.000012
     10          1           0        3.363795   -4.391703   -0.000157
     11          7           0        1.020024    0.319519    0.000107
     12         16           0       -0.704605   -1.566633   -0.000043
     13          6           0       -1.297041    1.128402    0.000063
     14          6           0       -2.672818    0.751224    0.000106
     15          6           0       -0.889421    2.525303    0.000037
     16          6           0       -3.663919    1.688575    0.000109
     17          1           0       -2.940204   -0.308877    0.000149
     18          6           0       -1.991520    3.473973   -0.000057
     19          6           0       -3.298570    3.067944    0.000016
     20          1           0       -4.713296    1.394326    0.000154
     21          1           0       -1.729177    4.533601   -0.000185
     22          1           0       -4.090576    3.821363   -0.000020
     23          6           0       -0.310515    0.129347    0.000044
     24          8           0        0.318244    2.870290   -0.000229
     25          1           0        1.316332    1.307105    0.000211
 ---------------------------------------------------------------------

 SCF Done:  E(RwB97XD) =  -1028.80930800     A.U. after    1 cycles

 Alpha  occ. eigenvalues --  -89.09647 -19.21539 -14.52397 -10.41198 -10.37524
 Alpha  occ. eigenvalues --  -10.36090 -10.35830 -10.33155 -10.33037 -10.32511
 Alpha  occ. eigenvalues --  -10.32271 -10.31167 -10.30806 -10.30310 -10.29212
 Alpha  occ. eigenvalues --  -10.28697  -8.11753  -6.06627  -6.06248  -6.05758
 Alpha  occ. eigenvalues --   -1.12727  -1.09701  -0.98579  -0.95593  -0.93261
 Alpha  occ. eigenvalues --   -0.89192  -0.86778  -0.83699  -0.81929  -0.75537
 Alpha  occ. eigenvalues --   -0.73128  -0.72191  -0.68937  -0.67939  -0.64860
 Alpha  occ. eigenvalues --   -0.60920  -0.59707  -0.56807  -0.55864  -0.55835
 Alpha  occ. eigenvalues --   -0.55029  -0.53956  -0.52974  -0.50052  -0.49626
 Alpha  occ. eigenvalues --   -0.49002  -0.48306  -0.46783  -0.45626  -0.44810
 Alpha  occ. eigenvalues --   -0.44470  -0.42903  -0.41934  -0.40415  -0.36823
 Alpha  occ. eigenvalues --   -0.33552  -0.31800  -0.31594  -0.26394
 Alpha virt. eigenvalues --   -0.01232   0.03832   0.05705   0.07063   0.09268
 Alpha virt. eigenvalues --    0.11247   0.14220   0.14873   0.16269   0.17448
 Alpha virt. eigenvalues --    0.18314   0.19920   0.20812   0.21497   0.22695

 Mulliken charges:
               1
     1  C    0.019245
     2  C   -0.228591
     3  C    0.247198
     4  C   -0.012099
     5  C    0.008110
     6  C    0.004819
     7  H    0.024027
     8  H    0.029849
     9  H    0.026804
    10  H    0.025849
    11  N   -0.147392
    12  S    0.181278
    13  C   -0.090229
    14  C   -0.020908
    15  C    0.098364
    16  C   -0.029606
    17  H    0.014969
    18  C   -0.026687
    19  C    0.027327
    20  H    0.002417
    21  H    0.002861
    22  H    0.014096
    23  C    0.074886
    24  O   -0.384730
    25  H    0.138141
 Sum of Mulliken charges =  -0.00000

 Dipole moment (field-independent basis, Debye):
    X=              1.7571    Y=             -5.3643    Z=              0.0006  Tot=              5.6447
 Quadrupole moment (field-independent basis, Debye-Ang):
   XX=            -81.5009   YY=            -96.2296   ZZ=           -103.9996
   XY=             -6.6412   XZ=              0.0007   YZ=              0.0021

  Exact polarizability:     286.028     -87.110     284.705      -0.002       0.001      62.824
 Approx polarizability:     264.896     -31.883     255.349      -0.002       0.001      81.872

                      1                      2                      3
                      A                      A                      A
 Frequencies --     55.3906                64.0633               110.6671
 Red. masses --      6.2601                 4.5046                 5.8151
 Frc consts  --      0.0113                 0.0109                 0.0420
 IR Inten    --      1.4138                 0.6714                 1.9603

                      4                      5                      6
                      A                      A                      A
 Frequencies --    134.4558               197.1138               228.2130
 Red. masses --      5.5148                 6.2446                 5.9077
 Frc consts  --      0.0587                 0.1430                 0.1813
 IR Inten    --      1.9252                 0.0014                 0.8862

                      7                      8                      9
                      A                      A                      A
 Frequencies --    265.2407               298.9913               308.6186
 Red. masses --      7.9943                 6.7183                 5.3896
 Frc consts  --      0.3314                 0.3539                 0.3024
 IR Inten    --      8.5149                 1.0068                 0.6336

                     10                     11                     12
                      A                      A                      A
 Frequencies --    407.4805               428.1344               448.6055
 Red. masses --      8.9841                 3.2846                 3.4969
 Frc consts  --      0.8789                 0.3547                 0.4146
 IR Inten    --      3.3386                 0.0068                10.1778

                     13                     14                     15
                      A                      A                      A
 Frequencies --    511.4840               522.7346               533.8239
 Red. masses --      8.5218                 2.6764                 7.0889
 Frc consts  --      1.3135                 0.4309                 1.1902
 IR Inten    --     11.5547                 5.7846                 6.5755

                     16                     17                     18
                      A                      A                      A
 Frequencies --    549.1227               561.2326               581.9306
 Red. masses --      7.0414                 3.8626                 7.1285
 Frc consts  --      1.2510                 0.7168                 1.4223
 IR Inten    --     10.6167                 0.0694                37.5738

                     19                     20                     21
                      A                      A                      A
 Frequencies --    632.9458               651.8698               723.9626
 Red. masses --      5.1547                 6.0084                 5.8531
 Frc consts  --      1.2167                 1.5043                 1.8075
 IR Inten    --      0.9791                 3.8250                61.0886

                     22                     23                     24
                      A                      A                      A
 Frequencies --    737.8019               750.7039               757.9201
 Red. masses --      7.7121                 2.7721                 1.4397
 Frc consts  --      2.4735                 0.9204                 0.4873
 IR Inten    --     56.6788                 1.0098                76.2849

                     25                     26                     27
                      A                      A                      A
 Frequencies --    770.2605               776.3862               812.3046
 Red. masses --      1.6451                 1.8111                 1.2378
 Frc consts  --      0.5751                 0.6432                 0.4812
 IR Inten    --     19.3510                42.5856                61.1638

                     28                     29                     30
                      A                      A                      A
 Frequencies --    836.0577               865.7874               878.0950
 Red. masses --      5.9991                 4.3244                 2.0575
 Frc consts  --      2.4706                 1.9098                 0.9347
 IR Inten    --     17.2882                 4.9984                23.1834

                     31                     32                     33
                      A                      A                      A
 Frequencies --    884.9444               963.8685               966.9270
 Red. masses --      1.3694                 1.3250                 4.6881
 Frc consts  --      0.6319                 0.7253                 2.5825
 IR Inten    --      0.0942                 0.0788                32.5571

                     34                     35                     36
                      A                      A                      A
 Frequencies --    970.7117              1013.4264              1019.0921
 Red. masses --      1.3603                 1.3034                 1.3082
 Frc consts  --      0.7552                 0.7887                 0.8005
 IR Inten    --      1.3530                 0.0147                 0.3842

                     37                     38                     39
                      A                      A                      A
 Frequencies --   1039.4597              1055.1578              1093.9840
 Red. masses --      2.1721                 2.0410                 3.5475
 Frc consts  --      1.3828                 1.3388                 2.5015
 IR Inten    --     18.3870                10.7395                22.3782

                     40                     41                     42
                      A                      A                      A
 Frequencies --   1145.1401              1161.9436              1164.6916
 Red. masses --      1.8907                 1.3134                 1.2753
 Frc consts  --      1.4608                 1.0448                 1.0192
 IR Inten    --     57.6775                18.0474                68.9400

                     43                     44                     45
                      A                      A                      A
 Frequencies --   1179.9489              1206.5257              1252.3150
 Red. masses --      1.1672                 1.3704                 2.0402
 Frc consts  --      0.9575                 1.1754                 1.8852
 IR Inten    --     17.6123                31.1127                24.7859

                     46                     47                     48
                      A                      A                      A
 Frequencies --   1286.7586              1308.5539              1352.9592
 Red. masses --      1.6267                 2.5418                 3.1234
 Frc consts  --      1.5869                 2.5643                 3.3685
 IR Inten    --     15.9989               127.5235                13.7954

                     49                     50                     51
                      A                      A                      A
 Frequencies --   1379.6753              1400.0062              1418.4162
 Red. masses --      4.4467                 4.3405                 2.6474
 Frc consts  --      4.9871                 5.0124                 3.1382
 IR Inten    --    123.5906                55.4576                24.0516

                     52                     53                     54
                      A                      A                      A
 Frequencies --   1494.4705              1505.6202              1516.4731
 Red. masses --      2.6139                 2.6183                 3.2114
 Frc consts  --      3.4396                 3.4970                 4.3512
 IR Inten    --      9.1784               121.5533                29.0531

                     55                     56                     57
                      A                      A                      A
 Frequencies --   1568.4367              1603.0543              1643.0233
 Red. masses --      4.4789                 6.1683                 8.1725
 Frc consts  --      6.4916                 9.3392                12.9985
 IR Inten    --   1934.0481               155.7201               316.7410

                     58                     59                     60
                      A                      A                      A
 Frequencies --   1666.9997              1681.1805              1715.5491
 Red. masses --      7.0769                 6.9977                 6.8240
 Frc consts  --     11.5868                11.6530                11.8330
 IR Inten    --     27.5236                59.0925               358.2469

                     61                     62                     63
                      A                      A                      A
 Frequencies --   3192.0143              3195.7899              3214.0268
 Red. masses --      1.0866                 1.0893                 1.0863
 Frc consts  --      6.5227                 6.5545                 6.6117
 IR Inten    --      2.8781                14.7655                 1.1647

                     64                     65                     66
                      A                      A                      A
 Frequencies --   3219.4650              3223.5622              3231.9861
 Red. masses --      1.0952                 1.0906                 1.0961
 Frc consts  --      6.6884                 6.6771                 6.7458
 IR Inten    --     29.2513                 2.3279                 4.8337

                     67                     68                     69
                      A                      A                      A
 Frequencies --   3234.9972              3239.6157              3359.5596
 Red. masses --      1.0976                 1.1000                 1.0840
 Frc consts  --      6.7680                 6.8021                 7.2082
 IR Inten    --     16.9223                12.0379               197.3072

 - Thermochemistry -
 -------------------
 Temperature   298.150 Kelvin.  Pressure   1.00000 Atm.
 Atom     1 has atomic number  6 and mass  12.00000

 Molecular mass:   227.04049 amu.
 Principal axes and moments of inertia in atomic units:
                           1         2         3
     Eigenvalues --  1283.512896356.532717640.04559
           X           -0.70208   0.71210   0.00001
           Y            0.71210   0.70208   0.00000
           Z            0.00001  -0.00001   1.00000
 This molecule is an asymmetric top.
 Rotational symmetry number  1.
 Warning -- assumption of classical behavior for rotation
           may cause significant error
 Rotational temperatures (Kelvin)      0.06748     0.01363     0.01134
 Rotational constants (GHZ):           1.40610     0.28392     0.23622
 Zero-point vibrational energy     497477.4 (Joules/Mol)
                                  118.89996 (Kcal/Mol)
 Warning -- explicit consideration of  18 degrees of freedom as
           vibrations may cause significant error
 Vibrational temperatures:     79.69    92.17   159.23   193.45   283.60
          (Kelvin)            328.35   381.62   430.18   444.03   586.27
                              615.99   645.44   735.91   752.10   768.05
                              790.07   807.49   837.27   910.67   937.90
                             1041.62  1061.53  1080.10  1090.48  1108.23
                             1117.05  1168.73  1202.90  1245.67  1263.38
                             1273.24  1386.79  1391.19  1396.64  1458.09
                             1466.25  1495.55  1518.14  1574.00  1647.60
                             1671.78  1675.73  1697.68  1735.92  1801.80
                             1851.36  1882.72  1946.61  1985.04  2014.30
                             2040.78  2150.21  2166.25  2181.87  2256.63
                             2306.44  2363.94  2398.44  2418.84  2468.29
                             4592.60  4598.03  4624.27  4632.09  4637.99
                             4650.11  4654.44  4661.08  4833.66

 Zero-point correction=                           0.189479 (Hartree/Particle)
 Thermal correction to Energy=                    0.201354
 Thermal correction to Enthalpy=                  0.202298
 Thermal correction to Gibbs Free Energy=         0.150763
 Sum of electronic and zero-point Energies=          -1028.619829
 Sum of electronic and thermal Energies=             -1028.607954
 Sum of electronic and thermal Enthalpies=           -1028.607010
 Sum of electronic and thermal Free Energies=        -1028.658545

                     E (Thermal)             CV                S
                      KCal/Mol        Cal/Mol-Kelvin    Cal/Mol-Kelvin
 Total                  126.351             48.170            108.464
 Electronic               0.000              0.000              0.000
 Translational            0.889              2.981             42.162
 Rotational               0.889              2.981             32.500
 Vibrational            124.574             42.209             33.803
 Vibration     1          0.596              1.975              4.615
 Vibration     2          0.597              1.971              4.328
 Vibration     3          0.606              1.941              3.257
 Vibration     4          0.613              1.919              2.881
 Vibration     5          0.636              1.844              2.160
 Vibration     6          0.651              1.798              1.893
 Vibration     7          0.671              1.737              1.627
 Vibration     8          0.692              1.676              1.423
 Vibration     9          0.698              1.657              1.370
 Vibration    10          0.772              1.454              0.936
 Vibration    11          0.790              1.409              0.865
 Vibration    12          0.808              1.364              0.800
 Vibration    13          0.867              1.225              0.630
 Vibration    14          0.878              1.200              0.604
 Vibration    15          0.889              1.175              0.579
 Vibration    16          0.904              1.142              0.546
 Vibration    17          0.917              1.115              0.521
 Vibration    18          0.939              1.070              0.482

 Optimization completed.
    -- Stationary point found.
 Normal termination of Gaussian 16 at Wed Oct 28 01:11:41 2020.
