 Gaussian 16, Revision C.01,
 Gaussian 16:  ES64L-G16RevC.01  3-Jul-2019

 ----------------------------------------------------------------------
 #p opt=addgic freq wb97xd/cc-pvdz nosymm int=ultrafine scrf=(solvent=C
 arbonTetraChloride)
 ----------------------------------------------------------------------

 ------------------------------------------------
 NM 2D-scan of HBT TD-WB97XD pVDZ in CTC Relaxed.
 ------------------------------------------------
 Symbolic Z-matrix:
 Charge =  0 Multiplicity = 1

 SCF Done:  E(RwB97XD) =  -1028.80014941     A.U. after   16 cycles
 SCF Done:  E(RwB97XD) =  -1028.81176402     A.U. after   14 cycles
 SCF Done:  E(RwB97XD) =  -1028.81259555     A.U. after   12 cycles
 SCF Done:  E(RwB97XD) =  -1028.81334872     A.U. after   12 cycles
 SCF Done:  E(RwB97XD) =  -1028.81337965     A.U. after   10 cycles
 SCF Done:  E(RwB97XD) =  -1028.81338146     A.U. after    9 cycles
 Optimization completed.
    -- Stationary point found.
 Normal termination of Gaussian 16 at Tue Oct 27 22:39:47 2020.

 --------------------------------------------------------------------
 #P Geom=AllCheck Guess=TCheck SCRF=Check GenChk RwB97XD/CC-pVDZ Freq
 --------------------------------------------------------------------

 Structure from the checkpoint file:  "config_9_9.chk"
 ------------------------------------------------
 NM 2D-scan of HBT TD-WB97XD pVDZ in CTC Relaxed.
 ------------------------------------------------
 Charge =  0 Multiplicity = 1

                          Input orientation:
 ---------------------------------------------------------------------
 Center     Atomic      Atomic             Coordinates (Angstroms)
 Number     Number       Type             X           Y           Z
 ---------------------------------------------------------------------
      1          6           0        1.648606   -3.266673   -0.000040
      2          6           0        0.998585   -2.034773   -0.000023
      3          6           0        1.723523   -0.838062   -0.000005
      4          6           0        3.118599   -0.841581   -0.000002
      5          6           0        3.765702   -2.072298   -0.000019
      6          6           0        3.040905   -3.271477   -0.000038
      7          1           0        1.084700   -4.199664   -0.000055
      8          1           0        3.673844    0.096535    0.000013
      9          1           0        4.855968   -2.102292   -0.000017
     10          1           0        3.572188   -4.223867   -0.000051
     11          7           0        0.890029    0.263151    0.000008
     12         16           0       -0.734750   -1.701953   -0.000018
     13          6           0       -1.366649    1.075755    0.000014
     14          6           0       -2.765927    0.833790    0.000018
     15          6           0       -0.839872    2.434992    0.000022
     16          6           0       -3.664597    1.869335    0.000035
     17          1           0       -3.128053   -0.198458    0.000010
     18          6           0       -1.834125    3.480948    0.000036
     19          6           0       -3.176336    3.204431    0.000044
     20          1           0       -4.737062    1.675058    0.000040
     21          1           0       -1.464422    4.507757    0.000037
     22          1           0       -3.891944    4.030499    0.000056
     23          6           0       -0.421495    0.019526    0.000001
     24          8           0        0.399352    2.693666   -0.000005
     25          1           0        1.110296    1.297173    0.000028
 ---------------------------------------------------------------------

 SCF Done:  E(RwB97XD) =  -1028.81338146     A.U. after    1 cycles

 Alpha  occ. eigenvalues --  -89.10005 -19.21939 -14.51190 -10.41167 -10.37033
 Alpha  occ. eigenvalues --  -10.36238 -10.35951 -10.33239 -10.32785 -10.32435
 Alpha  occ. eigenvalues --  -10.32248 -10.31278 -10.30767 -10.30716 -10.29214
 Alpha  occ. eigenvalues --  -10.28686  -8.12021  -6.06900  -6.06523  -6.06034
 Alpha  occ. eigenvalues --   -1.13083  -1.09888  -0.98444  -0.95263  -0.93121
 Alpha  occ. eigenvalues --   -0.89241  -0.86469  -0.83901  -0.82027  -0.75728
 Alpha  occ. eigenvalues --   -0.72599  -0.71856  -0.68965  -0.68033  -0.64610
 Alpha  occ. eigenvalues --   -0.60881  -0.59704  -0.56821  -0.55789  -0.55709
 Alpha  occ. eigenvalues --   -0.54956  -0.53672  -0.52949  -0.50485  -0.49818
 Alpha  occ. eigenvalues --   -0.49109  -0.48160  -0.46694  -0.45528  -0.44824
 Alpha  occ. eigenvalues --   -0.44473  -0.43079  -0.41822  -0.40523  -0.36738
 Alpha  occ. eigenvalues --   -0.33445  -0.32395  -0.31612  -0.26648
 Alpha virt. eigenvalues --   -0.01195   0.03872   0.06062   0.06764   0.09020
 Alpha virt. eigenvalues --    0.11078   0.13616   0.14731   0.16133   0.17451
 Alpha virt. eigenvalues --    0.18983   0.20233   0.21203   0.21641   0.23097

 Mulliken charges:
               1
     1  C    0.014255
     2  C   -0.239492
     3  C    0.265002
     4  C   -0.009681
     5  C    0.010680
     6  C    0.002523
     7  H    0.024771
     8  H    0.030761
     9  H    0.026496
    10  H    0.025711
    11  N   -0.151694
    12  S    0.183591
    13  C   -0.119864
    14  C   -0.009920
    15  C    0.114182
    16  C   -0.029716
    17  H    0.006135
    18  C   -0.017035
    19  C    0.026047
    20  H    0.002995
    21  H    0.003058
    22  H    0.013851
    23  C    0.072355
    24  O   -0.400963
    25  H    0.155951
 Sum of Mulliken charges =   0.00000

 Dipole moment (field-independent basis, Debye):
    X=              1.5095    Y=             -5.0126    Z=              0.0000  Tot=              5.2350
 Quadrupole moment (field-independent basis, Debye-Ang):
   XX=            -82.2752   YY=            -94.4510   ZZ=           -104.0237
   XY=             -6.9960   XZ=             -0.0000   YZ=              0.0003

  Exact polarizability:     285.545     -84.256     281.994      -0.001       0.002      62.920
 Approx polarizability:     265.993     -31.508     255.329      -0.001       0.002      82.010

                      1                      2                      3
                      A                      A                      A
 Frequencies --     56.0167                75.7603               109.2113
 Red. masses --      5.5515                 5.0725                 5.6380
 Frc consts  --      0.0103                 0.0172                 0.0396
 IR Inten    --      0.8128                 1.3907                 3.4386

                      4                      5                      6
                      A                      A                      A
 Frequencies --    141.3391               199.6757               235.3654
 Red. masses --      5.3170                 6.1748                 6.1833
 Frc consts  --      0.0626                 0.1451                 0.2018
 IR Inten    --      1.3093                 0.0114                 0.7576

                      7                      8                      9
                      A                      A                      A
 Frequencies --    265.7193               308.9791               310.2804
 Red. masses --      7.4811                 6.0863                 5.3713
 Frc consts  --      0.3112                 0.3423                 0.3047
 IR Inten    --     11.1049                 7.0168                 0.8658

                     10                     11                     12
                      A                      A                      A
 Frequencies --    409.0963               430.3028               450.6900
 Red. masses --     10.5828                 3.2230                 3.5981
 Frc consts  --      1.0435                 0.3516                 0.4306
 IR Inten    --      3.0129                 0.4127                10.2214

                     13                     14                     15
                      A                      A                      A
 Frequencies --    511.7690               531.6139               538.7389
 Red. masses --      8.7211                 2.8625                 7.0033
 Frc consts  --      1.3458                 0.4766                 1.1976
 IR Inten    --      9.3030                 5.2355                 5.3855

                     16                     17                     18
                      A                      A                      A
 Frequencies --    554.6602               562.8731               583.8702
 Red. masses --      6.6759                 3.7641                 6.7460
 Frc consts  --      1.2101                 0.7026                 1.3550
 IR Inten    --      6.6461                 0.0218                36.8051

                     19                     20                     21
                      A                      A                      A
 Frequencies --    640.0517               645.0229               717.5437
 Red. masses --      6.0518                 5.4474                 6.3163
 Frc consts  --      1.4607                 1.3353                 1.9161
 IR Inten    --      0.1041                 3.4685                26.7557

                     22                     23                     24
                      A                      A                      A
 Frequencies --    733.2162               751.6778               762.4664
 Red. masses --      7.9525                 2.6525                 1.4775
 Frc consts  --      2.5189                 0.8830                 0.5061
 IR Inten    --     65.6928                 9.0845                52.3074

                     25                     26                     27
                      A                      A                      A
 Frequencies --    777.5568               778.2923               829.3746
 Red. masses --      1.7007                 2.1167                 4.3021
 Frc consts  --      0.6058                 0.7554                 1.7436
 IR Inten    --     13.2395                47.7815                19.8481

                     28                     29                     30
                      A                      A                      A
 Frequencies --    858.0698               877.7743               883.8293
 Red. masses --      4.2394                 1.8242                 1.3821
 Frc consts  --      1.8391                 0.8281                 0.6361
 IR Inten    --     11.8403                 6.7862                 0.2337

                     31                     32                     33
                      A                      A                      A
 Frequencies --    951.9679               957.0833               968.9959
 Red. masses --      1.1049                 4.9006                 1.3230
 Frc consts  --      0.5899                 2.6448                 0.7319
 IR Inten    --     81.5693                36.1883                 0.1076

                     34                     35                     36
                      A                      A                      A
 Frequencies --    972.0829              1015.3660              1016.5531
 Red. masses --      1.3595                 1.3038                 1.3061
 Frc consts  --      0.7569                 0.7920                 0.7952
 IR Inten    --      1.4202                 0.0828                 0.5551

                     37                     38                     39
                      A                      A                      A
 Frequencies --   1042.0716              1056.4890              1075.3384
 Red. masses --      2.2383                 2.0721                 3.4085
 Frc consts  --      1.4321                 1.3627                 2.3222
 IR Inten    --     14.7814                10.9947                31.2992

                     40                     41                     42
                      A                      A                      A
 Frequencies --   1121.3502              1159.5896              1160.7134
 Red. masses --      2.4211                 1.3865                 1.2209
 Frc consts  --      1.7937                 1.0984                 0.9691
 IR Inten    --     66.7155                 8.7142                40.0686

                     43                     44                     45
                      A                      A                      A
 Frequencies --   1182.7601              1194.6079              1257.5638
 Red. masses --      1.1458                 1.2426                 1.8974
 Frc consts  --      0.9444                 1.0448                 1.7680
 IR Inten    --     18.4227                 7.9789                10.9834

                     46                     47                     48
                      A                      A                      A
 Frequencies --   1289.8867              1321.0268              1366.2431
 Red. masses --      1.5407                 2.7966                 3.6111
 Frc consts  --      1.5103                 2.8755                 3.9714
 IR Inten    --     14.8089               142.9500                12.8722

                     49                     50                     51
                      A                      A                      A
 Frequencies --   1383.7996              1395.5113              1419.3399
 Red. masses --      3.9813                 6.8466                 2.6591
 Frc consts  --      4.4918                 7.8558                 3.1561
 IR Inten    --     82.2837                16.4340                14.3711

                     52                     53                     54
                      A                      A                      A
 Frequencies --   1494.3664              1506.2479              1521.4142
 Red. masses --      2.6769                 2.7249                 3.3528
 Frc consts  --      3.5221                 3.6425                 4.5725
 IR Inten    --     15.7714               140.9898                96.1902

                     55                     56                     57
                      A                      A                      A
 Frequencies --   1573.4462              1604.1872              1618.5847
 Red. masses --      4.2721                 4.6591                 8.3399
 Frc consts  --      6.2315                 7.0642                12.8730
 IR Inten    --   1472.3297               206.0102               478.8217

                     58                     59                     60
                      A                      A                      A
 Frequencies --   1668.6417              1682.6460              1712.1138
 Red. masses --      7.0668                 7.0278                 6.4745
 Frc consts  --     11.5930                11.7234                11.1821
 IR Inten    --     43.7315                96.0703               225.0692

                     61                     62                     63
                      A                      A                      A
 Frequencies --   2886.8202              3184.0341              3194.8865
 Red. masses --      1.0992                 1.0892                 1.0882
 Frc consts  --      5.3973                 6.5059                 6.5442
 IR Inten    --    471.3852                 4.2697                14.4252

                     64                     65                     66
                      A                      A                      A
 Frequencies --   3217.0830              3222.2392              3227.5232
 Red. masses --      1.0865                 1.0946                 1.0910
 Frc consts  --      6.6251                 6.6963                 6.6959
 IR Inten    --      1.5923                23.6460                 3.1435

                     67                     68                     69
                      A                      A                      A
 Frequencies --   3234.8867              3237.5748              3243.4765
 Red. masses --      1.0971                 1.0961                 1.0998
 Frc consts  --      6.7641                 6.7692                 6.8168
 IR Inten    --     18.7014                 6.5345                 9.2638

 - Thermochemistry -
 -------------------
 Temperature   298.150 Kelvin.  Pressure   1.00000 Atm.
 Atom     1 has atomic number  6 and mass  12.00000

 Molecular mass:   227.04049 amu.
 Principal axes and moments of inertia in atomic units:
                           1         2         3
     Eigenvalues --  1303.254696298.723167601.97785
           X           -0.70434   0.70986   0.00000
           Y            0.70986   0.70434  -0.00001
           Z            0.00001   0.00000   1.00000
 This molecule is an asymmetric top.
 Rotational symmetry number  1.
 Warning -- assumption of classical behavior for rotation
           may cause significant error
 Rotational temperatures (Kelvin)      0.06646     0.01375     0.01139
 Rotational constants (GHZ):           1.38480     0.28652     0.23740
 Zero-point vibrational energy     495668.8 (Joules/Mol)
                                  118.46768 (Kcal/Mol)
 Warning -- explicit consideration of  18 degrees of freedom as
           vibrations may cause significant error
 Vibrational temperatures:     80.60   109.00   157.13   203.36   287.29
          (Kelvin)            338.64   382.31   444.55   446.42   588.60
                              619.11   648.44   736.32   764.87   775.13
                              798.03   809.85   840.06   920.89   928.04
                             1032.39  1054.93  1081.50  1097.02  1118.73
                             1119.79  1193.29  1234.57  1262.92  1271.63
                             1369.67  1377.03  1394.17  1398.61  1460.89
                             1462.59  1499.31  1520.05  1547.17  1613.37
                             1668.39  1670.01  1701.73  1718.77  1809.35
                             1855.86  1900.66  1965.72  1990.98  2007.83
                             2042.11  2150.06  2167.15  2188.98  2263.84
                             2308.07  2328.78  2400.80  2420.95  2463.35
                             4153.49  4581.11  4596.73  4628.66  4636.08
                             4643.69  4654.28  4658.15  4666.64

 Zero-point correction=                           0.188790 (Hartree/Particle)
 Thermal correction to Energy=                    0.200556
 Thermal correction to Enthalpy=                  0.201501
 Thermal correction to Gibbs Free Energy=         0.150299
 Sum of electronic and zero-point Energies=          -1028.624591
 Sum of electronic and thermal Energies=             -1028.612825
 Sum of electronic and thermal Enthalpies=           -1028.611881
 Sum of electronic and thermal Free Energies=        -1028.663082

                     E (Thermal)             CV                S
                      KCal/Mol        Cal/Mol-Kelvin    Cal/Mol-Kelvin
 Total                  125.851             47.909            107.763
 Electronic               0.000              0.000              0.000
 Translational            0.889              2.981             42.162
 Rotational               0.889              2.981             32.501
 Vibrational            124.074             41.947             33.100
 Vibration     1          0.596              1.975              4.593
 Vibration     2          0.599              1.965              3.998
 Vibration     3          0.606              1.942              3.283
 Vibration     4          0.615              1.912              2.786
 Vibration     5          0.638              1.840              2.136
 Vibration     6          0.655              1.787              1.838
 Vibration     7          0.672              1.736              1.624
 Vibration     8          0.698              1.657              1.368
 Vibration     9          0.699              1.654              1.361
 Vibration    10          0.773              1.450              0.930
 Vibration    11          0.791              1.404              0.858
 Vibration    12          0.809              1.359              0.794
 Vibration    13          0.867              1.224              0.629
 Vibration    14          0.887              1.180              0.584
 Vibration    15          0.894              1.164              0.568
 Vibration    16          0.910              1.129              0.535
 Vibration    17          0.919              1.112              0.518
 Vibration    18          0.941              1.066              0.478

 Optimization completed.
    -- Stationary point found.
 Normal termination of Gaussian 16 at Tue Oct 27 22:45:53 2020.
