 Gaussian 16, Revision C.01,
 Gaussian 16:  ES64L-G16RevC.01  3-Jul-2019

 ----------------------------------------------------------------------
 #p opt=addgic freq wb97xd/cc-pvdz nosymm int=ultrafine scrf=(solvent=C
 arbonTetraChloride)
 ----------------------------------------------------------------------

 ------------------------------------------------
 NM 2D-scan of HBT TD-WB97XD pVDZ in CTC Relaxed.
 ------------------------------------------------
 Symbolic Z-matrix:
 Charge =  0 Multiplicity = 1

 SCF Done:  E(RwB97XD) =  -1028.49322946     A.U. after   16 cycles
 SCF Done:  E(RwB97XD) =  -1028.70764600     A.U. after   14 cycles
 SCF Done:  E(RwB97XD) =  -1028.77699739     A.U. after   15 cycles
 SCF Done:  E(RwB97XD) =  -1028.79084992     A.U. after   13 cycles
 SCF Done:  E(RwB97XD) =  -1028.79247667     A.U. after   12 cycles
 SCF Done:  E(RwB97XD) =  -1028.79280357     A.U. after   12 cycles
 SCF Done:  E(RwB97XD) =  -1028.79283242     A.U. after   10 cycles
 SCF Done:  E(RwB97XD) =  -1028.79283473     A.U. after    9 cycles
 Optimization completed.
    -- Stationary point found.
 Normal termination of Gaussian 16 at Wed Oct 28 00:00:40 2020.

 --------------------------------------------------------------------
 #P Geom=AllCheck Guess=TCheck SCRF=Check GenChk RwB97XD/CC-pVDZ Freq
 --------------------------------------------------------------------

 Structure from the checkpoint file:  "config_12_12.chk"
 ------------------------------------------------
 NM 2D-scan of HBT TD-WB97XD pVDZ in CTC Relaxed.
 ------------------------------------------------
 Charge =  0 Multiplicity = 1

                          Input orientation:
 ---------------------------------------------------------------------
 Center     Atomic      Atomic             Coordinates (Angstroms)
 Number     Number       Type             X           Y           Z
 ---------------------------------------------------------------------
      1          6           0        1.624037   -3.283652    0.000045
      2          6           0        1.008485   -2.038670    0.000027
      3          6           0        1.761946   -0.884242   -0.000031
      4          6           0        3.155740   -0.904738   -0.000058
      5          6           0        3.772601   -2.154427   -0.000033
      6          6           0        3.016129   -3.329700    0.000014
      7          1           0        1.034323   -4.199875    0.000079
      8          1           0        3.737559    0.018321   -0.000098
      9          1           0        4.861806   -2.210303   -0.000054
     10          1           0        3.520130   -4.296438    0.000026
     11          7           0        0.932216    0.224824   -0.000071
     12         16           0       -0.717615   -1.634263    0.000053
     13          6           0       -1.372732    1.112274   -0.000029
     14          6           0       -2.760501    0.828599   -0.000065
     15          6           0       -0.865710    2.484767    0.000051
     16          6           0       -3.700845    1.833387   -0.000016
     17          1           0       -3.092286   -0.214186   -0.000139
     18          6           0       -1.927720    3.503532    0.000125
     19          6           0       -3.262319    3.184917    0.000089
     20          1           0       -4.764648    1.594311   -0.000050
     21          1           0       -1.605223    4.546848    0.000207
     22          1           0       -4.009667    3.982987    0.000141
     23          6           0       -0.409301    0.074758   -0.000033
     24          8           0        0.348703    2.710729    0.000073
     25          1           0        1.498008    1.030880   -0.000168
 ---------------------------------------------------------------------

 SCF Done:  E(RwB97XD) =  -1028.79283473     A.U. after    1 cycles

 Alpha  occ. eigenvalues --  -89.09880 -19.21003 -14.52124 -10.41809 -10.36871
 Alpha  occ. eigenvalues --  -10.35918 -10.35748 -10.33317 -10.33177 -10.32703
 Alpha  occ. eigenvalues --  -10.32323 -10.31062 -10.30624 -10.30334 -10.29042
 Alpha  occ. eigenvalues --  -10.28558  -8.11934  -6.06825  -6.06424  -6.05936
 Alpha  occ. eigenvalues --   -1.13185  -1.10221  -0.98665  -0.95476  -0.93300
 Alpha  occ. eigenvalues --   -0.89184  -0.86622  -0.83986  -0.81529  -0.75594
 Alpha  occ. eigenvalues --   -0.74399  -0.71732  -0.69529  -0.67765  -0.64294
 Alpha  occ. eigenvalues --   -0.60903  -0.59787  -0.56613  -0.56018  -0.55993
 Alpha  occ. eigenvalues --   -0.55019  -0.53605  -0.52921  -0.50195  -0.49307
 Alpha  occ. eigenvalues --   -0.49005  -0.48240  -0.46701  -0.45656  -0.44698
 Alpha  occ. eigenvalues --   -0.44519  -0.42865  -0.41784  -0.40362  -0.36942
 Alpha  occ. eigenvalues --   -0.33621  -0.31694  -0.31078  -0.26013
 Alpha virt. eigenvalues --   -0.01337   0.03717   0.05953   0.06955   0.09680
 Alpha virt. eigenvalues --    0.11315   0.13413   0.14573   0.15897   0.16649
 Alpha virt. eigenvalues --    0.18087   0.19756   0.21043   0.21626   0.22933

 Mulliken charges:
               1
     1  C    0.012352
     2  C   -0.240539
     3  C    0.206584
     4  C   -0.014489
     5  C    0.011138
     6  C    0.004145
     7  H    0.024059
     8  H    0.031743
     9  H    0.027879
    10  H    0.026117
    11  N   -0.089888
    12  S    0.177539
    13  C   -0.101529
    14  C   -0.013141
    15  C    0.101703
    16  C   -0.035617
    17  H    0.006513
    18  C   -0.047283
    19  C    0.029021
    20  H    0.002011
    21  H    0.000866
    22  H    0.013725
    23  C    0.106975
    24  O   -0.355815
    25  H    0.115930
 Sum of Mulliken charges =  -0.00000

 Dipole moment (field-independent basis, Debye):
    X=              2.3021    Y=             -5.3333    Z=             -0.0003  Tot=              5.8089
 Quadrupole moment (field-independent basis, Debye-Ang):
   XX=            -81.0924   YY=            -95.6465   ZZ=           -103.9937
   XY=             -6.4925   XZ=             -0.0006   YZ=             -0.0005

  Exact polarizability:     291.925     -92.521     289.705      -0.002       0.003      62.925
 Approx polarizability:     268.663     -36.276     254.926      -0.001       0.001      81.919

 ******    1 imaginary frequencies (negative Signs) ******

                      1                      2                      3
                      A                      A                      A
 Frequencies --    -83.6744                53.1623                70.1268
 Red. masses --      2.7119                 5.5901                 6.1221
 Frc consts  --      0.0112                 0.0093                 0.0177
 IR Inten    --     13.7363                 0.0008                 2.2619

                      4                      5                      6
                      A                      A                      A
 Frequencies --    108.9928               186.2748               209.2460
 Red. masses --      5.6925                 4.6902                 4.3507
 Frc consts  --      0.0398                 0.0959                 0.1122
 IR Inten    --      0.8854                 3.3083                16.2772

                      7                      8                      9
                      A                      A                      A
 Frequencies --    266.7108               271.5109               300.3846
 Red. masses --      7.6994                 2.2335                 7.5509
 Frc consts  --      0.3227                 0.0970                 0.4014
 IR Inten    --      3.7332                28.4259                 4.0709

                     10                     11                     12
                      A                      A                      A
 Frequencies --    337.8172               386.5640               431.9318
 Red. masses --      2.6983                 7.6810                 2.9058
 Frc consts  --      0.1814                 0.6763                 0.3194
 IR Inten    --     21.8321                 4.1902                 4.3442

                     13                     14                     15
                      A                      A                      A
 Frequencies --    441.2183               502.5547               520.9157
 Red. masses --      3.4802                 7.9353                 2.6622
 Frc consts  --      0.3992                 1.1808                 0.4256
 IR Inten    --      7.1313                 9.4636                 3.0657

                     16                     17                     18
                      A                      A                      A
 Frequencies --    533.4170               545.0114               562.9793
 Red. masses --      7.2710                 7.3105                 3.7907
 Frc consts  --      1.2189                 1.2794                 0.7079
 IR Inten    --      5.4141                10.4812                 0.0063

                     19                     20                     21
                      A                      A                      A
 Frequencies --    580.2119               628.7524               659.8579
 Red. masses --      7.4473                 6.9057                 6.3868
 Frc consts  --      1.4772                 1.6085                 1.6384
 IR Inten    --     40.1634                 0.8635                 0.5706

                     22                     23                     24
                      A                      A                      A
 Frequencies --    701.8923               739.4518               750.0955
 Red. masses --      5.5440                 7.2345                 2.6114
 Frc consts  --      1.6092                 2.3307                 0.8657
 IR Inten    --     54.7758                37.2859                11.5519

                     25                     26                     27
                      A                      A                      A
 Frequencies --    758.2772               774.7365               779.0650
 Red. masses --      1.4282                 1.5725                 2.3996
 Frc consts  --      0.4838                 0.5561                 0.8581
 IR Inten    --     47.4758                52.6158                19.5750

                     28                     29                     30
                      A                      A                      A
 Frequencies --    827.3111               874.8015               879.1529
 Red. masses --      6.2196                 2.0731                 1.3784
 Frc consts  --      2.5081                 0.9347                 0.6277
 IR Inten    --     26.8322                14.9875                 0.9708

                     31                     32                     33
                      A                      A                      A
 Frequencies --    899.3184               966.2907               969.3881
 Red. masses --      5.9772                 1.3235                 1.3595
 Frc consts  --      2.8483                 0.7281                 0.7527
 IR Inten    --      2.5590                 0.1164                 1.4872

                     34                     35                     36
                      A                      A                      A
 Frequencies --    976.0911              1013.5080              1016.5873
 Red. masses --      4.4270                 1.3025                 1.3066
 Frc consts  --      2.4851                 0.7883                 0.7956
 IR Inten    --     22.4573                 0.0041                 0.3180

                     37                     38                     39
                      A                      A                      A
 Frequencies --   1044.7690              1059.7951              1096.5887
 Red. masses --      2.0937                 2.1192                 3.7855
 Frc consts  --      1.3465                 1.4024                 2.6820
 IR Inten    --      8.2734                12.7471                 2.6908

                     40                     41                     42
                      A                      A                      A
 Frequencies --   1108.5852              1157.5132              1159.3106
 Red. masses --      1.7790                 1.3252                 1.2588
 Frc consts  --      1.2881                 1.0462                 0.9968
 IR Inten    --     51.5004                 8.4264                48.3610

                     43                     44                     45
                      A                      A                      A
 Frequencies --   1181.4299              1189.9180              1223.2004
 Red. masses --      1.1634                 1.1685                 2.3804
 Frc consts  --      0.9567                 0.9748                 2.0984
 IR Inten    --     46.3130                 8.6521                60.9824

                     46                     47                     48
                      A                      A                      A
 Frequencies --   1277.5769              1306.0444              1356.8849
 Red. masses --      2.1846                 1.7080                 2.5727
 Frc consts  --      2.1008                 1.7165                 2.7908
 IR Inten    --     93.2864               125.2605                42.8238

                     49                     50                     51
                      A                      A                      A
 Frequencies --   1383.6981              1397.1081              1411.5456
 Red. masses --      5.1325                 6.1381                 2.1955
 Frc consts  --      5.7898                 7.0590                 2.5774
 IR Inten    --     96.1721                88.2655                 7.8042

                     52                     53                     54
                      A                      A                      A
 Frequencies --   1487.8395              1503.9188              1529.8234
 Red. masses --      3.2301                 3.1311                 3.8229
 Frc consts  --      4.2128                 4.1725                 5.2714
 IR Inten    --    487.0278               928.1200              1190.3515

                     55                     56                     57
                      A                      A                      A
 Frequencies --   1539.0713              1589.1232              1654.0101
 Red. masses --      3.1716                 6.7460                 5.8961
 Frc consts  --      4.4263                10.0371                 9.5037
 IR Inten    --     29.3719                36.2686                66.4830

                     58                     59                     60
                      A                      A                      A
 Frequencies --   1678.8386              1710.7369              1748.0823
 Red. masses --      7.0933                 7.9209                 9.9006
 Frc consts  --     11.7792                13.6581                17.8253
 IR Inten    --     30.5441                20.0906               460.1387

                     61                     62                     63
                      A                      A                      A
 Frequencies --   3180.7731              3192.4408              3217.0004
 Red. masses --      1.0890                 1.0877                 1.0941
 Frc consts  --      6.4913                 6.5313                 6.6714
 IR Inten    --      4.2031                14.0011                32.8880

                     64                     65                     66
                      A                      A                      A
 Frequencies --   3217.1706              3226.6702              3229.9050
 Red. masses --      1.0870                 1.0913                 1.0972
 Frc consts  --      6.6287                 6.6946                 6.7439
 IR Inten    --      1.8258                 1.2661                20.7057

                     67                     68                     69
                      A                      A                      A
 Frequencies --   3235.6415              3245.2980              3980.1611
 Red. masses --      1.0958                 1.0991                 1.0780
 Frc consts  --      6.7591                 6.8200                10.0613
 IR Inten    --      4.5591                12.4209               126.9613

 - Thermochemistry -
 -------------------
 Temperature   298.150 Kelvin.  Pressure   1.00000 Atm.
 Atom     1 has atomic number  6 and mass  12.00000

 Molecular mass:   227.04049 amu.
 Principal axes and moments of inertia in atomic units:
                           1         2         3
     Eigenvalues --  1271.564566431.674327703.23888
           X           -0.70677   0.70744   0.00000
           Y            0.70744   0.70677  -0.00000
           Z            0.00001   0.00000   1.00000
 This molecule is an asymmetric top.
 Rotational symmetry number  1.
 Warning -- assumption of classical behavior for rotation
           may cause significant error
 Rotational temperatures (Kelvin)      0.06812     0.01347     0.01124
 Rotational constants (GHZ):           1.41931     0.28060     0.23428
    1 imaginary frequencies ignored.
 Zero-point vibrational energy     496713.9 (Joules/Mol)
                                  118.71747 (Kcal/Mol)
 Warning -- explicit consideration of  18 degrees of freedom as
           vibrations may cause significant error
 Vibrational temperatures:     76.49   100.90   156.82   268.01   301.06
          (Kelvin)            383.74   390.64   432.19   486.04   556.18
                              621.45   634.81   723.06   749.48   767.47
                              784.15   810.00   834.80   904.63   949.39
                             1009.87  1063.91  1079.22  1090.99  1114.67
                             1120.90  1190.32  1258.64  1264.90  1293.92
                             1390.28  1394.73  1404.38  1458.21  1462.64
                             1503.19  1524.81  1577.75  1595.01  1665.40
                             1667.99  1699.81  1712.03  1759.91  1838.15
                             1879.11  1952.25  1990.83  2010.13  2030.90
                             2140.67  2163.80  2201.07  2214.38  2286.39
                             2379.75  2415.47  2461.37  2515.10  4576.42
                             4593.21  4628.55  4628.79  4642.46  4647.11
                             4655.37  4669.26  5726.56

 Zero-point correction=                           0.189188 (Hartree/Particle)
 Thermal correction to Energy=                    0.200817
 Thermal correction to Enthalpy=                  0.201761
 Thermal correction to Gibbs Free Energy=         0.150850
 Sum of electronic and zero-point Energies=          -1028.603646
 Sum of electronic and thermal Energies=             -1028.592018
 Sum of electronic and thermal Enthalpies=           -1028.591074
 Sum of electronic and thermal Free Energies=        -1028.641985

                     E (Thermal)             CV                S
                      KCal/Mol        Cal/Mol-Kelvin    Cal/Mol-Kelvin
 Total                  126.014             47.456            107.151
 Electronic               0.000              0.000              0.000
 Translational            0.889              2.981             42.162
 Rotational               0.889              2.981             32.510
 Vibrational            124.237             41.494             32.479
 Vibration     1          0.596              1.976              4.696
 Vibration     2          0.598              1.968              4.150
 Vibration     3          0.606              1.942              3.287
 Vibration     4          0.632              1.859              2.265
 Vibration     5          0.642              1.827              2.050
 Vibration     6          0.672              1.734              1.617
 Vibration     7          0.675              1.726              1.587
 Vibration     8          0.693              1.673              1.415
 Vibration     9          0.718              1.600              1.222
 Vibration    10          0.755              1.499              1.013
 Vibration    11          0.793              1.401              0.852
 Vibration    12          0.801              1.380              0.823
 Vibration    13          0.858              1.244              0.652
 Vibration    14          0.876              1.204              0.608
 Vibration    15          0.888              1.176              0.580
 Vibration    16          0.900              1.151              0.555
 Vibration    17          0.919              1.111              0.518
 Vibration    18          0.937              1.074              0.485

 Optimization completed.
    -- Stationary point found.
 Normal termination of Gaussian 16 at Wed Oct 28 00:06:56 2020.
