 Gaussian 16, Revision C.01,
 Gaussian 16:  ES64L-G16RevC.01  3-Jul-2019

 ----------------------------------------------------------------------
 #p opt=addgic freq wb97xd/cc-pvdz nosymm int=ultrafine scrf=(solvent=C
 arbonTetraChloride)
 ----------------------------------------------------------------------

 ------------------------------------------------
 NM 2D-scan of HBT TD-WB97XD pVDZ in CTC Relaxed.
 ------------------------------------------------
 Symbolic Z-matrix:
 Charge =  0 Multiplicity = 1

 SCF Done:  E(RwB97XD) =  -1028.81882457     A.U. after   15 cycles
 SCF Done:  E(RwB97XD) =  -1028.82551571     A.U. after   13 cycles
 SCF Done:  E(RwB97XD) =  -1028.82570323     A.U. after   12 cycles
 SCF Done:  E(RwB97XD) =  -1028.82655344     A.U. after   11 cycles
 SCF Done:  E(RwB97XD) =  -1028.82662502     A.U. after   10 cycles
 SCF Done:  E(RwB97XD) =  -1028.82662651     A.U. after    9 cycles
 SCF Done:  E(RwB97XD) =  -1028.82662567     A.U. after    9 cycles
 SCF Done:  E(RwB97XD) =  -1028.82662690     A.U. after    8 cycles
 Optimization completed.
    -- Stationary point found.
 Normal termination of Gaussian 16 at Tue Oct 27 23:09:57 2020.

 --------------------------------------------------------------------
 #P Geom=AllCheck Guess=TCheck SCRF=Check GenChk RwB97XD/CC-pVDZ Freq
 --------------------------------------------------------------------

 Structure from the checkpoint file:  "config_5_9.chk"
 ------------------------------------------------
 NM 2D-scan of HBT TD-WB97XD pVDZ in CTC Relaxed.
 ------------------------------------------------
 Charge =  0 Multiplicity = 1

                          Input orientation:
 ---------------------------------------------------------------------
 Center     Atomic      Atomic             Coordinates (Angstroms)
 Number     Number       Type             X           Y           Z
 ---------------------------------------------------------------------
      1          6           0        1.648654   -3.270082   -0.000046
      2          6           0        0.997775   -2.036537   -0.000019
      3          6           0        1.713287   -0.830691    0.000002
      4          6           0        3.113046   -0.842829   -0.000003
      5          6           0        3.762311   -2.070486   -0.000028
      6          6           0        3.038208   -3.272926   -0.000050
      7          1           0        1.085283   -4.203457   -0.000062
      8          1           0        3.666600    0.096587    0.000014
      9          1           0        4.852792   -2.101078   -0.000032
     10          1           0        3.571526   -4.224506   -0.000071
     11          7           0        0.900424    0.285295    0.000023
     12         16           0       -0.725926   -1.705296   -0.000006
     13          6           0       -1.369190    1.077438    0.000031
     14          6           0       -2.749889    0.835864    0.000033
     15          6           0       -0.876883    2.413302    0.000028
     16          6           0       -3.659585    1.882750    0.000030
     17          1           0       -3.111962   -0.195463    0.000035
     18          6           0       -1.818033    3.464230    0.000020
     19          6           0       -3.179707    3.199234    0.000022
     20          1           0       -4.730862    1.681530    0.000031
     21          1           0       -1.441277    4.487878    0.000017
     22          1           0       -3.885643    4.032327    0.000019
     23          6           0       -0.378725    0.008684    0.000023
     24          8           0        0.417319    2.672359    0.000034
     25          1           0        0.902505    1.754450    0.000054
 ---------------------------------------------------------------------

 SCF Done:  E(RwB97XD) =  -1028.82662690     A.U. after    1 cycles

 Alpha  occ. eigenvalues --  -89.08974 -19.26678 -14.47208 -10.39662 -10.37085
 Alpha  occ. eigenvalues --  -10.35232 -10.34969 -10.32489 -10.31943 -10.31902
 Alpha  occ. eigenvalues --  -10.31753 -10.31738 -10.31674 -10.31278 -10.30031
 Alpha  occ. eigenvalues --  -10.29879  -8.11019  -6.05873  -6.05511  -6.05066
 Alpha  occ. eigenvalues --   -1.15714  -1.09311  -0.97412  -0.96036  -0.91884
 Alpha  occ. eigenvalues --   -0.88669  -0.85513  -0.84303  -0.83061  -0.75581
 Alpha  occ. eigenvalues --   -0.71432  -0.70559  -0.69356  -0.68285  -0.63253
 Alpha  occ. eigenvalues --   -0.60736  -0.59010  -0.58202  -0.56242  -0.54513
 Alpha  occ. eigenvalues --   -0.54419  -0.53372  -0.52631  -0.51009  -0.50110
 Alpha  occ. eigenvalues --   -0.49573  -0.47356  -0.46096  -0.45354  -0.45067
 Alpha  occ. eigenvalues --   -0.43948  -0.42864  -0.42677  -0.39984  -0.36384
 Alpha  occ. eigenvalues --   -0.36252  -0.32370  -0.31604  -0.28781
 Alpha virt. eigenvalues --   -0.00546   0.04666   0.06847   0.07436   0.07629
 Alpha virt. eigenvalues --    0.11273   0.14191   0.15100   0.16448   0.17923
 Alpha virt. eigenvalues --    0.19028   0.20908   0.21765   0.22587   0.22639

 Mulliken charges:
               1
     1  C    0.011795
     2  C   -0.225370
     3  C    0.249018
     4  C   -0.013448
     5  C    0.006379
     6  C    0.001698
     7  H    0.019812
     8  H    0.021433
     9  H    0.021342
    10  H    0.022366
    11  N   -0.341319
    12  S    0.156312
    13  C   -0.073736
    14  C   -0.021260
    15  C    0.083886
    16  C   -0.011646
    17  H    0.011369
    18  C   -0.000460
    19  C    0.021411
    20  H    0.008564
    21  H    0.013715
    22  H    0.017713
    23  C    0.083348
    24  O   -0.239198
    25  H    0.176276
 Sum of Mulliken charges =  -0.00000

 Dipole moment (field-independent basis, Debye):
    X=              0.2315    Y=             -2.9965    Z=             -0.0000  Tot=              3.0055
 Quadrupole moment (field-independent basis, Debye-Ang):
   XX=            -82.7237   YY=            -90.5493   ZZ=           -104.0390
   XY=             -7.2163   XZ=             -0.0001   YZ=              0.0002

  Exact polarizability:     275.622     -68.421     256.830      -0.001       0.002      62.923
 Approx polarizability:     262.924     -23.932     243.014      -0.001       0.002      82.176

                      1                      2                      3
                      A                      A                      A
 Frequencies --     29.3547                63.9506               125.9561
 Red. masses --      5.4033                 6.0477                 5.6183
 Frc consts  --      0.0027                 0.0146                 0.0525
 IR Inten    --      0.0151                 1.3636                 2.0894

                      4                      5                      6
                      A                      A                      A
 Frequencies --    153.3188               197.8402               244.3757
 Red. masses --      5.0328                 5.9516                 5.7186
 Frc consts  --      0.0697                 0.1373                 0.2012
 IR Inten    --      0.1511                 0.5349                 0.0837

                      7                      8                      9
                      A                      A                      A
 Frequencies --    274.8341               327.9142               336.3817
 Red. masses --      7.3738                 5.1581                 6.1884
 Frc consts  --      0.3282                 0.3268                 0.4126
 IR Inten    --      0.7486                 0.2505                12.0725

                     10                     11                     12
                      A                      A                      A
 Frequencies --    414.3723               436.5439               463.4872
 Red. masses --     10.3139                 3.1249                 3.6477
 Frc consts  --      1.0434                 0.3509                 0.4617
 IR Inten    --      0.0812                 2.0636                 8.0301

                     13                     14                     15
                      A                      A                      A
 Frequencies --    515.9867               526.8722               539.0522
 Red. masses --      8.3908                 5.5740                 3.4592
 Frc consts  --      1.3162                 0.9116                 0.5922
 IR Inten    --      0.3699                21.5985                 3.5560

                     16                     17                     18
                      A                      A                      A
 Frequencies --    556.9975               574.8708               591.9595
 Red. masses --      7.2069                 3.6975                 7.6322
 Frc consts  --      1.3174                 0.7199                 1.5757
 IR Inten    --      6.2375                 0.0670                 3.3537

                     19                     20                     21
                      A                      A                      A
 Frequencies --    648.5071               686.0397               721.4074
 Red. masses --      6.3550                 6.3818                 6.6377
 Frc consts  --      1.5747                 1.7697                 2.0353
 IR Inten    --      0.0088                 8.6819                21.8243

                     22                     23                     24
                      A                      A                      A
 Frequencies --    755.8892               757.5903               768.1644
 Red. masses --      2.0665                10.2590                 2.8597
 Frc consts  --      0.6957                 3.4692                 0.9942
 IR Inten    --     24.6919                16.0682                 3.9629

                     25                     26                     27
                      A                      A                      A
 Frequencies --    775.9923               785.5308               851.0554
 Red. masses --      1.4303                 1.8613                 5.9708
 Frc consts  --      0.5075                 0.6767                 2.5480
 IR Inten    --     59.6431                39.3941                16.4247

                     28                     29                     30
                      A                      A                      A
 Frequencies --    883.1727               886.9461               907.9288
 Red. masses --      1.5685                 1.4099                 6.6989
 Frc consts  --      0.7208                 0.6535                 3.2536
 IR Inten    --      5.2052                 0.2967                 2.3063

                     31                     32                     33
                      A                      A                      A
 Frequencies --    969.7043               975.9083              1002.8438
 Red. masses --      1.3566                 1.3622                 7.4797
 Frc consts  --      0.7516                 0.7644                 4.4320
 IR Inten    --      1.3881                 0.8028                54.0431

                     34                     35                     36
                      A                      A                      A
 Frequencies --   1010.5731              1016.1686              1027.5557
 Red. masses --      1.2990                 1.3023                 1.0704
 Frc consts  --      0.7816                 0.7923                 0.6659
 IR Inten    --      0.0022                 0.4944                73.2409

                     37                     38                     39
                      A                      A                      A
 Frequencies --   1053.2680              1067.4162              1100.6516
 Red. masses --      2.0014                 1.9214                 3.9864
 Frc consts  --      1.3081                 1.2898                 2.8453
 IR Inten    --      8.9757                 9.0786                 5.2134

                     40                     41                     42
                      A                      A                      A
 Frequencies --   1149.8005              1154.9913              1173.6752
 Red. masses --      1.4680                 1.3228                 1.1296
 Frc consts  --      1.1435                 1.0397                 0.9168
 IR Inten    --     13.0973                 2.8259                44.1294

                     43                     44                     45
                      A                      A                      A
 Frequencies --   1185.4513              1260.0493              1287.7724
 Red. masses --      1.1958                 1.8739                 1.5517
 Frc consts  --      0.9901                 1.7530                 1.5161
 IR Inten    --      0.2017                91.9488                 0.4856

                     46                     47                     48
                      A                      A                      A
 Frequencies --   1304.4765              1332.1675              1357.5116
 Red. masses --      2.9297                 3.3809                 5.1154
 Frc consts  --      2.9373                 3.5350                 5.5542
 IR Inten    --    210.0156                35.4393                 2.4139

                     49                     50                     51
                      A                      A                      A
 Frequencies --   1378.9057              1380.9790              1489.9627
 Red. masses --      5.0495                 4.0927                 2.6446
 Frc consts  --      5.6567                 4.5987                 3.4591
 IR Inten    --     11.1389                18.2410                 3.3411

                     52                     53                     54
                      A                      A                      A
 Frequencies --   1490.5250              1497.0311              1521.4140
 Red. masses --      2.7454                 2.8288                 4.0416
 Frc consts  --      3.5936                 3.7352                 5.5118
 IR Inten    --      7.7016                38.6246               105.1002

                     55                     56                     57
                      A                      A                      A
 Frequencies --   1578.8465              1604.2209              1655.3203
 Red. masses --      6.4105                 3.0228                 6.8644
 Frc consts  --      9.4150                 4.5833                11.0819
 IR Inten    --    278.7962                14.7443                10.1667

                     58                     59                     60
                      A                      A                      A
 Frequencies --   1676.7287              1698.2397              1720.7178
 Red. masses --      6.4628                 5.0861                 1.8645
 Frc consts  --     10.7053                 8.6424                 3.2525
 IR Inten    --     74.6775               194.8166               310.5692

                     61                     62                     63
                      A                      A                      A
 Frequencies --   2439.1114              3195.3538              3205.6324
 Red. masses --      1.0917                 1.0892                 1.0886
 Frc consts  --      3.8268                 6.5522                 6.5910
 IR Inten    --   1592.7534                 4.3632                 6.6062

                     64                     65                     66
                      A                      A                      A
 Frequencies --   3213.3096              3224.5110              3227.2894
 Red. masses --      1.0863                 1.0907                 1.0939
 Frc consts  --      6.6085                 6.6818                 6.7131
 IR Inten    --      2.0060                 3.8953                13.0052

                     67                     68                     69
                      A                      A                      A
 Frequencies --   3235.2319              3236.7716              3240.8998
 Red. masses --      1.0960                 1.0983                 1.0996
 Frc consts  --      6.7588                 6.7795                 6.8048
 IR Inten    --      9.1351                17.5069                12.6941

 - Thermochemistry -
 -------------------
 Temperature   298.150 Kelvin.  Pressure   1.00000 Atm.
 Atom     1 has atomic number  6 and mass  12.00000

 Molecular mass:   227.04049 amu.
 Principal axes and moments of inertia in atomic units:
                           1         2         3
     Eigenvalues --  1296.984286284.680487581.66476
           X           -0.70397   0.71023   0.00000
           Y            0.71023   0.70397  -0.00001
           Z            0.00001   0.00000   1.00000
 This molecule is an asymmetric top.
 Rotational symmetry number  1.
 Warning -- assumption of classical behavior for rotation
           may cause significant error
 Rotational temperatures (Kelvin)      0.06678     0.01378     0.01142
 Rotational constants (GHZ):           1.39149     0.28717     0.23804
 Zero-point vibrational energy     497307.3 (Joules/Mol)
                                  118.85929 (Kcal/Mol)
 Warning -- explicit consideration of  18 degrees of freedom as
           vibrations may cause significant error
 Vibrational temperatures:     42.23    92.01   181.22   220.59   284.65
          (Kelvin)            351.60   395.42   471.80   483.98   596.19
                              628.09   666.85   742.39   758.05   775.58
                              801.40   827.11   851.70   933.06   987.06
                             1037.94  1087.56  1090.00  1105.22  1116.48
                             1130.20  1224.48  1270.69  1276.12  1306.31
                             1395.19  1404.11  1442.87  1453.99  1462.04
                             1478.42  1515.42  1535.77  1583.59  1654.31
                             1661.77  1688.66  1705.60  1812.93  1852.82
                             1876.85  1916.69  1953.16  1983.94  1986.92
                             2143.72  2144.53  2153.89  2188.98  2271.61
                             2308.12  2381.64  2412.44  2443.39  2475.73
                             3509.34  4597.40  4612.19  4623.24  4639.35
                             4643.35  4654.78  4656.99  4662.93

 Zero-point correction=                           0.189414 (Hartree/Particle)
 Thermal correction to Energy=                    0.201009
 Thermal correction to Enthalpy=                  0.201953
 Thermal correction to Gibbs Free Energy=         0.150530
 Sum of electronic and zero-point Energies=          -1028.637213
 Sum of electronic and thermal Energies=             -1028.625618
 Sum of electronic and thermal Enthalpies=           -1028.624674
 Sum of electronic and thermal Free Energies=        -1028.676097

                     E (Thermal)             CV                S
                      KCal/Mol        Cal/Mol-Kelvin    Cal/Mol-Kelvin
 Total                  126.135             47.090            108.229
 Electronic               0.000              0.000              0.000
 Translational            0.889              2.981             42.162
 Rotational               0.889              2.981             32.491
 Vibrational            124.357             41.128             33.576
 Vibration     1          0.593              1.984              5.873
 Vibration     2          0.597              1.972              4.331
 Vibration     3          0.611              1.927              3.007
 Vibration     4          0.619              1.899              2.631
 Vibration     5          0.637              1.843              2.153
 Vibration     6          0.660              1.772              1.771
 Vibration     7          0.677              1.720              1.566
 Vibration     8          0.711              1.620              1.270
 Vibration     9          0.717              1.603              1.229
 Vibration    10          0.778              1.439              0.911
 Vibration    11          0.797              1.391              0.838
 Vibration    12          0.821              1.331              0.756
 Vibration    13          0.871              1.215              0.619
 Vibration    14          0.882              1.191              0.594
 Vibration    15          0.894              1.164              0.567
 Vibration    16          0.913              1.124              0.530
 Vibration    17          0.931              1.086              0.495
 Vibration    18          0.949              1.049              0.464

 Optimization completed.
    -- Stationary point found.
 Normal termination of Gaussian 16 at Tue Oct 27 23:16:10 2020.
