 Gaussian 16, Revision C.01,
 Gaussian 16:  ES64L-G16RevC.01  3-Jul-2019

 ----------------------------------------------------------------------
 #p opt=addgic freq wb97xd/cc-pvdz nosymm int=ultrafine scrf=(solvent=C
 arbonTetraChloride)
 ----------------------------------------------------------------------

 ------------------------------------------------
 NM 2D-scan of HBT TD-WB97XD pVDZ in CTC Relaxed.
 ------------------------------------------------
 Symbolic Z-matrix:
 Charge =  0 Multiplicity = 1

 SCF Done:  E(RwB97XD) =  -1028.77565470     A.U. after   16 cycles
 SCF Done:  E(RwB97XD) =  -1028.80681972     A.U. after   13 cycles
 SCF Done:  E(RwB97XD) =  -1028.80911298     A.U. after   13 cycles
 SCF Done:  E(RwB97XD) =  -1028.80982405     A.U. after   12 cycles
 SCF Done:  E(RwB97XD) =  -1028.81006094     A.U. after   11 cycles
 SCF Done:  E(RwB97XD) =  -1028.81006598     A.U. after    9 cycles
 Optimization completed.
    -- Stationary point found.
 Normal termination of Gaussian 16 at Tue Oct 27 22:19:45 2020.

 --------------------------------------------------------------------
 #P Geom=AllCheck Guess=TCheck SCRF=Check GenChk RwB97XD/CC-pVDZ Freq
 --------------------------------------------------------------------

 Structure from the checkpoint file:  "config_10_8.chk"
 ------------------------------------------------
 NM 2D-scan of HBT TD-WB97XD pVDZ in CTC Relaxed.
 ------------------------------------------------
 Charge =  0 Multiplicity = 1

                          Input orientation:
 ---------------------------------------------------------------------
 Center     Atomic      Atomic             Coordinates (Angstroms)
 Number     Number       Type             X           Y           Z
 ---------------------------------------------------------------------
      1          6           0        1.668576   -3.271240   -0.000028
      2          6           0        1.005268   -2.047326   -0.000018
      3          6           0        1.722442   -0.854132   -0.000011
      4          6           0        3.116463   -0.834608   -0.000012
      5          6           0        3.776407   -2.058770   -0.000021
      6          6           0        3.061619   -3.262732   -0.000030
      7          1           0        1.115407   -4.210450   -0.000035
      8          1           0        3.660204    0.110274   -0.000006
      9          1           0        4.866857   -2.078300   -0.000021
     10          1           0        3.600672   -4.210640   -0.000037
     11          7           0        0.873307    0.230207   -0.000009
     12         16           0       -0.735379   -1.713415   -0.000012
     13          6           0       -1.380644    1.077222    0.000005
     14          6           0       -2.782164    0.853240    0.000004
     15          6           0       -0.835752    2.436335    0.000020
     16          6           0       -3.674606    1.897025    0.000026
     17          1           0       -3.155448   -0.175231   -0.000012
     18          6           0       -1.833258    3.490843    0.000050
     19          6           0       -3.177880    3.228638    0.000052
     20          1           0       -4.748117    1.707927    0.000026
     21          1           0       -1.455619    4.515011    0.000069
     22          1           0       -3.887273    4.060215    0.000072
     23          6           0       -0.445920    0.010452   -0.000007
     24          8           0        0.395535    2.677449    0.000019
     25          1           0        1.188520    1.200285   -0.000004
 ---------------------------------------------------------------------

 SCF Done:  E(RwB97XD) =  -1028.81006598     A.U. after    1 cycles

 Alpha  occ. eigenvalues --  -89.10084 -19.21588 -14.51441 -10.41420 -10.36994
 Alpha  occ. eigenvalues --  -10.36181 -10.35964 -10.33319 -10.32908 -10.32544
 Alpha  occ. eigenvalues --  -10.32293 -10.31204 -10.30690 -10.30682 -10.29129
 Alpha  occ. eigenvalues --  -10.28580  -8.12090  -6.06975  -6.06590  -6.06098
 Alpha  occ. eigenvalues --   -1.13261  -1.10015  -0.98569  -0.95193  -0.93189
 Alpha  occ. eigenvalues --   -0.89285  -0.86528  -0.83969  -0.81834  -0.75709
 Alpha  occ. eigenvalues --   -0.73215  -0.71841  -0.69217  -0.67952  -0.64682
 Alpha  occ. eigenvalues --   -0.60899  -0.59764  -0.56724  -0.55955  -0.55848
 Alpha  occ. eigenvalues --   -0.55007  -0.53661  -0.52991  -0.50470  -0.49656
 Alpha  occ. eigenvalues --   -0.49060  -0.48225  -0.46724  -0.45600  -0.44775
 Alpha  occ. eigenvalues --   -0.44528  -0.43006  -0.41814  -0.40476  -0.36826
 Alpha  occ. eigenvalues --   -0.33548  -0.31891  -0.31650  -0.26402
 Alpha virt. eigenvalues --   -0.01257   0.03791   0.06051   0.06751   0.09253
 Alpha virt. eigenvalues --    0.11129   0.13246   0.14673   0.16036   0.17304
 Alpha virt. eigenvalues --    0.18854   0.20041   0.21163   0.21621   0.23099

 Mulliken charges:
               1
     1  C    0.013029
     2  C   -0.244711
     3  C    0.254707
     4  C   -0.009860
     5  C    0.011753
     6  C    0.002509
     7  H    0.025042
     8  H    0.031530
     9  H    0.027162
    10  H    0.025970
    11  N   -0.116639
    12  S    0.182146
    13  C   -0.122786
    14  C   -0.007895
    15  C    0.112348
    16  C   -0.032507
    17  H    0.004300
    18  C   -0.024273
    19  C    0.027305
    20  H    0.002667
    21  H    0.001848
    22  H    0.013552
    23  C    0.080732
    24  O   -0.390544
    25  H    0.132616
 Sum of Mulliken charges =  -0.00000

 Dipole moment (field-independent basis, Debye):
    X=              1.7675    Y=             -5.1273    Z=             -0.0000  Tot=              5.4235
 Quadrupole moment (field-independent basis, Debye-Ang):
   XX=            -82.0761   YY=            -94.7479   ZZ=           -104.0215
   XY=             -6.8880   XZ=             -0.0001   YZ=              0.0001

  Exact polarizability:     287.693     -86.936     285.258      -0.001       0.003      62.945
 Approx polarizability:     266.906     -33.272     255.647      -0.001       0.002      81.988

                      1                      2                      3
                      A                      A                      A
 Frequencies --     52.4729                66.6444               116.9759
 Red. masses --      4.8304                 6.2053                 5.6659
 Frc consts  --      0.0078                 0.0162                 0.0457
 IR Inten    --      0.0000                 2.6052                 1.0183

                      4                      5                      6
                      A                      A                      A
 Frequencies --    132.5764               196.3089               232.5894
 Red. masses --      5.2966                 6.0722                 5.9879
 Frc consts  --      0.0549                 0.1379                 0.1909
 IR Inten    --      1.0617                 0.0006                 0.7615

                      7                      8                      9
                      A                      A                      A
 Frequencies --    269.8256               308.0085               322.5153
 Red. masses --      7.5003                 5.3442                 6.5866
 Frc consts  --      0.3217                 0.2987                 0.4037
 IR Inten    --      4.8689                 1.2853                 5.4693

                     10                     11                     12
                      A                      A                      A
 Frequencies --    399.2856               429.0910               447.1348
 Red. masses --      9.8494                 3.2640                 3.5776
 Frc consts  --      0.9252                 0.3541                 0.4214
 IR Inten    --      4.2318                 0.4314                10.1113

                     13                     14                     15
                      A                      A                      A
 Frequencies --    506.8926               528.6378               539.5755
 Red. masses --      8.3258                 2.7935                 8.6560
 Frc consts  --      1.2604                 0.4600                 1.4848
 IR Inten    --      9.4418                 6.3084                 9.4659

                     16                     17                     18
                      A                      A                      A
 Frequencies --    558.3173               562.0145               585.4514
 Red. masses --      6.6560                 3.7758                 7.0976
 Frc consts  --      1.2224                 0.7027                 1.4333
 IR Inten    --      1.1921                 0.0038                37.4848

                     19                     20                     21
                      A                      A                      A
 Frequencies --    632.9737               658.3029               709.3565
 Red. masses --      5.0979                 5.8621                 6.1508
 Frc consts  --      1.2034                 1.4968                 1.8235
 IR Inten    --      1.0727                 4.6652                38.1053

                     22                     23                     24
                      A                      A                      A
 Frequencies --    740.4008               751.0520               758.3372
 Red. masses --      8.1727                 2.5181                 1.6195
 Frc consts  --      2.6397                 0.8369                 0.5487
 IR Inten    --     59.2386                 1.7614                64.6315

                     25                     26                     27
                      A                      A                      A
 Frequencies --    768.0058               777.1611               800.2058
 Red. masses --      1.4862                 1.5449                 1.4634
 Frc consts  --      0.5165                 0.5498                 0.5521
 IR Inten    --      9.9629                40.0175                75.1001

                     28                     29                     30
                      A                      A                      A
 Frequencies --    834.6750               878.4692               883.3331
 Red. masses --      6.0898                 1.9679                 1.3785
 Frc consts  --      2.4997                 0.8948                 0.6337
 IR Inten    --     19.6671                18.5093                 1.7965

                     31                     32                     33
                      A                      A                      A
 Frequencies --    886.0794               963.4371               969.1302
 Red. masses --      4.3365                 4.5616                 1.3216
 Frc consts  --      2.0060                 2.4947                 0.7314
 IR Inten    --      2.5512                39.3387                 0.2206

                     34                     35                     36
                      A                      A                      A
 Frequencies --    972.1253              1015.3314              1016.6705
 Red. masses --      1.3580                 1.3029                 1.3054
 Frc consts  --      0.7561                 0.7914                 0.7949
 IR Inten    --      1.4726                 0.0175                 0.3815

                     37                     38                     39
                      A                      A                      A
 Frequencies --   1044.1096              1055.6456              1085.9069
 Red. masses --      2.1575                 2.0453                 3.8838
 Frc consts  --      1.3857                 1.3429                 2.6983
 IR Inten    --     11.0313                12.5447                23.5383

                     40                     41                     42
                      A                      A                      A
 Frequencies --   1126.1886              1155.5037              1160.4038
 Red. masses --      2.0600                 1.3390                 1.1861
 Frc consts  --      1.5394                 1.0534                 0.9410
 IR Inten    --    109.3659                 4.0969                78.5572

                     43                     44                     45
                      A                      A                      A
 Frequencies --   1183.7903              1198.4150              1258.3289
 Red. masses --      1.1460                 1.2612                 1.8914
 Frc consts  --      0.9462                 1.0672                 1.7645
 IR Inten    --     11.8610                21.4947                 9.0935

                     46                     47                     48
                      A                      A                      A
 Frequencies --   1289.5419              1307.9223              1366.9218
 Red. masses --      1.5553                 2.7222                 2.8796
 Frc consts  --      1.5239                 2.7437                 3.1700
 IR Inten    --      6.9130               150.2489                36.3135

                     49                     50                     51
                      A                      A                      A
 Frequencies --   1388.9317              1390.9425              1418.5289
 Red. masses --      5.0555                 7.8551                 2.3581
 Frc consts  --      5.7462                 8.9541                 2.7956
 IR Inten    --     97.2969                35.3698                14.4038

                     52                     53                     54
                      A                      A                      A
 Frequencies --   1493.7623              1507.5504              1526.1562
 Red. masses --      2.7154                 2.8254                 3.2490
 Frc consts  --      3.5698                 3.7833                 4.4586
 IR Inten    --     36.4411               390.0449               132.9582

                     55                     56                     57
                      A                      A                      A
 Frequencies --   1562.3988              1603.1571              1633.8966
 Red. masses --      4.2445                 5.9138                 7.3067
 Frc consts  --      6.1046                 8.9551                11.4926
 IR Inten    --   1387.1118               230.3389               208.8707

                     58                     59                     60
                      A                      A                      A
 Frequencies --   1680.0327              1685.0835              1715.2743
 Red. masses --      7.2685                 7.2144                 6.9852
 Frc consts  --     12.0873                12.0697                12.1087
 IR Inten    --      1.1568               181.2558               289.3828

                     61                     62                     63
                      A                      A                      A
 Frequencies --   3181.2938              3192.6986              3217.4291
 Red. masses --      1.0892                 1.0880                 1.0866
 Frc consts  --      6.4947                 6.5343                 6.6271
 IR Inten    --      4.8222                15.1624                 1.7169

                     64                     65                     66
                      A                      A                      A
 Frequencies --   3219.6741              3227.9677              3233.4954
 Red. masses --      1.0945                 1.0908                 1.0969
 Frc consts  --      6.6850                 6.6968                 6.7569
 IR Inten    --     26.0798                 2.4003                19.0211

                     67                     68                     69
                      A                      A                      A
 Frequencies --   3236.8917              3243.5179              3418.0090
 Red. masses --      1.0964                 1.1000                 1.0851
 Frc consts  --      6.7680                 6.8181                 7.4688
 IR Inten    --      4.7775                11.5730               256.8750

 - Thermochemistry -
 -------------------
 Temperature   298.150 Kelvin.  Pressure   1.00000 Atm.
 Atom     1 has atomic number  6 and mass  12.00000

 Molecular mass:   227.04049 amu.
 Principal axes and moments of inertia in atomic units:
                           1         2         3
     Eigenvalues --  1301.036946336.983637638.02057
           X           -0.70492   0.70928   0.00000
           Y            0.70928   0.70492  -0.00001
           Z            0.00001   0.00001   1.00000
 This molecule is an asymmetric top.
 Rotational symmetry number  1.
 Warning -- assumption of classical behavior for rotation
           may cause significant error
 Rotational temperatures (Kelvin)      0.06657     0.01367     0.01134
 Rotational constants (GHZ):           1.38716     0.28479     0.23628
 Zero-point vibrational energy     498117.5 (Joules/Mol)
                                  119.05293 (Kcal/Mol)
 Warning -- explicit consideration of  18 degrees of freedom as
           vibrations may cause significant error
 Vibrational temperatures:     75.50    95.89   168.30   190.75   282.44
          (Kelvin)            334.64   388.22   443.16   464.03   574.48
                              617.37   643.33   729.31   760.59   776.33
                              803.29   808.61   842.33   910.71   947.15
                             1020.61  1065.27  1080.60  1091.08  1104.99
                             1118.16  1151.32  1200.91  1263.92  1270.92
                             1274.87  1386.17  1394.36  1398.67  1460.84
                             1462.76  1502.24  1518.84  1562.38  1620.33
                             1662.51  1669.56  1703.21  1724.25  1810.45
                             1855.36  1881.81  1966.70  1998.36  2001.26
                             2040.95  2149.19  2169.03  2195.80  2247.94
                             2306.59  2350.81  2417.19  2424.46  2467.90
                             4577.17  4593.58  4629.16  4632.39  4644.33
                             4652.28  4657.17  4666.70  4917.75

 Zero-point correction=                           0.189723 (Hartree/Particle)
 Thermal correction to Energy=                    0.201549
 Thermal correction to Enthalpy=                  0.202493
 Thermal correction to Gibbs Free Energy=         0.151064
 Sum of electronic and zero-point Energies=          -1028.620343
 Sum of electronic and thermal Energies=             -1028.608517
 Sum of electronic and thermal Enthalpies=           -1028.607573
 Sum of electronic and thermal Free Energies=        -1028.659002

                     E (Thermal)             CV                S
                      KCal/Mol        Cal/Mol-Kelvin    Cal/Mol-Kelvin
 Total                  126.474             48.099            108.242
 Electronic               0.000              0.000              0.000
 Translational            0.889              2.981             42.162
 Rotational               0.889              2.981             32.510
 Vibrational            124.696             42.138             33.570
 Vibration     1          0.596              1.977              4.722
 Vibration     2          0.598              1.970              4.250
 Vibration     3          0.608              1.935              3.150
 Vibration     4          0.613              1.921              2.908
 Vibration     5          0.636              1.845              2.167
 Vibration     6          0.653              1.791              1.859
 Vibration     7          0.674              1.729              1.597
 Vibration     8          0.698              1.658              1.373
 Vibration     9          0.708              1.630              1.297
 Vibration    10          0.765              1.472              0.965
 Vibration    11          0.790              1.407              0.862
 Vibration    12          0.806              1.367              0.804
 Vibration    13          0.862              1.235              0.641
 Vibration    14          0.884              1.187              0.590
 Vibration    15          0.895              1.163              0.566
 Vibration    16          0.914              1.122              0.527
 Vibration    17          0.918              1.113              0.520
 Vibration    18          0.942              1.063              0.475

 Optimization completed.
    -- Stationary point found.
 Normal termination of Gaussian 16 at Tue Oct 27 22:25:51 2020.
