 Gaussian 16, Revision C.01,
 Gaussian 16:  ES64L-G16RevC.01  3-Jul-2019

 ----------------------------------------------------------------------
 #p opt=addgic freq wb97xd/cc-pvdz nosymm int=ultrafine scrf=(solvent=C
 arbonTetraChloride)
 ----------------------------------------------------------------------

 ------------------------------------------------
 NM 2D-scan of HBT TD-WB97XD pVDZ in CTC Relaxed.
 ------------------------------------------------
 Symbolic Z-matrix:
 Charge =  0 Multiplicity = 1

 SCF Done:  E(RwB97XD) =  -1028.77579588     A.U. after   15 cycles
 SCF Done:  E(RwB97XD) =  -1028.82509610     A.U. after   13 cycles
 SCF Done:  E(RwB97XD) =  -1028.82886590     A.U. after   13 cycles
 SCF Done:  E(RwB97XD) =  -1028.83016626     A.U. after   12 cycles
 SCF Done:  E(RwB97XD) =  -1028.83027389     A.U. after   10 cycles
 SCF Done:  E(RwB97XD) =  -1028.83029190     A.U. after    9 cycles
 Optimization completed.
    -- Stationary point found.
 Normal termination of Gaussian 16 at Wed Oct 28 00:42:18 2020.

 --------------------------------------------------------------------
 #P Geom=AllCheck Guess=TCheck SCRF=Check GenChk RwB97XD/CC-pVDZ Freq
 --------------------------------------------------------------------

 Structure from the checkpoint file:  "config_2_16.chk"
 ------------------------------------------------
 NM 2D-scan of HBT TD-WB97XD pVDZ in CTC Relaxed.
 ------------------------------------------------
 Charge =  0 Multiplicity = 1

                          Input orientation:
 ---------------------------------------------------------------------
 Center     Atomic      Atomic             Coordinates (Angstroms)
 Number     Number       Type             X           Y           Z
 ---------------------------------------------------------------------
      1          6           0        1.558847   -3.293504   -0.000011
      2          6           0        0.983478   -2.022518   -0.000003
      3          6           0        1.756845   -0.846382   -0.000027
      4          6           0        3.154883   -0.950317   -0.000063
      5          6           0        3.732459   -2.214147   -0.000070
      6          6           0        2.944410   -3.376982   -0.000043
      7          1           0        0.938934   -4.190522    0.000006
      8          1           0        3.766012   -0.047041   -0.000082
      9          1           0        4.819691   -2.305420   -0.000097
     10          1           0        3.424997   -4.356423   -0.000051
     11          7           0        1.014289    0.328491   -0.000006
     12         16           0       -0.709658   -1.612528    0.000023
     13          6           0       -1.301087    1.121842    0.000060
     14          6           0       -2.663510    0.778175    0.000050
     15          6           0       -0.928438    2.486463    0.000056
     16          6           0       -3.651243    1.747191    0.000008
     17          1           0       -2.952445   -0.275096    0.000059
     18          6           0       -1.938310    3.463461    0.000001
     19          6           0       -3.276234    3.096511   -0.000024
     20          1           0       -4.702895    1.460823   -0.000008
     21          1           0       -1.638780    4.512182   -0.000003
     22          1           0       -4.042628    3.873944   -0.000060
     23          6           0       -0.269364    0.088166    0.000043
     24          8           0        0.348901    2.876620    0.000137
     25          1           0        0.912808    2.061194    0.000227
 ---------------------------------------------------------------------

 SCF Done:  E(RwB97XD) =  -1028.83029190     A.U. after    1 cycles

 Alpha  occ. eigenvalues --  -89.08426 -19.28421 -14.47062 -10.39307 -10.37483
 Alpha  occ. eigenvalues --  -10.34965 -10.34631 -10.32271 -10.32210 -10.31895
 Alpha  occ. eigenvalues --  -10.31650 -10.31537 -10.31506 -10.31421 -10.30334
 Alpha  occ. eigenvalues --  -10.30295  -8.10515  -6.05361  -6.05005  -6.04567
 Alpha  occ. eigenvalues --   -1.16651  -1.08769  -0.97298  -0.96276  -0.91692
 Alpha  occ. eigenvalues --   -0.88566  -0.85453  -0.84681  -0.82849  -0.75461
 Alpha  occ. eigenvalues --   -0.71552  -0.70651  -0.69408  -0.68133  -0.63250
 Alpha  occ. eigenvalues --   -0.60464  -0.58790  -0.58506  -0.56541  -0.54552
 Alpha  occ. eigenvalues --   -0.53985  -0.53190  -0.52938  -0.50765  -0.50459
 Alpha  occ. eigenvalues --   -0.49183  -0.47654  -0.45903  -0.45455  -0.45027
 Alpha  occ. eigenvalues --   -0.44019  -0.43054  -0.42448  -0.39717  -0.37420
 Alpha  occ. eigenvalues --   -0.36204  -0.32021  -0.31760  -0.29227
 Alpha virt. eigenvalues --   -0.00444   0.04897   0.06765   0.07092   0.08017
 Alpha virt. eigenvalues --    0.11465   0.14389   0.15240   0.16902   0.18079
 Alpha virt. eigenvalues --    0.18872   0.20864   0.21564   0.22541   0.22802

 Mulliken charges:
               1
     1  C    0.012807
     2  C   -0.208106
     3  C    0.210855
     4  C   -0.017357
     5  C    0.004034
     6  C    0.001228
     7  H    0.018064
     8  H    0.017915
     9  H    0.019494
    10  H    0.021120
    11  N   -0.349847
    12  S    0.143191
    13  C   -0.042331
    14  C   -0.031086
    15  C    0.061427
    16  C   -0.004226
    17  H    0.020505
    18  C    0.008438
    19  C    0.020996
    20  H    0.010089
    21  H    0.017595
    22  H    0.019167
    23  C    0.084335
    24  O   -0.200400
    25  H    0.162094
 Sum of Mulliken charges =  -0.00000

 Dipole moment (field-independent basis, Debye):
    X=             -0.2223    Y=             -2.4286    Z=              0.0001  Tot=              2.4388
 Quadrupole moment (field-independent basis, Debye-Ang):
   XX=            -82.7135   YY=            -90.0418   ZZ=           -104.0848
   XY=             -7.1578   XZ=              0.0001   YZ=             -0.0000

  Exact polarizability:     273.304     -66.936     254.205      -0.001       0.000      62.904
 Approx polarizability:     261.485     -22.769     241.931      -0.001      -0.000      82.144

                      1                      2                      3
                      A                      A                      A
 Frequencies --     38.9206                62.4001               123.8181
 Red. masses --      5.6877                 5.5233                 5.6635
 Frc consts  --      0.0051                 0.0127                 0.0512
 IR Inten    --      0.1400                 1.0383                 1.3367

                      4                      5                      6
                      A                      A                      A
 Frequencies --    151.6405               197.8572               246.4627
 Red. masses --      5.0213                 6.0288                 5.6163
 Frc consts  --      0.0680                 0.1391                 0.2010
 IR Inten    --      0.0205                 0.7748                 0.0146

                      7                      8                      9
                      A                      A                      A
 Frequencies --    273.2828               306.5486               329.7361
 Red. masses --      7.8103                 6.3568                 5.0726
 Frc consts  --      0.3437                 0.3520                 0.3249
 IR Inten    --      1.3552                 6.6202                 0.0843

                     10                     11                     12
                      A                      A                      A
 Frequencies --    414.1456               438.3540               468.1399
 Red. masses --      9.4824                 3.1188                 3.6702
 Frc consts  --      0.9582                 0.3531                 0.4739
 IR Inten    --      0.2323                 1.8656                 7.9987

                     13                     14                     15
                      A                      A                      A
 Frequencies --    516.8853               519.4841               537.2643
 Red. masses --      8.5496                 5.1912                 3.4505
 Frc consts  --      1.3458                 0.8254                 0.5868
 IR Inten    --      0.0917                 7.7207                 3.6956

                     16                     17                     18
                      A                      A                      A
 Frequencies --    551.3027               576.2945               591.5254
 Red. masses --      7.9842                 3.7489                 7.6963
 Frc consts  --      1.4298                 0.7336                 1.5866
 IR Inten    --      1.9542                 0.0193                 5.6480

                     19                     20                     21
                      A                      A                      A
 Frequencies --    646.4753               678.5115               726.3094
 Red. masses --      5.8689                 6.6654                 6.9559
 Frc consts  --      1.4451                 1.8080                 2.1620
 IR Inten    --      0.1537                 3.2641                28.5203

                     22                     23                     24
                      A                      A                      A
 Frequencies --    739.4230               756.2460               761.0107
 Red. masses --      9.4468                 1.9448                 2.5956
 Frc consts  --      3.0431                 0.6553                 0.8857
 IR Inten    --      9.9610                36.9507                 3.0803

                     25                     26                     27
                      A                      A                      A
 Frequencies --    775.0095               787.0157               820.1705
 Red. masses --      1.3380                 1.9648                 1.2013
 Frc consts  --      0.4735                 0.7170                 0.4761
 IR Inten    --     68.1182                32.2530                72.6094

                     28                     29                     30
                      A                      A                      A
 Frequencies --    848.4301               883.3664               887.8443
 Red. masses --      5.9249                 1.5441                 1.4215
 Frc consts  --      2.5128                 0.7099                 0.6602
 IR Inten    --     19.2005                 3.8449                 1.0368

                     31                     32                     33
                      A                      A                      A
 Frequencies --    889.6837               969.0790               975.9919
 Red. masses --      6.5281                 1.3631                 1.3667
 Frc consts  --      3.0444                 0.7542                 0.7670
 IR Inten    --      3.9979                 1.0319                 1.6510

                     34                     35                     36
                      A                      A                      A
 Frequencies --    996.5102              1011.6625              1015.3285
 Red. masses --      7.6792                 1.3039                 1.3053
 Frc consts  --      4.4929                 0.7863                 0.7928
 IR Inten    --     53.5104                 0.4074                 0.0206

                     37                     38                     39
                      A                      A                      A
 Frequencies --   1051.5915              1070.5552              1103.9204
 Red. masses --      1.9964                 1.9286                 3.7206
 Frc consts  --      1.3007                 1.3023                 2.6714
 IR Inten    --      8.5272                10.5711                 5.9353

                     40                     41                     42
                      A                      A                      A
 Frequencies --   1153.3532              1156.0206              1176.6951
 Red. masses --      1.4462                 1.3566                 1.1312
 Frc consts  --      1.1334                 1.0682                 0.9228
 IR Inten    --      5.0799                 3.4412                39.4106

                     43                     44                     45
                      A                      A                      A
 Frequencies --   1183.6643              1251.9733              1280.9383
 Red. masses --      1.2381                 1.9376                 2.4833
 Frc consts  --      1.0220                 1.7894                 2.4007
 IR Inten    --      0.1928               113.7104                94.6064

                     46                     47                     48
                      A                      A                      A
 Frequencies --   1284.8628              1325.0384              1343.0526
 Red. masses --      1.6806                 2.8163                 4.0845
 Frc consts  --      1.6347                 2.9133                 4.3408
 IR Inten    --     37.2281                24.8966                19.6633

                     49                     50                     51
                      A                      A                      A
 Frequencies --   1370.8158              1379.4133              1467.8668
 Red. masses --      7.5822                 4.4636                 1.9853
 Frc consts  --      8.3946                 5.0041                 2.5203
 IR Inten    --     14.8258                14.7574                26.5112

                     52                     53                     54
                      A                      A                      A
 Frequencies --   1486.9476              1504.7310              1532.3831
 Red. masses --      2.5902                 2.8974                 3.5092
 Frc consts  --      3.3743                 3.8652                 4.8550
 IR Inten    --     49.5961                14.2421                98.7475

                     55                     56                     57
                      A                      A                      A
 Frequencies --   1552.1254              1592.0832              1645.8887
 Red. masses --      2.1059                 6.4430                 6.8001
 Frc consts  --      2.9892                 9.6221                10.8534
 IR Inten    --    154.4107               164.3432                 5.2259

                     58                     59                     60
                      A                      A                      A
 Frequencies --   1670.1725              1679.6989              1708.4896
 Red. masses --      4.4002                 6.7404                 5.3468
 Frc consts  --      7.2318                11.2046                 9.1954
 IR Inten    --    132.0888                13.2565               119.8177

                     61                     62                     63
                      A                      A                      A
 Frequencies --   3204.4510              3209.7714              3212.7156
 Red. masses --      1.0877                 1.0860                 1.0891
 Frc consts  --      6.5806                 6.5923                 6.6232
 IR Inten    --      1.7567                 1.3320                 9.5024

                     64                     65                     66
                      A                      A                      A
 Frequencies --   3220.6090              3230.2602              3230.8427
 Red. masses --      1.0904                 1.0942                 1.0960
 Frc consts  --      6.6639                 6.7269                 6.7402
 IR Inten    --      4.6910                10.9248                10.6667

                     67                     68                     69
                      A                      A                      A
 Frequencies --   3236.9181              3238.6941              3319.5275
 Red. masses --      1.0996                 1.0995                 1.0681
 Frc consts  --      6.7884                 6.7947                 6.9348
 IR Inten    --     18.2978                14.5828               783.4085

 - Thermochemistry -
 -------------------
 Temperature   298.150 Kelvin.  Pressure   1.00000 Atm.
 Atom     1 has atomic number  6 and mass  12.00000

 Molecular mass:   227.04049 amu.
 Principal axes and moments of inertia in atomic units:
                           1         2         3
     Eigenvalues --  1295.296336350.111917645.40823
           X           -0.69830   0.71581   0.00000
           Y            0.71581   0.69830  -0.00001
           Z            0.00001   0.00000   1.00000
 This molecule is an asymmetric top.
 Rotational symmetry number  1.
 Warning -- assumption of classical behavior for rotation
           may cause significant error
 Rotational temperatures (Kelvin)      0.06687     0.01364     0.01133
 Rotational constants (GHZ):           1.39330     0.28421     0.23606
 Zero-point vibrational energy     499968.5 (Joules/Mol)
                                  119.49533 (Kcal/Mol)
 Warning -- explicit consideration of  18 degrees of freedom as
           vibrations may cause significant error
 Vibrational temperatures:     56.00    89.78   178.15   218.18   284.67
          (Kelvin)            354.60   393.19   441.06   474.42   595.86
                              630.69   673.55   743.68   747.42   773.00
                              793.20   829.16   851.07   930.13   976.23
                             1045.00  1063.86  1088.07  1094.92  1115.07
                             1132.34  1180.04  1220.70  1270.97  1277.41
                             1280.06  1394.29  1404.23  1433.76  1455.56
                             1460.83  1513.01  1540.29  1588.30  1659.42
                             1663.26  1693.00  1703.03  1801.31  1842.98
                             1848.63  1906.43  1932.35  1972.30  1984.67
                             2111.93  2139.39  2164.97  2204.76  2233.16
                             2290.65  2368.07  2403.01  2416.71  2458.14
                             4610.49  4618.15  4622.38  4633.74  4647.62
                             4648.46  4657.20  4659.76  4776.06

 Zero-point correction=                           0.190428 (Hartree/Particle)
 Thermal correction to Energy=                    0.202106
 Thermal correction to Enthalpy=                  0.203050
 Thermal correction to Gibbs Free Energy=         0.151690
 Sum of electronic and zero-point Energies=          -1028.639864
 Sum of electronic and thermal Energies=             -1028.628186
 Sum of electronic and thermal Enthalpies=           -1028.627242
 Sum of electronic and thermal Free Energies=        -1028.678602

                     E (Thermal)             CV                S
                      KCal/Mol        Cal/Mol-Kelvin    Cal/Mol-Kelvin
 Total                  126.823             47.556            108.097
 Electronic               0.000              0.000              0.000
 Translational            0.889              2.981             42.162
 Rotational               0.889              2.981             32.508
 Vibrational            125.046             41.595             33.426
 Vibration     1          0.594              1.981              5.313
 Vibration     2          0.597              1.972              4.380
 Vibration     3          0.610              1.929              3.040
 Vibration     4          0.619              1.901              2.652
 Vibration     5          0.637              1.843              2.153
 Vibration     6          0.661              1.769              1.756
 Vibration     7          0.676              1.723              1.575
 Vibration     8          0.697              1.661              1.381
 Vibration     9          0.713              1.616              1.261
 Vibration    10          0.778              1.440              0.912
 Vibration    11          0.799              1.387              0.832
 Vibration    12          0.825              1.321              0.743
 Vibration    13          0.872              1.213              0.617
 Vibration    14          0.874              1.207              0.611
 Vibration    15          0.892              1.168              0.571
 Vibration    16          0.907              1.137              0.541
 Vibration    17          0.933              1.083              0.492
 Vibration    18          0.949              1.050              0.464

 Optimization completed.
    -- Stationary point found.
 Normal termination of Gaussian 16 at Wed Oct 28 00:48:13 2020.
