 Gaussian 16, Revision C.01,
 Gaussian 16:  ES64L-G16RevC.01  3-Jul-2019

 ----------------------------------------------------------------------
 #p opt=addgic freq wb97xd/cc-pvdz nosymm int=ultrafine scrf=(solvent=C
 arbonTetraChloride)
 ----------------------------------------------------------------------

 ------------------------------------------------
 NM 2D-scan of HBT TD-WB97XD pVDZ in CTC Relaxed.
 ------------------------------------------------
 Symbolic Z-matrix:
 Charge =  0 Multiplicity = 1

 SCF Done:  E(RwB97XD) =  -1028.81447935     A.U. after   15 cycles
 SCF Done:  E(RwB97XD) =  -1028.82108520     A.U. after   13 cycles
 SCF Done:  E(RwB97XD) =  -1028.82020869     A.U. after   13 cycles
 SCF Done:  E(RwB97XD) =  -1028.82281448     A.U. after   12 cycles
 SCF Done:  E(RwB97XD) =  -1028.82285100     A.U. after   10 cycles
 SCF Done:  E(RwB97XD) =  -1028.82285451     A.U. after   10 cycles
 SCF Done:  E(RwB97XD) =  -1028.82285581     A.U. after    9 cycles
 Optimization completed.
    -- Stationary point found.
 Normal termination of Gaussian 16 at Tue Oct 27 22:11:06 2020.

 --------------------------------------------------------------------
 #P Geom=AllCheck Guess=TCheck SCRF=Check GenChk RwB97XD/CC-pVDZ Freq
 --------------------------------------------------------------------

 Structure from the checkpoint file:  "config_6_6.chk"
 ------------------------------------------------
 NM 2D-scan of HBT TD-WB97XD pVDZ in CTC Relaxed.
 ------------------------------------------------
 Charge =  0 Multiplicity = 1

                          Input orientation:
 ---------------------------------------------------------------------
 Center     Atomic      Atomic             Coordinates (Angstroms)
 Number     Number       Type             X           Y           Z
 ---------------------------------------------------------------------
      1          6           0        1.689193   -3.264128   -0.000029
      2          6           0        1.002515   -2.049615    0.000039
      3          6           0        1.692318   -0.831327    0.000005
      4          6           0        3.090700   -0.799749   -0.000093
      5          6           0        3.773259   -2.008310   -0.000158
      6          6           0        3.079312   -3.228122   -0.000129
      7          1           0        1.154363   -4.214090   -0.000010
      8          1           0        3.615099    0.156122   -0.000118
      9          1           0        4.864114   -2.010514   -0.000236
     10          1           0        3.637056   -4.165562   -0.000186
     11          7           0        0.853323    0.259689    0.000068
     12         16           0       -0.733210   -1.749742    0.000157
     13          6           0       -1.394740    1.061808    0.000141
     14          6           0       -2.782969    0.865723    0.000070
     15          6           0       -0.857698    2.386934    0.000124
     16          6           0       -3.659169    1.941616   -0.000065
     17          1           0       -3.176708   -0.154099    0.000084
     18          6           0       -1.770844    3.465476   -0.000043
     19          6           0       -3.138845    3.243468   -0.000134
     20          1           0       -4.736338    1.774324   -0.000136
     21          1           0       -1.361342    4.476477   -0.000061
     22          1           0       -3.819329    4.097543   -0.000244
     23          6           0       -0.424560   -0.026438    0.000166
     24          8           0        0.436983    2.608082    0.000313
     25          1           0        0.898525    1.646826    0.000565
 ---------------------------------------------------------------------

 SCF Done:  E(RwB97XD) =  -1028.82285581     A.U. after    1 cycles

 Alpha  occ. eigenvalues --  -89.09220 -19.25921 -14.47385 -10.39906 -10.36939
 Alpha  occ. eigenvalues --  -10.35362 -10.35145 -10.32636 -10.32010 -10.31895
 Alpha  occ. eigenvalues --  -10.31842 -10.31788 -10.31686 -10.31164 -10.29884
 Alpha  occ. eigenvalues --  -10.29663  -8.11235  -6.06096  -6.05730  -6.05279
 Alpha  occ. eigenvalues --   -1.15285  -1.09537  -0.97519  -0.95858  -0.91960
 Alpha  occ. eigenvalues --   -0.88727  -0.85561  -0.84174  -0.83048  -0.75642
 Alpha  occ. eigenvalues --   -0.71472  -0.70529  -0.69233  -0.68427  -0.63288
 Alpha  occ. eigenvalues --   -0.60792  -0.59111  -0.58026  -0.56136  -0.54603
 Alpha  occ. eigenvalues --   -0.54508  -0.53446  -0.52486  -0.51086  -0.49948
 Alpha  occ. eigenvalues --   -0.49728  -0.47328  -0.46186  -0.45289  -0.45112
 Alpha  occ. eigenvalues --   -0.43939  -0.42972  -0.42479  -0.40102  -0.36281
 Alpha  occ. eigenvalues --   -0.35791  -0.32547  -0.31554  -0.28526
 Alpha virt. eigenvalues --   -0.00617   0.04543   0.06844   0.07465   0.07630
 Alpha virt. eigenvalues --    0.11179   0.13888   0.15032   0.16248   0.17854
 Alpha virt. eigenvalues --    0.19083   0.20815   0.21766   0.22474   0.22679

 Mulliken charges:
               1
     1  C    0.010611
     2  C   -0.231534
     3  C    0.262648
     4  C   -0.011812
     5  C    0.007585
     6  C    0.001648
     7  H    0.020807
     8  H    0.023115
     9  H    0.022179
    10  H    0.022993
    11  N   -0.324984
    12  S    0.160026
    13  C   -0.088404
    14  C   -0.016715
    15  C    0.092028
    16  C   -0.015089
    17  H    0.008075
    18  C   -0.003046
    19  C    0.022066
    20  H    0.007850
    21  H    0.011907
    22  H    0.016899
    23  C    0.080814
    24  O   -0.260964
    25  H    0.181297
 Sum of Mulliken charges =  -0.00000

 Dipole moment (field-independent basis, Debye):
    X=              0.4591    Y=             -3.2337    Z=              0.0000  Tot=              3.2661
 Quadrupole moment (field-independent basis, Debye-Ang):
   XX=            -82.7295   YY=            -90.8281   ZZ=           -104.0412
   XY=             -7.1758   XZ=              0.0001   YZ=             -0.0005

  Exact polarizability:     276.762     -69.438     259.016      -0.002      -0.001      62.948
 Approx polarizability:     263.699     -24.598     244.200      -0.001      -0.001      82.197

                      1                      2                      3
                      A                      A                      A
 Frequencies --     19.3654                64.3715               124.2852
 Red. masses --      5.4279                 6.0886                 5.5745
 Frc consts  --      0.0012                 0.0149                 0.0507
 IR Inten    --      0.0244                 1.4583                 3.1300

                      4                      5                      6
                      A                      A                      A
 Frequencies --    152.9843               197.6920               243.9286
 Red. masses --      5.0265                 5.8964                 5.7693
 Frc consts  --      0.0693                 0.1358                 0.2023
 IR Inten    --      0.2159                 0.4146                 0.1388

                      7                      8                      9
                      A                      A                      A
 Frequencies --    272.4375               326.3993               340.9290
 Red. masses --      7.2958                 5.1872                 5.8114
 Frc consts  --      0.3190                 0.3256                 0.3980
 IR Inten    --      0.8083                 0.3566                23.1750

                     10                     11                     12
                      A                      A                      A
 Frequencies --    412.8517               436.1575               461.6990
 Red. masses --     10.3587                 3.1309                 3.6431
 Frc consts  --      1.0403                 0.3509                 0.4575
 IR Inten    --      0.3911                 2.0468                 8.2973

                     13                     14                     15
                      A                      A                      A
 Frequencies --    513.7463               522.1717               539.6234
 Red. masses --      7.1361                 5.7631                 3.4397
 Frc consts  --      1.1097                 0.9258                 0.5901
 IR Inten    --     10.0698                36.1176                 3.6531

                     16                     17                     18
                      A                      A                      A
 Frequencies --    558.8103               573.9274               591.8572
 Red. masses --      7.1246                 3.6747                 7.6685
 Frc consts  --      1.3108                 0.7132                 1.5827
 IR Inten    --     10.4665                 0.1005                 2.4848

                     19                     20                     21
                      A                      A                      A
 Frequencies --    648.8632               688.1615               717.0142
 Red. masses --      6.4317                 6.2998                 6.6454
 Frc consts  --      1.5954                 1.7578                 2.0129
 IR Inten    --      0.0168                14.5505                23.5126

                     22                     23                     24
                      A                      A                      A
 Frequencies --    755.2370               763.6438               768.4282
 Red. masses --      2.1320                 9.9741                 2.4842
 Frc consts  --      0.7165                 3.4269                 0.8642
 IR Inten    --     22.2556                15.1389                 8.3281

                     25                     26                     27
                      A                      A                      A
 Frequencies --    775.9089               784.6900               850.7966
 Red. masses --      1.5420                 1.8131                 5.9525
 Frc consts  --      0.5469                 0.6578                 2.5387
 IR Inten    --     57.2190                39.2080                15.7889

                     28                     29                     30
                      A                      A                      A
 Frequencies --    882.4744               886.5635               915.0411
 Red. masses --      1.5858                 1.4067                 6.7052
 Frc consts  --      0.7276                 0.6514                 3.3078
 IR Inten    --      5.5331                 0.3258                 2.7475

                     31                     32                     33
                      A                      A                      A
 Frequencies --    969.4025               975.9113              1002.3824
 Red. masses --      1.3539                 1.3610                 7.2531
 Frc consts  --      0.7496                 0.7637                 4.2938
 IR Inten    --      1.1889                 1.0258                64.2585

                     34                     35                     36
                      A                      A                      A
 Frequencies --   1010.5415              1016.4905              1053.9488
 Red. masses --      1.3004                 1.3046                 2.0249
 Frc consts  --      0.7824                 0.7942                 1.3252
 IR Inten    --      0.1833                 0.0075                 9.4607

                     37                     38                     39
                      A                      A                      A
 Frequencies --   1064.6509              1091.3371              1099.3864
 Red. masses --      1.9203                 1.0631                 4.0535
 Frc consts  --      1.2825                 0.7460                 2.8865
 IR Inten    --      8.4487                70.2911                 4.2565

                     40                     41                     42
                      A                      A                      A
 Frequencies --   1147.0378              1154.1494              1169.9975
 Red. masses --      1.4740                 1.3130                 1.1531
 Frc consts  --      1.1426                 1.0305                 0.9300
 IR Inten    --     22.7538                 2.8037                33.0221

                     43                     44                     45
                      A                      A                      A
 Frequencies --   1185.0353              1255.6765              1286.2112
 Red. masses --      1.1825                 1.7690                 1.8798
 Frc consts  --      0.9784                 1.6434                 1.8322
 IR Inten    --      0.0773               126.0325                14.5716

                     46                     47                     48
                      A                      A                      A
 Frequencies --   1295.5397              1311.9170              1356.5045
 Red. masses --      2.3517                 3.0696                 5.8681
 Frc consts  --      2.3256                 3.1127                 6.3620
 IR Inten    --     25.3785               301.5054                 0.4036

                     49                     50                     51
                      A                      A                      A
 Frequencies --   1379.6080              1384.5099              1445.9168
 Red. masses --      5.0051                 3.4534                 2.3417
 Frc consts  --      5.6128                 3.9002                 2.8845
 IR Inten    --      7.4940                18.7089                14.4641

                     52                     53                     54
                      A                      A                      A
 Frequencies --   1493.3398              1499.7548              1523.9210
 Red. masses --      2.7743                 2.7835                 4.0825
 Frc consts  --      3.6452                 3.6888                 5.5860
 IR Inten    --      9.4221                33.3479                77.6954

                     55                     56                     57
                      A                      A                      A
 Frequencies --   1579.2878              1604.5182              1656.9195
 Red. masses --      6.6650                 3.4665                 6.4274
 Frc consts  --      9.7944                 5.2581                10.3965
 IR Inten    --    289.1919                49.8105                77.0213

                     58                     59                     60
                      A                      A                      A
 Frequencies --   1668.6868              1699.0541              1721.1911
 Red. masses --      5.4328                 7.0564                 1.9882
 Frc consts  --      8.9130                12.0019                 3.4703
 IR Inten    --    317.3546               223.5177               504.2192

                     61                     62                     63
                      A                      A                      A
 Frequencies --   2079.8453              3190.8146              3203.1874
 Red. masses --      1.1266                 1.0896                 1.0884
 Frc consts  --      2.8714                 6.5361                 6.5797
 IR Inten    --   1309.5734                 4.1780                 6.8924

                     64                     65                     66
                      A                      A                      A
 Frequencies --   3213.5803              3224.9826              3225.4834
 Red. masses --      1.0865                 1.0908                 1.0939
 Frc consts  --      6.6106                 6.6841                 6.7050
 IR Inten    --      2.2274                 3.7038                13.2254

                     67                     68                     69
                      A                      A                      A
 Frequencies --   3234.8347              3235.7096              3241.2674
 Red. masses --      1.0982                 1.0960                 1.0996
 Frc consts  --      6.7708                 6.7607                 6.8066
 IR Inten    --     18.4369                 8.5372                12.3226

 - Thermochemistry -
 -------------------
 Temperature   298.150 Kelvin.  Pressure   1.00000 Atm.
 Atom     1 has atomic number  6 and mass  12.00000

 Molecular mass:   227.04049 amu.
 Principal axes and moments of inertia in atomic units:
                           1         2         3
     Eigenvalues --  1303.067326268.901297571.96858
           X           -0.70499   0.70922   0.00001
           Y            0.70922   0.70499  -0.00001
           Z            0.00001  -0.00000   1.00000
 This molecule is an asymmetric top.
 Rotational symmetry number  1.
 Warning -- assumption of classical behavior for rotation
           may cause significant error
 Rotational temperatures (Kelvin)      0.06647     0.01382     0.01144
 Rotational constants (GHZ):           1.38499     0.28789     0.23835
 Zero-point vibrational energy     494910.6 (Joules/Mol)
                                  118.28648 (Kcal/Mol)
 Warning -- explicit consideration of  18 degrees of freedom as
           vibrations may cause significant error
 Vibrational temperatures:     27.86    92.62   178.82   220.11   284.43
          (Kelvin)            350.96   391.98   469.62   490.52   594.00
                              627.53   664.28   739.17   751.29   776.40
                              804.00   825.75   851.55   933.57   990.11
                             1031.62  1086.62  1098.71  1105.60  1116.36
                             1128.99  1224.11  1269.68  1275.57  1316.54
                             1394.75  1404.12  1442.20  1453.94  1462.50
                             1516.40  1531.80  1570.19  1581.77  1650.33
                             1660.56  1683.37  1705.00  1806.64  1850.57
                             1863.99  1887.56  1951.71  1984.95  1992.00
                             2080.35  2148.58  2157.81  2192.58  2272.24
                             2308.54  2383.94  2400.87  2444.56  2476.41
                             2992.43  4590.87  4608.67  4623.63  4640.03
                             4640.75  4654.21  4655.46  4663.46

 Zero-point correction=                           0.188501 (Hartree/Particle)
 Thermal correction to Energy=                    0.200123
 Thermal correction to Enthalpy=                  0.201067
 Thermal correction to Gibbs Free Energy=         0.149236
 Sum of electronic and zero-point Energies=          -1028.634354
 Sum of electronic and thermal Energies=             -1028.622733
 Sum of electronic and thermal Enthalpies=           -1028.621789
 Sum of electronic and thermal Free Energies=        -1028.673620

                     E (Thermal)             CV                S
                      KCal/Mol        Cal/Mol-Kelvin    Cal/Mol-Kelvin
 Total                  125.579             47.082            109.087
 Electronic               0.000              0.000              0.000
 Translational            0.889              2.981             42.162
 Rotational               0.889              2.981             32.492
 Vibrational            123.801             41.121             34.433
 Vibration     1          0.593              1.986              6.698
 Vibration     2          0.597              1.971              4.318
 Vibration     3          0.610              1.929              3.033
 Vibration     4          0.619              1.899              2.635
 Vibration     5          0.637              1.843              2.154
 Vibration     6          0.659              1.773              1.774
 Vibration     7          0.675              1.724              1.581
 Vibration     8          0.710              1.623              1.278
 Vibration     9          0.720              1.594              1.208
 Vibration    10          0.777              1.442              0.917
 Vibration    11          0.797              1.391              0.839
 Vibration    12          0.819              1.335              0.761
 Vibration    13          0.869              1.220              0.625
 Vibration    14          0.877              1.201              0.605
 Vibration    15          0.895              1.162              0.566
 Vibration    16          0.914              1.120              0.526
 Vibration    17          0.930              1.088              0.497
 Vibration    18          0.949              1.049              0.464

 Optimization completed.
    -- Stationary point found.
 Normal termination of Gaussian 16 at Tue Oct 27 22:17:44 2020.
