 Gaussian 16, Revision C.01,
 Gaussian 16:  ES64L-G16RevC.01  3-Jul-2019

 ----------------------------------------------------------------------
 #p opt=addgic freq wb97xd/cc-pvdz nosymm int=ultrafine scrf=(solvent=C
 arbonTetraChloride)
 ----------------------------------------------------------------------

 ------------------------------------------------
 NM 2D-scan of HBT TD-WB97XD pVDZ in CTC Relaxed.
 ------------------------------------------------
 Symbolic Z-matrix:
 Charge =  0 Multiplicity = 1

 SCF Done:  E(RwB97XD) =  -1028.77847379     A.U. after   16 cycles
 SCF Done:  E(RwB97XD) =  -1028.80715178     A.U. after   13 cycles
 SCF Done:  E(RwB97XD) =  -1028.80873867     A.U. after   13 cycles
 SCF Done:  E(RwB97XD) =  -1028.80960118     A.U. after   12 cycles
 SCF Done:  E(RwB97XD) =  -1028.80982006     A.U. after   11 cycles
 SCF Done:  E(RwB97XD) =  -1028.80982530     A.U. after    9 cycles
 Optimization completed.
    -- Stationary point found.
 Normal termination of Gaussian 16 at Tue Oct 27 22:04:28 2020.

 --------------------------------------------------------------------
 #P Geom=AllCheck Guess=TCheck SCRF=Check GenChk RwB97XD/CC-pVDZ Freq
 --------------------------------------------------------------------

 Structure from the checkpoint file:  "config_10_7.chk"
 ------------------------------------------------
 NM 2D-scan of HBT TD-WB97XD pVDZ in CTC Relaxed.
 ------------------------------------------------
 Charge =  0 Multiplicity = 1

                          Input orientation:
 ---------------------------------------------------------------------
 Center     Atomic      Atomic             Coordinates (Angstroms)
 Number     Number       Type             X           Y           Z
 ---------------------------------------------------------------------
      1          6           0        1.682354   -3.270591   -0.000032
      2          6           0        1.006130   -2.053249   -0.000020
      3          6           0        1.714203   -0.854793   -0.000009
      4          6           0        3.107816   -0.820510   -0.000008
      5          6           0        3.779731   -2.037538   -0.000019
      6          6           0        3.075540   -3.247921   -0.000032
      7          1           0        1.139528   -4.215809   -0.000042
      8          1           0        3.640924    0.130404    0.000001
      9          1           0        4.870305   -2.047076   -0.000018
     10          1           0        3.623416   -4.190774   -0.000041
     11          7           0        0.858988    0.222751   -0.000005
     12         16           0       -0.738258   -1.729392   -0.000014
     13          6           0       -1.387692    1.071861    0.000005
     14          6           0       -2.791357    0.863532    0.000005
     15          6           0       -0.830819    2.427051    0.000021
     16          6           0       -3.673314    1.917027    0.000028
     17          1           0       -3.175254   -0.161041   -0.000012
     18          6           0       -1.816539    3.491069    0.000049
     19          6           0       -3.163875    3.243376    0.000054
     20          1           0       -4.748650    1.738545    0.000029
     21          1           0       -1.427135    4.510773    0.000064
     22          1           0       -3.864526    4.082294    0.000074
     23          6           0       -0.458259   -0.002029   -0.000007
     24          8           0        0.402778    2.661306    0.000006
     25          1           0        1.166586    1.197539    0.000004
 ---------------------------------------------------------------------

 SCF Done:  E(RwB97XD) =  -1028.80982530     A.U. after    1 cycles

 Alpha  occ. eigenvalues --  -89.10125 -19.21630 -14.51330 -10.41437 -10.36953
 Alpha  occ. eigenvalues --  -10.36205 -10.35984 -10.33335 -10.32888 -10.32540
 Alpha  occ. eigenvalues --  -10.32298 -10.31215 -10.30757 -10.30677 -10.29131
 Alpha  occ. eigenvalues --  -10.28576  -8.12119  -6.07006  -6.06621  -6.06128
 Alpha  occ. eigenvalues --   -1.13305  -1.10038  -0.98563  -0.95154  -0.93170
 Alpha  occ. eigenvalues --   -0.89296  -0.86499  -0.83989  -0.81839  -0.75733
 Alpha  occ. eigenvalues --   -0.73177  -0.71798  -0.69231  -0.67956  -0.64667
 Alpha  occ. eigenvalues --   -0.60894  -0.59765  -0.56734  -0.55954  -0.55840
 Alpha  occ. eigenvalues --   -0.55001  -0.53645  -0.52979  -0.50515  -0.49678
 Alpha  occ. eigenvalues --   -0.49069  -0.48209  -0.46717  -0.45597  -0.44787
 Alpha  occ. eigenvalues --   -0.44525  -0.43007  -0.41802  -0.40487  -0.36820
 Alpha  occ. eigenvalues --   -0.33547  -0.31944  -0.31651  -0.26426
 Alpha virt. eigenvalues --   -0.01261   0.03789   0.06082   0.06721   0.09226
 Alpha virt. eigenvalues --    0.11103   0.13096   0.14668   0.16022   0.17318
 Alpha virt. eigenvalues --    0.18910   0.20063   0.21186   0.21627   0.23082

 Mulliken charges:
               1
     1  C    0.012375
     2  C   -0.245792
     3  C    0.256971
     4  C   -0.009823
     5  C    0.012043
     6  C    0.002261
     7  H    0.025210
     8  H    0.031758
     9  H    0.027162
    10  H    0.025989
    11  N   -0.116604
    12  S    0.182007
    13  C   -0.126531
    14  C   -0.006676
    15  C    0.113425
    16  C   -0.032555
    17  H    0.003566
    18  C   -0.022958
    19  C    0.027288
    20  H    0.002772
    21  H    0.001865
    22  H    0.013503
    23  C    0.080386
    24  O   -0.391591
    25  H    0.133949
 Sum of Mulliken charges =  -0.00000

 Dipole moment (field-independent basis, Debye):
    X=              1.7476    Y=             -5.0947    Z=             -0.0000  Tot=              5.3861
 Quadrupole moment (field-independent basis, Debye-Ang):
   XX=            -82.1454   YY=            -94.5948   ZZ=           -104.0290
   XY=             -6.9204   XZ=             -0.0001   YZ=              0.0002

  Exact polarizability:     287.622     -86.659     285.135      -0.001       0.003      62.959
 Approx polarizability:     267.037     -33.224     255.781      -0.001       0.002      82.006

                      1                      2                      3
                      A                      A                      A
 Frequencies --     51.2041                66.7207               114.1723
 Red. masses --      4.8452                 6.2423                 5.6674
 Frc consts  --      0.0075                 0.0164                 0.0435
 IR Inten    --      0.0022                 2.6390                 1.1351

                      4                      5                      6
                      A                      A                      A
 Frequencies --    133.1843               196.4052               233.2011
 Red. masses --      5.2667                 6.0401                 6.0003
 Frc consts  --      0.0550                 0.1373                 0.1923
 IR Inten    --      1.0362                 0.0002                 0.7536

                      7                      8                      9
                      A                      A                      A
 Frequencies --    268.4152               308.0952               321.2112
 Red. masses --      7.4916                 5.3489                 6.4290
 Frc consts  --      0.3180                 0.2991                 0.3908
 IR Inten    --      5.0398                 1.2944                 5.8513

                     10                     11                     12
                      A                      A                      A
 Frequencies --    399.7804               429.4195               447.3158
 Red. masses --     10.0775                 3.2629                 3.5842
 Frc consts  --      0.9490                 0.3545                 0.4225
 IR Inten    --      4.3005                 0.4736                10.1736

                     13                     14                     15
                      A                      A                      A
 Frequencies --    506.7931               529.4570               539.2437
 Red. masses --      8.3180                 2.8111                 8.5496
 Frc consts  --      1.2587                 0.4643                 1.4648
 IR Inten    --      9.2723                 6.2286                 8.7304

                     16                     17                     18
                      A                      A                      A
 Frequencies --    558.3217               562.0670               585.5650
 Red. masses --      6.6495                 3.7656                 7.0485
 Frc consts  --      1.2213                 0.7009                 1.4240
 IR Inten    --      1.4661                 0.0036                37.0203

                     19                     20                     21
                      A                      A                      A
 Frequencies --    633.8687               657.2358               707.9992
 Red. masses --      5.2760                 5.7809                 6.1945
 Frc consts  --      1.2490                 1.4713                 1.8294
 IR Inten    --      0.7973                 5.2055                35.6674

                     22                     23                     24
                      A                      A                      A
 Frequencies --    739.8654               751.3683               759.8890
 Red. masses --      8.2611                 2.6360                 1.5718
 Frc consts  --      2.6644                 0.8768                 0.5347
 IR Inten    --     59.3748                 5.0833                57.6786

                     25                     26                     27
                      A                      A                      A
 Frequencies --    770.9256               777.3658               811.2497
 Red. masses --      1.7027                 1.5513                 1.2852
 Frc consts  --      0.5962                 0.5523                 0.4984
 IR Inten    --     12.5065                37.0103                76.6337

                     28                     29                     30
                      A                      A                      A
 Frequencies --    834.3888               878.7801               883.4248
 Red. masses --      6.0227                 1.9613                 1.3795
 Frc consts  --      2.4705                 0.8924                 0.6343
 IR Inten    --     20.1536                19.4866                 2.3026

                     31                     32                     33
                      A                      A                      A
 Frequencies --    883.4948               960.7549               969.3537
 Red. masses --      4.1205                 4.5719                 1.3219
 Frc consts  --      1.8950                 2.4864                 0.7318
 IR Inten    --      3.3685                41.4387                 0.2403

                     34                     35                     36
                      A                      A                      A
 Frequencies --    972.4151              1015.4781              1016.5218
 Red. masses --      1.3575                 1.3029                 1.3049
 Frc consts  --      0.7563                 0.7916                 0.7945
 IR Inten    --      1.4773                 0.0171                 0.3827

                     37                     38                     39
                      A                      A                      A
 Frequencies --   1043.7621              1055.6778              1083.1593
 Red. masses --      2.1635                 2.0544                 3.8049
 Frc consts  --      1.3887                 1.3490                 2.6301
 IR Inten    --     11.1129                12.6107                27.9787

                     40                     41                     42
                      A                      A                      A
 Frequencies --   1122.2387              1154.9374              1160.0260
 Red. masses --      2.1332                 1.3375                 1.1934
 Frc consts  --      1.5829                 1.0511                 0.9462
 IR Inten    --    107.6081                 5.1435                71.3737

                     43                     44                     45
                      A                      A                      A
 Frequencies --   1183.4817              1195.8476              1258.0641
 Red. masses --      1.1445                 1.2489                 1.8871
 Frc consts  --      0.9445                 1.0523                 1.7597
 IR Inten    --     12.4398                17.4547                 7.9275

                     46                     47                     48
                      A                      A                      A
 Frequencies --   1289.6676              1307.9403              1367.8099
 Red. masses --      1.5500                 2.7347                 2.9045
 Frc consts  --      1.5189                 2.7563                 3.2017
 IR Inten    --      8.1035               148.7824                39.0510

                     49                     50                     51
                      A                      A                      A
 Frequencies --   1387.7861              1390.5096              1418.8922
 Red. masses --      5.7603                 6.6247                 2.3706
 Frc consts  --      6.5364                 7.5468                 2.8120
 IR Inten    --     67.3599                62.3943                15.1595

                     52                     53                     54
                      A                      A                      A
 Frequencies --   1493.3132              1506.9635              1526.0605
 Red. masses --      2.7161                 2.8427                 3.2357
 Frc consts  --      3.5686                 3.8036                 4.4398
 IR Inten    --     35.1966               398.4302               158.9635

                     55                     56                     57
                      A                      A                      A
 Frequencies --   1563.2001              1603.8301              1631.6163
 Red. masses --      4.3045                 5.8703                 7.3493
 Frc consts  --      6.1973                 8.8967                11.5274
 IR Inten    --   1309.4721               243.1304               221.2546

                     58                     59                     60
                      A                      A                      A
 Frequencies --   1679.6555              1685.1720              1714.6919
 Red. masses --      7.2658                 7.2179                 6.8921
 Frc consts  --     12.0774                12.0767                11.9391
 IR Inten    --      1.0986               188.3746               267.1625

                     61                     62                     63
                      A                      A                      A
 Frequencies --   3180.0700              3192.2576              3217.2369
 Red. masses --      1.0893                 1.0880                 1.0866
 Frc consts  --      6.4905                 6.5325                 6.6266
 IR Inten    --      4.8542                15.2532                 1.8103

                     64                     65                     66
                      A                      A                      A
 Frequencies --   3219.4580              3227.8830              3233.0581
 Red. masses --      1.0945                 1.0908                 1.0968
 Frc consts  --      6.6840                 6.6963                 6.7548
 IR Inten    --     25.1642                 2.3562                19.0958

                     67                     68                     69
                      A                      A                      A
 Frequencies --   3236.6885              3243.4161              3369.9533
 Red. masses --      1.0964                 1.0999                 1.0866
 Frc consts  --      6.7675                 6.8174                 7.2709
 IR Inten    --      4.6049                11.8462               280.6112

 - Thermochemistry -
 -------------------
 Temperature   298.150 Kelvin.  Pressure   1.00000 Atm.
 Atom     1 has atomic number  6 and mass  12.00000

 Molecular mass:   227.04049 amu.
 Principal axes and moments of inertia in atomic units:
                           1         2         3
     Eigenvalues --  1304.437196331.465947635.90313
           X           -0.70492   0.70929   0.00000
           Y            0.70929   0.70492  -0.00001
           Z            0.00001   0.00000   1.00000
 This molecule is an asymmetric top.
 Rotational symmetry number  1.
 Warning -- assumption of classical behavior for rotation
           may cause significant error
 Rotational temperatures (Kelvin)      0.06640     0.01368     0.01134
 Rotational constants (GHZ):           1.38354     0.28504     0.23635
 Zero-point vibrational energy     497761.8 (Joules/Mol)
                                  118.96793 (Kcal/Mol)
 Warning -- explicit consideration of  18 degrees of freedom as
           vibrations may cause significant error
 Vibrational temperatures:     73.67    96.00   164.27   191.62   282.58
          (Kelvin)            335.52   386.19   443.28   462.15   575.19
                              617.84   643.59   729.16   761.77   775.85
                              803.30   808.69   842.50   912.00   945.62
                             1018.65  1064.50  1081.05  1093.31  1109.19
                             1118.46  1167.21  1200.50  1264.37  1271.05
                             1271.15  1382.31  1394.68  1399.09  1461.05
                             1462.55  1501.74  1518.88  1558.42  1614.65
                             1661.70  1669.02  1702.77  1720.56  1810.07
                             1855.54  1881.83  1967.97  1996.71  2000.63
                             2041.47  2148.54  2168.18  2195.66  2249.10
                             2307.55  2347.53  2416.65  2424.59  2467.06
                             4575.41  4592.95  4628.89  4632.08  4644.20
                             4651.65  4656.87  4666.55  4848.61

 Zero-point correction=                           0.189587 (Hartree/Particle)
 Thermal correction to Energy=                    0.201419
 Thermal correction to Enthalpy=                  0.202363
 Thermal correction to Gibbs Free Energy=         0.150894
 Sum of electronic and zero-point Energies=          -1028.620238
 Sum of electronic and thermal Energies=             -1028.608406
 Sum of electronic and thermal Enthalpies=           -1028.607462
 Sum of electronic and thermal Free Energies=        -1028.658932

                     E (Thermal)             CV                S
                      KCal/Mol        Cal/Mol-Kelvin    Cal/Mol-Kelvin
 Total                  126.392             48.094            108.327
 Electronic               0.000              0.000              0.000
 Translational            0.889              2.981             42.162
 Rotational               0.889              2.981             32.511
 Vibrational            124.615             42.133             33.653
 Vibration     1          0.595              1.977              4.770
 Vibration     2          0.598              1.970              4.248
 Vibration     3          0.607              1.938              3.197
 Vibration     4          0.613              1.920              2.900
 Vibration     5          0.636              1.845              2.167
 Vibration     6          0.654              1.790              1.854
 Vibration     7          0.673              1.731              1.606
 Vibration     8          0.698              1.658              1.373
 Vibration     9          0.707              1.633              1.304
 Vibration    10          0.766              1.471              0.963
 Vibration    11          0.791              1.406              0.861
 Vibration    12          0.806              1.367              0.804
 Vibration    13          0.862              1.235              0.641
 Vibration    14          0.884              1.185              0.588
 Vibration    15          0.894              1.163              0.567
 Vibration    16          0.914              1.122              0.527
 Vibration    17          0.918              1.113              0.520
 Vibration    18          0.943              1.063              0.475

 Optimization completed.
    -- Stationary point found.
 Normal termination of Gaussian 16 at Tue Oct 27 22:10:46 2020.
