 Gaussian 16, Revision C.01,
 Gaussian 16:  ES64L-G16RevC.01  3-Jul-2019

 ----------------------------------------------------------------------
 #p opt=addgic freq wb97xd/cc-pvdz nosymm int=ultrafine scrf=(solvent=C
 arbonTetraChloride)
 ----------------------------------------------------------------------

 ------------------------------------------------
 NM 2D-scan of HBT TD-WB97XD pVDZ in CTC Relaxed.
 ------------------------------------------------
 Symbolic Z-matrix:
 Charge =  0 Multiplicity = 1

 SCF Done:  E(RwB97XD) =  -1028.44335864     A.U. after   15 cycles
 SCF Done:  E(RwB97XD) =  -1028.73288342     A.U. after   13 cycles
 SCF Done:  E(RwB97XD) =  -1028.81488040     A.U. after   15 cycles
 SCF Done:  E(RwB97XD) =  -1028.82223877     A.U. after   12 cycles
 SCF Done:  E(RwB97XD) =  -1028.82340788     A.U. after   12 cycles
 SCF Done:  E(RwB97XD) =  -1028.82353583     A.U. after   11 cycles
 SCF Done:  E(RwB97XD) =  -1028.82354012     A.U. after    9 cycles
 Optimization completed.
    -- Stationary point found.
 Normal termination of Gaussian 16 at Tue Oct 27 22:12:12 2020.

 --------------------------------------------------------------------
 #P Geom=AllCheck Guess=TCheck SCRF=Check GenChk RwB97XD/CC-pVDZ Freq
 --------------------------------------------------------------------

 Structure from the checkpoint file:  "config_1_7.chk"
 ------------------------------------------------
 NM 2D-scan of HBT TD-WB97XD pVDZ in CTC Relaxed.
 ------------------------------------------------
 Charge =  0 Multiplicity = 1

                          Input orientation:
 ---------------------------------------------------------------------
 Center     Atomic      Atomic             Coordinates (Angstroms)
 Number     Number       Type             X           Y           Z
 ---------------------------------------------------------------------
      1          6           0        1.693875   -3.331599    0.000014
      2          6           0        0.966765   -2.131255   -0.000021
      3          6           0        1.659037   -0.904408   -0.000054
      4          6           0        3.055941   -0.846076   -0.000060
      5          6           0        3.769250   -2.028398   -0.000029
      6          6           0        3.086765   -3.258346    0.000009
      7          1           0        1.194078   -4.300876    0.000036
      8          1           0        3.541873    0.130084   -0.000086
      9          1           0        4.859926   -2.012534   -0.000033
     10          1           0        3.661112   -4.186339    0.000031
     11          7           0        0.890697    0.229029   -0.000067
     12         16           0       -0.763885   -1.794295   -0.000058
     13          6           0       -1.351985    1.088895   -0.000014
     14          6           0       -2.750917    0.879609   -0.000022
     15          6           0       -0.904814    2.446449    0.000033
     16          6           0       -3.653412    1.929530    0.000016
     17          1           0       -3.128945   -0.145893   -0.000061
     18          6           0       -1.829302    3.496982    0.000081
     19          6           0       -3.184428    3.251516    0.000072
     20          1           0       -4.724344    1.726126    0.000006
     21          1           0       -1.424411    4.509269    0.000125
     22          1           0       -3.886511    4.087069    0.000110
     23          6           0       -0.381057   -0.021754   -0.000043
     24          8           0        0.367822    2.891981    0.000062
     25          1           0        0.970704    2.137922    0.000060
 ---------------------------------------------------------------------

 SCF Done:  E(RwB97XD) =  -1028.82354012     A.U. after    1 cycles

 Alpha  occ. eigenvalues --  -89.08709 -19.28809 -14.46556 -10.39501 -10.37660
 Alpha  occ. eigenvalues --  -10.34957 -10.34443 -10.33018 -10.32417 -10.31932
 Alpha  occ. eigenvalues --  -10.31562 -10.31332 -10.31308 -10.31276 -10.30312
 Alpha  occ. eigenvalues --  -10.29996  -8.10598  -6.05469  -6.05116  -6.04636
 Alpha  occ. eigenvalues --   -1.16729  -1.08763  -0.97141  -0.96045  -0.91008
 Alpha  occ. eigenvalues --   -0.88454  -0.85264  -0.84503  -0.82822  -0.75434
 Alpha  occ. eigenvalues --   -0.71312  -0.70676  -0.69499  -0.68008  -0.63008
 Alpha  occ. eigenvalues --   -0.60061  -0.58566  -0.58332  -0.56411  -0.54468
 Alpha  occ. eigenvalues --   -0.53637  -0.53052  -0.52481  -0.50819  -0.50391
 Alpha  occ. eigenvalues --   -0.49112  -0.47836  -0.45722  -0.45237  -0.44897
 Alpha  occ. eigenvalues --   -0.43762  -0.42972  -0.42448  -0.39575  -0.37375
 Alpha  occ. eigenvalues --   -0.36103  -0.31991  -0.31722  -0.29128
 Alpha virt. eigenvalues --   -0.00382   0.04909   0.06731   0.07167   0.07408
 Alpha virt. eigenvalues --    0.11656   0.13048   0.15135   0.15888   0.17551
 Alpha virt. eigenvalues --    0.18931   0.20159   0.21688   0.22430   0.22883

 Mulliken charges:
               1
     1  C   -0.001433
     2  C   -0.206650
     3  C    0.218882
     4  C   -0.012594
     5  C    0.007642
     6  C   -0.002598
     7  H    0.020464
     8  H    0.014563
     9  H    0.018463
    10  H    0.021062
    11  N   -0.312867
    12  S    0.130125
    13  C   -0.058406
    14  C   -0.017506
    15  C    0.059203
    16  C   -0.005645
    17  H    0.011890
    18  C    0.021342
    19  C    0.018689
    20  H    0.010636
    21  H    0.017499
    22  H    0.018306
    23  C    0.065406
    24  O   -0.186490
    25  H    0.150017
 Sum of Mulliken charges =  -0.00000

 Dipole moment (field-independent basis, Debye):
    X=              0.1202    Y=             -1.9010    Z=              0.0001  Tot=              1.9048
 Quadrupole moment (field-independent basis, Debye-Ang):
   XX=            -82.6250   YY=            -89.6827   ZZ=           -104.2917
   XY=             -6.6893   XZ=              0.0000   YZ=              0.0002

  Exact polarizability:     275.108     -65.064     256.587      -0.001       0.002      63.164
 Approx polarizability:     263.442     -22.053     243.769      -0.000       0.001      82.293

                      1                      2                      3
                      A                      A                      A
 Frequencies --     47.8501                54.1484               109.3608
 Red. masses --      6.3903                 5.0829                 5.6601
 Frc consts  --      0.0086                 0.0088                 0.0399
 IR Inten    --      1.0655                 0.0034                 0.9216

                      4                      5                      6
                      A                      A                      A
 Frequencies --    149.1163               199.5700               244.3197
 Red. masses --      4.8561                 5.7012                 5.8414
 Frc consts  --      0.0636                 0.1338                 0.2054
 IR Inten    --      0.0090                 0.2672                 0.1735

                      7                      8                      9
                      A                      A                      A
 Frequencies --    252.5746               285.4096               324.8595
 Red. masses --      8.3176                 6.2069                 4.9640
 Frc consts  --      0.3126                 0.2979                 0.3087
 IR Inten    --      4.5502                 3.9012                 0.7044

                     10                     11                     12
                      A                      A                      A
 Frequencies --    397.2437               440.3772               471.2693
 Red. masses --      8.3957                 3.1716                 3.7373
 Frc consts  --      0.7806                 0.3624                 0.4890
 IR Inten    --      0.2759                 1.7629                10.4782

                     13                     14                     15
                      A                      A                      A
 Frequencies --    488.9608               512.6776               538.8588
 Red. masses --      4.6151                 8.8920                 3.4547
 Frc consts  --      0.6501                 1.3770                 0.5910
 IR Inten    --      3.0875                 0.4917                 3.5677

                     16                     17                     18
                      A                      A                      A
 Frequencies --    545.1500               566.3705               574.0873
 Red. masses --      8.6709                 1.2248                 2.9544
 Frc consts  --      1.5183                 0.2315                 0.5737
 IR Inten    --      2.9708                74.4435                 9.9638

                     19                     20                     21
                      A                      A                      A
 Frequencies --    595.3642               651.9335               674.8116
 Red. masses --      7.7084                 4.8340                 6.4908
 Frc consts  --      1.6098                 1.2105                 1.7415
 IR Inten    --      6.7769                10.9115                 8.4176

                     22                     23                     24
                      A                      A                      A
 Frequencies --    679.2449               717.8003               754.9557
 Red. masses --      9.2483                 7.0779                 1.9558
 Frc consts  --      2.5140                 2.1486                 0.6568
 IR Inten    --     48.5501                 1.9902                22.7716

                     25                     26                     27
                      A                      A                      A
 Frequencies --    765.5068               778.6828               788.4659
 Red. masses --      3.7808                 1.3099                 1.9095
 Frc consts  --      1.3054                 0.4680                 0.6994
 IR Inten    --      7.8290                56.2503                36.3680

                     28                     29                     30
                      A                      A                      A
 Frequencies --    835.6576               886.0430               887.6292
 Red. masses --      6.1906                 1.5245                 1.4423
 Frc consts  --      2.5471                 0.7052                 0.6695
 IR Inten    --     29.3783                 4.1479                 0.4286

                     31                     32                     33
                      A                      A                      A
 Frequencies --    891.5571               968.5158               973.9411
 Red. masses --      6.3737                 7.6377                 1.3549
 Frc consts  --      2.9850                 4.2211                 0.7572
 IR Inten    --      1.9467                73.8596                 1.3328

                     34                     35                     36
                      A                      A                      A
 Frequencies --    976.1358              1011.8029              1014.9430
 Red. masses --      1.3646                 1.3012                 1.3052
 Frc consts  --      0.7661                 0.7848                 0.7921
 IR Inten    --      1.2776                 0.3043                 0.0077

                     37                     38                     39
                      A                      A                      A
 Frequencies --   1049.9196              1071.8021              1091.7469
 Red. masses --      2.0298                 2.0813                 4.7435
 Frc consts  --      1.3183                 1.4087                 3.3312
 IR Inten    --      7.8852                17.3106                 6.1171

                     40                     41                     42
                      A                      A                      A
 Frequencies --   1142.3391              1149.1158              1177.2371
 Red. masses --      1.6135                 1.2708                 1.1186
 Frc consts  --      1.2405                 0.9887                 0.9134
 IR Inten    --     10.2463                 6.6763                52.9547

                     43                     44                     45
                      A                      A                      A
 Frequencies --   1183.5760              1218.7024              1272.0819
 Red. masses --      1.1915                 1.4925                 2.0907
 Frc consts  --      0.9834                 1.3061                 1.9933
 IR Inten    --      0.2086               188.8507                57.0460

                     46                     47                     48
                      A                      A                      A
 Frequencies --   1280.2476              1291.6380              1350.0207
 Red. masses --      1.6271                 4.9732                 2.6764
 Frc consts  --      1.5713                 4.8884                 2.8739
 IR Inten    --      4.1703                32.1649                10.3990

                     49                     50                     51
                      A                      A                      A
 Frequencies --   1364.2915              1372.1048              1392.7987
 Red. masses --      4.0147                 2.7505                 2.7367
 Frc consts  --      4.4027                 3.0509                 3.1279
 IR Inten    --     12.9845                 1.2127                91.5336

                     52                     53                     54
                      A                      A                      A
 Frequencies --   1489.0680              1496.7640              1515.8043
 Red. masses --      2.6395                 3.0135                 3.4265
 Frc consts  --      3.4483                 3.9776                 4.6386
 IR Inten    --     25.5659                13.1714               106.6684

                     55                     56                     57
                      A                      A                      A
 Frequencies --   1528.8378              1607.6761              1640.1817
 Red. masses --      2.8233                 9.0053                 6.3746
 Frc consts  --      3.8880                13.7134                10.1039
 IR Inten    --     41.8348               190.0606                22.9237

                     58                     59                     60
                      A                      A                      A
 Frequencies --   1646.3927              1685.6989              1709.8667
 Red. masses --      6.3470                 6.9516                 6.5965
 Frc consts  --     10.1364                11.6384                11.3628
 IR Inten    --     83.6166                 1.4211                77.1646

                     61                     62                     63
                      A                      A                      A
 Frequencies --   3194.4440              3210.6236              3210.9773
 Red. masses --      1.0894                 1.0860                 1.0882
 Frc consts  --      6.5498                 6.5958                 6.6103
 IR Inten    --      4.2405                 0.9207                 5.3352

                     64                     65                     66
                      A                      A                      A
 Frequencies --   3221.4374              3230.2621              3231.2967
 Red. masses --      1.0902                 1.0941                 1.0959
 Frc consts  --      6.6660                 6.7262                 6.7416
 IR Inten    --      4.3181                 9.6068                12.9079

                     67                     68                     69
                      A                      A                      A
 Frequencies --   3237.8559              3238.1062              3766.7313
 Red. masses --      1.0996                 1.0999                 1.0658
 Frc consts  --      6.7919                 6.7950                 8.9093
 IR Inten    --     26.8684                 4.8090               407.5932

 - Thermochemistry -
 -------------------
 Temperature   298.150 Kelvin.  Pressure   1.00000 Atm.
 Atom     1 has atomic number  6 and mass  12.00000

 Molecular mass:   227.04049 amu.
 Principal axes and moments of inertia in atomic units:
                           1         2         3
     Eigenvalues --  1355.825266411.480387767.30564
           X           -0.69105   0.72281  -0.00000
           Y            0.72281   0.69105  -0.00002
           Z            0.00001   0.00001   1.00000
 This molecule is an asymmetric top.
 Rotational symmetry number  1.
 Warning -- assumption of classical behavior for rotation
           may cause significant error
 Rotational temperatures (Kelvin)      0.06388     0.01351     0.01115
 Rotational constants (GHZ):           1.33110     0.28149     0.23235
 Zero-point vibrational energy     498393.2 (Joules/Mol)
                                  119.11884 (Kcal/Mol)
 Warning -- explicit consideration of  19 degrees of freedom as
           vibrations may cause significant error
 Vibrational temperatures:     68.85    77.91   157.35   214.55   287.14
          (Kelvin)            351.52   363.40   410.64   467.40   571.55
                              633.60   678.05   703.51   737.63   775.30
                              784.35   814.88   825.98   856.60   937.99
                              970.90   977.28  1032.75  1086.21  1101.39
                             1120.35  1134.43  1202.32  1274.82  1277.10
                             1282.75  1393.48  1401.28  1404.44  1455.76
                             1460.28  1510.60  1542.08  1570.78  1643.57
                             1653.32  1693.78  1702.90  1753.44  1830.24
                             1841.99  1858.38  1942.38  1962.91  1974.15
                             2003.93  2142.44  2153.51  2180.90  2199.66
                             2313.09  2359.86  2368.79  2425.34  2460.12
                             4596.09  4619.37  4619.88  4634.93  4647.63
                             4649.12  4658.55  4658.91  5419.49

 Zero-point correction=                           0.189828 (Hartree/Particle)
 Thermal correction to Energy=                    0.201781
 Thermal correction to Enthalpy=                  0.202725
 Thermal correction to Gibbs Free Energy=         0.150861
 Sum of electronic and zero-point Energies=          -1028.633712
 Sum of electronic and thermal Energies=             -1028.621759
 Sum of electronic and thermal Enthalpies=           -1028.620815
 Sum of electronic and thermal Free Energies=        -1028.672679

                     E (Thermal)             CV                S
                      KCal/Mol        Cal/Mol-Kelvin    Cal/Mol-Kelvin
 Total                  126.620             48.510            109.157
 Electronic               0.000              0.000              0.000
 Translational            0.889              2.981             42.162
 Rotational               0.889              2.981             32.579
 Vibrational            124.842             42.548             34.416
 Vibration     1          0.595              1.978              4.904
 Vibration     2          0.596              1.976              4.660
 Vibration     3          0.606              1.942              3.280
 Vibration     4          0.618              1.904              2.683
 Vibration     5          0.638              1.840              2.137
 Vibration     6          0.660              1.772              1.771
 Vibration     7          0.664              1.758              1.713
 Vibration     8          0.683              1.701              1.501
 Vibration     9          0.709              1.626              1.286
 Vibration    10          0.764              1.476              0.973
 Vibration    11          0.800              1.382              0.825
 Vibration    12          0.828              1.314              0.734
 Vibration    13          0.845              1.275              0.686
 Vibration    14          0.868              1.222              0.627
 Vibration    15          0.894              1.164              0.568
 Vibration    16          0.900              1.150              0.554
 Vibration    17          0.922              1.104              0.511
 Vibration    18          0.930              1.087              0.496
 Vibration    19          0.953              1.042              0.458

 Optimization completed.
    -- Stationary point found.
 Normal termination of Gaussian 16 at Tue Oct 27 22:18:08 2020.
