 Gaussian 16, Revision C.01,
 Gaussian 16:  ES64L-G16RevC.01  3-Jul-2019

 ----------------------------------------------------------------------
 #p opt=addgic freq wb97xd/cc-pvdz nosymm int=ultrafine scrf=(solvent=C
 arbonTetraChloride)
 ----------------------------------------------------------------------

 ------------------------------------------------
 NM 2D-scan of HBT TD-WB97XD pVDZ in CTC Relaxed.
 ------------------------------------------------
 Symbolic Z-matrix:
 Charge =  0 Multiplicity = 1

 SCF Done:  E(RwB97XD) =  -1028.75721790     A.U. after   15 cycles
 SCF Done:  E(RwB97XD) =  -1028.81772986     A.U. after   13 cycles
 SCF Done:  E(RwB97XD) =  -1028.82298511     A.U. after   13 cycles
 SCF Done:  E(RwB97XD) =  -1028.82450545     A.U. after   12 cycles
 SCF Done:  E(RwB97XD) =  -1028.82458322     A.U. after   10 cycles
 SCF Done:  E(RwB97XD) =  -1028.82460006     A.U. after    9 cycles
 SCF Done:  E(RwB97XD) =  -1028.82460139     A.U. after    9 cycles
 SCF Done:  E(RwB97XD) =  -1028.82460144     A.U. after    7 cycles
 Optimization completed.
    -- Stationary point found.
 Normal termination of Gaussian 16 at Tue Oct 27 21:37:34 2020.

 --------------------------------------------------------------------
 #P Geom=AllCheck Guess=TCheck SCRF=Check GenChk RwB97XD/CC-pVDZ Freq
 --------------------------------------------------------------------

 Structure from the checkpoint file:  "config_3_4.chk"
 ------------------------------------------------
 NM 2D-scan of HBT TD-WB97XD pVDZ in CTC Relaxed.
 ------------------------------------------------
 Charge =  0 Multiplicity = 1

                          Input orientation:
 ---------------------------------------------------------------------
 Center     Atomic      Atomic             Coordinates (Angstroms)
 Number     Number       Type             X           Y           Z
 ---------------------------------------------------------------------
      1          6           0        1.729734   -3.308543    0.000082
      2          6           0        0.979502   -2.123578    0.000046
      3          6           0        1.646853   -0.886343   -0.000103
      4          6           0        3.041947   -0.795989   -0.000227
      5          6           0        3.778164   -1.964887   -0.000194
      6          6           0        3.120868   -3.207906   -0.000038
      7          1           0        1.249086   -4.287351    0.000178
      8          1           0        3.509137    0.189258   -0.000337
      9          1           0        4.868314   -1.927201   -0.000287
     10          1           0        3.713458   -4.124241   -0.000022
     11          7           0        0.843246    0.220129   -0.000097
     12         16           0       -0.761703   -1.822951    0.000076
     13          6           0       -1.387545    1.064948    0.000082
     14          6           0       -2.789439    0.902084    0.000009
     15          6           0       -0.883247    2.404036    0.000125
     16          6           0       -3.651967    1.987917   -0.000098
     17          1           0       -3.203844   -0.109255   -0.000017
     18          6           0       -1.768879    3.489682    0.000018
     19          6           0       -3.133538    3.291168   -0.000104
     20          1           0       -4.730034    1.825711   -0.000185
     21          1           0       -1.329586    4.487649    0.000081
     22          1           0       -3.806013    4.150901   -0.000171
     23          6           0       -0.426706   -0.053430    0.000083
     24          8           0        0.408947    2.755155    0.000454
     25          1           0        0.934797    1.927776    0.000742
 ---------------------------------------------------------------------

 SCF Done:  E(RwB97XD) =  -1028.82460144     A.U. after    1 cycles

 Alpha  occ. eigenvalues --  -89.08955 -19.28036 -14.46638 -10.39675 -10.37409
 Alpha  occ. eigenvalues --  -10.35073 -10.34609 -10.32817 -10.32533 -10.31888
 Alpha  occ. eigenvalues --  -10.31659 -10.31486 -10.31426 -10.31259 -10.30200
 Alpha  occ. eigenvalues --  -10.29880  -8.10847  -6.05720  -6.05362  -6.04885
 Alpha  occ. eigenvalues --   -1.16468  -1.09021  -0.97186  -0.95997  -0.91181
 Alpha  occ. eigenvalues --   -0.88518  -0.85213  -0.84431  -0.82962  -0.75482
 Alpha  occ. eigenvalues --   -0.71260  -0.70594  -0.69460  -0.68107  -0.62952
 Alpha  occ. eigenvalues --   -0.60351  -0.58635  -0.58326  -0.56297  -0.54446
 Alpha  occ. eigenvalues --   -0.53895  -0.53160  -0.52427  -0.50984  -0.50269
 Alpha  occ. eigenvalues --   -0.49336  -0.47797  -0.45819  -0.45277  -0.44916
 Alpha  occ. eigenvalues --   -0.43717  -0.42854  -0.42658  -0.39715  -0.37113
 Alpha  occ. eigenvalues --   -0.36136  -0.32179  -0.31651  -0.28994
 Alpha virt. eigenvalues --   -0.00450   0.04789   0.06870   0.07213   0.07374
 Alpha virt. eigenvalues --    0.11475   0.12941   0.15103   0.15882   0.17728
 Alpha virt. eigenvalues --    0.18987   0.20528   0.21720   0.22480   0.22766

 Mulliken charges:
               1
     1  C   -0.000334
     2  C   -0.217257
     3  C    0.239059
     4  C   -0.012543
     5  C    0.008212
     6  C   -0.002009
     7  H    0.021072
     8  H    0.017561
     9  H    0.019529
    10  H    0.021710
    11  N   -0.331231
    12  S    0.139569
    13  C   -0.076986
    14  C   -0.015749
    15  C    0.071206
    16  C   -0.009070
    17  H    0.009218
    18  C    0.015999
    19  C    0.019629
    20  H    0.010157
    21  H    0.016090
    22  H    0.017853
    23  C    0.077562
    24  O   -0.196189
    25  H    0.156941
 Sum of Mulliken charges =  -0.00000

 Dipole moment (field-independent basis, Debye):
    X=              0.2106    Y=             -2.2390    Z=              0.0003  Tot=              2.2489
 Quadrupole moment (field-independent basis, Debye-Ang):
   XX=            -82.6905   YY=            -89.8501   ZZ=           -104.2463
   XY=             -6.9881   XZ=              0.0006   YZ=             -0.0004

  Exact polarizability:     275.533     -65.651     256.895      -0.001      -0.002      63.128
 Approx polarizability:     263.655     -22.516     243.703      -0.001      -0.003      82.305

                      1                      2                      3
                      A                      A                      A
 Frequencies --     44.1597                53.3521               116.6290
 Red. masses --      5.7258                 5.6920                 5.6734
 Frc consts  --      0.0066                 0.0095                 0.0455
 IR Inten    --      0.1320                 1.1099                 1.0126

                      4                      5                      6
                      A                      A                      A
 Frequencies --    150.6897               199.5189               245.0050
 Red. masses --      4.8629                 5.7206                 5.8152
 Frc consts  --      0.0651                 0.1342                 0.2057
 IR Inten    --      0.0013                 0.4144                 0.0693

                      7                      8                      9
                      A                      A                      A
 Frequencies --    265.5823               303.5039               324.9044
 Red. masses --      7.9388                 6.4251                 5.0616
 Frc consts  --      0.3299                 0.3487                 0.3148
 IR Inten    --      1.2707                 6.1060                 0.4780

                     10                     11                     12
                      A                      A                      A
 Frequencies --    398.7903               439.4342               468.1446
 Red. masses --      8.9280                 3.1574                 3.7341
 Frc consts  --      0.8365                 0.3592                 0.4822
 IR Inten    --      0.3040                 2.0582                 8.7171

                     13                     14                     15
                      A                      A                      A
 Frequencies --    506.6082               513.7163               539.0047
 Red. masses --      4.7223                 8.6775                 3.4672
 Frc consts  --      0.7141                 1.3493                 0.5935
 IR Inten    --      5.3414                 0.0310                 3.9881

                     16                     17                     18
                      A                      A                      A
 Frequencies --    546.8435               573.3028               594.8504
 Red. masses --      8.6739                 3.7006                 7.6920
 Frc consts  --      1.5282                 0.7166                 1.6036
 IR Inten    --      2.8109                 0.0192                 6.0822

                     19                     20                     21
                      A                      A                      A
 Frequencies --    642.9114               678.6347               693.0926
 Red. masses --      5.1304                 6.4499                 8.3751
 Frc consts  --      1.2494                 1.7502                 2.3704
 IR Inten    --      1.4267                15.5447                38.5326

                     22                     23                     24
                      A                      A                      A
 Frequencies --    721.5520               735.9191               754.7574
 Red. masses --      7.9523                 1.3987                 1.9161
 Frc consts  --      2.4394                 0.4463                 0.6431
 IR Inten    --      2.2021                59.1628                17.1431

                     25                     26                     27
                      A                      A                      A
 Frequencies --    774.5191               781.0588               791.2765
 Red. masses --      1.7286                 1.6608                 1.8158
 Frc consts  --      0.6110                 0.5969                 0.6698
 IR Inten    --     59.8455                20.1252                50.8619

                     28                     29                     30
                      A                      A                      A
 Frequencies --    839.8621               885.0615               886.4616
 Red. masses --      6.0535                 1.5272                 1.4435
 Frc consts  --      2.5158                 0.7049                 0.6683
 IR Inten    --     24.2568                 5.0297                 0.5305

                     31                     32                     33
                      A                      A                      A
 Frequencies --    897.8060               972.1767               975.3556
 Red. masses --      6.4379                 1.3562                 1.3638
 Frc consts  --      3.0574                 0.7552                 0.7644
 IR Inten    --      0.8304                 1.1755                 1.4678

                     34                     35                     36
                      A                      A                      A
 Frequencies --    977.5967              1011.3222              1014.9290
 Red. masses --      7.5848                 1.3000                 1.3055
 Frc consts  --      4.2708                 0.7834                 0.7923
 IR Inten    --     70.9279                 0.3120                 0.0094

                     37                     38                     39
                      A                      A                      A
 Frequencies --   1050.1828              1068.7260              1090.8833
 Red. masses --      2.0329                 2.0184                 4.6791
 Frc consts  --      1.3210                 1.3583                 3.2807
 IR Inten    --      7.9520                13.4021                 5.9153

                     40                     41                     42
                      A                      A                      A
 Frequencies --   1144.5027              1149.9271              1174.8093
 Red. masses --      1.5450                 1.2713                 1.1175
 Frc consts  --      1.1924                 0.9905                 0.9087
 IR Inten    --      8.4310                 5.4922                48.3628

                     43                     44                     45
                      A                      A                      A
 Frequencies --   1183.1787              1238.7315              1279.7575
 Red. masses --      1.1829                 1.7660                 2.2414
 Frc consts  --      0.9757                 1.5966                 2.1628
 IR Inten    --      0.1974               159.8509                94.9438

                     46                     47                     48
                      A                      A                      A
 Frequencies --   1282.0751              1309.5385              1355.4117
 Red. masses --      1.5661                 5.2563                 3.1349
 Frc consts  --      1.5167                 5.3109                 3.3932
 IR Inten    --      1.9198                17.5530                15.9114

                     49                     50                     51
                      A                      A                      A
 Frequencies --   1368.9171              1377.9070              1435.7868
 Red. masses --      7.4618                 3.0097                 1.6998
 Frc consts  --      8.2385                 3.3668                 2.0646
 IR Inten    --     17.4537                 7.9675                75.0667

                     52                     53                     54
                      A                      A                      A
 Frequencies --   1490.9106              1496.7454              1517.8224
 Red. masses --      2.6370                 3.1840                 3.4731
 Frc consts  --      3.4535                 4.2026                 4.7142
 IR Inten    --     22.8565                19.4212               131.6067

                     55                     56                     57
                      A                      A                      A
 Frequencies --   1539.9034              1600.5296              1644.0378
 Red. masses --      2.6094                 8.3299                 6.2857
 Frc consts  --      3.6457                12.5724                10.0099
 IR Inten    --     41.7861               205.4952                18.0608

                     58                     59                     60
                      A                      A                      A
 Frequencies --   1652.0659              1683.5291              1708.3845
 Red. masses --      5.1953                 6.8952                 6.4063
 Frc consts  --      8.3545                11.5144                11.0161
 IR Inten    --    106.2857                 7.8626                97.9422

                     61                     62                     63
                      A                      A                      A
 Frequencies --   3193.1056              3208.3915              3211.2152
 Red. masses --      1.0894                 1.0883                 1.0860
 Frc consts  --      6.5440                 6.6007                 6.5981
 IR Inten    --      3.5685                 6.5505                 0.7620

                     64                     65                     66
                      A                      A                      A
 Frequencies --   3221.5432              3228.5496              3230.8333
 Red. masses --      1.0902                 1.0939                 1.0959
 Frc consts  --      6.6663                 6.7179                 6.7401
 IR Inten    --      3.7263                11.2797                12.9901

                     67                     68                     69
                      A                      A                      A
 Frequencies --   3235.7682              3238.2329              3464.2202
 Red. masses --      1.0994                 1.1001                 1.0665
 Frc consts  --      6.7819                 6.7967                 7.5408
 IR Inten    --     17.5565                13.9359               757.5824

 - Thermochemistry -
 -------------------
 Temperature   298.150 Kelvin.  Pressure   1.00000 Atm.
 Atom     1 has atomic number  6 and mass  12.00000

 Molecular mass:   227.04049 amu.
 Principal axes and moments of inertia in atomic units:
                           1         2         3
     Eigenvalues --  1348.066756354.328257702.39495
           X           -0.69554   0.71848   0.00000
           Y            0.71848   0.69554  -0.00002
           Z            0.00001   0.00001   1.00000
 This molecule is an asymmetric top.
 Rotational symmetry number  1.
 Warning -- assumption of classical behavior for rotation
           may cause significant error
 Rotational temperatures (Kelvin)      0.06425     0.01363     0.01125
 Rotational constants (GHZ):           1.33876     0.28402     0.23431
 Zero-point vibrational energy     498809.6 (Joules/Mol)
                                  119.21836 (Kcal/Mol)
 Warning -- explicit consideration of  18 degrees of freedom as
           vibrations may cause significant error
 Vibrational temperatures:     63.54    76.76   167.80   216.81   287.06
          (Kelvin)            352.51   382.11   436.67   467.46   573.77
                              632.25   673.56   728.90   739.12   775.51
                              786.79   824.85   855.86   925.01   976.40
                              997.21  1038.15  1058.82  1085.93  1114.36
                             1123.77  1138.47  1208.37  1273.41  1275.42
                             1291.74  1398.75  1403.32  1406.54  1455.07
                             1460.26  1510.98  1537.66  1569.54  1646.68
                             1654.49  1690.29  1702.33  1782.26  1841.29
                             1844.62  1884.13  1950.14  1969.57  1982.50
                             2065.78  2145.09  2153.48  2183.81  2215.58
                             2302.81  2365.40  2376.95  2422.22  2457.98
                             4594.17  4616.16  4620.22  4635.08  4645.16
                             4648.45  4655.55  4659.09  4984.24

 Zero-point correction=                           0.189987 (Hartree/Particle)
 Thermal correction to Energy=                    0.201782
 Thermal correction to Enthalpy=                  0.202726
 Thermal correction to Gibbs Free Energy=         0.151103
 Sum of electronic and zero-point Energies=          -1028.634615
 Sum of electronic and thermal Energies=             -1028.622819
 Sum of electronic and thermal Enthalpies=           -1028.621875
 Sum of electronic and thermal Free Energies=        -1028.673498

                     E (Thermal)             CV                S
                      KCal/Mol        Cal/Mol-Kelvin    Cal/Mol-Kelvin
 Total                  126.620             47.954            108.650
 Electronic               0.000              0.000              0.000
 Translational            0.889              2.981             42.162
 Rotational               0.889              2.981             32.556
 Vibrational            124.843             41.992             33.932
 Vibration     1          0.595              1.980              5.063
 Vibration     2          0.596              1.976              4.689
 Vibration     3          0.608              1.936              3.155
 Vibration     4          0.618              1.902              2.664
 Vibration     5          0.638              1.841              2.138
 Vibration     6          0.660              1.771              1.766
 Vibration     7          0.671              1.736              1.625
 Vibration     8          0.695              1.667              1.398
 Vibration     9          0.709              1.626              1.285
 Vibration    10          0.765              1.473              0.967
 Vibration    11          0.799              1.384              0.828
 Vibration    12          0.825              1.321              0.743
 Vibration    13          0.862              1.235              0.642
 Vibration    14          0.869              1.220              0.625
 Vibration    15          0.894              1.164              0.567
 Vibration    16          0.902              1.147              0.551
 Vibration    17          0.930              1.089              0.498
 Vibration    18          0.953              1.043              0.459

 Optimization completed.
    -- Stationary point found.
 Normal termination of Gaussian 16 at Tue Oct 27 21:44:07 2020.
