 Gaussian 16, Revision C.01,
 Gaussian 16:  ES64L-G16RevC.01  3-Jul-2019

 ----------------------------------------------------------------------
 #p opt=addgic freq wb97xd/cc-pvdz nosymm int=ultrafine scrf=(solvent=C
 arbonTetraChloride)
 ----------------------------------------------------------------------

 ------------------------------------------------
 NM 2D-scan of HBT TD-WB97XD pVDZ in CTC Relaxed.
 ------------------------------------------------
 Symbolic Z-matrix:
 Charge =  0 Multiplicity = 1

 SCF Done:  E(RwB97XD) =  -1028.59586123     A.U. after   15 cycles
 SCF Done:  E(RwB97XD) =  -1028.78052715     A.U. after   13 cycles
 SCF Done:  E(RwB97XD) =  -1028.81534137     A.U. after   15 cycles
 SCF Done:  E(RwB97XD) =  -1028.82786823     A.U. after   13 cycles
 SCF Done:  E(RwB97XD) =  -1028.82903118     A.U. after   12 cycles
 SCF Done:  E(RwB97XD) =  -1028.82914859     A.U. after   11 cycles
 SCF Done:  E(RwB97XD) =  -1028.82915525     A.U. after    9 cycles
 SCF Done:  E(RwB97XD) =  -1028.82915587     A.U. after    8 cycles
 Optimization completed.
    -- Stationary point found.
 Normal termination of Gaussian 16 at Tue Oct 27 23:34:42 2020.

 --------------------------------------------------------------------
 #P Geom=AllCheck Guess=TCheck SCRF=Check GenChk RwB97XD/CC-pVDZ Freq
 --------------------------------------------------------------------

 Structure from the checkpoint file:  "config_1_12.chk"
 ------------------------------------------------
 NM 2D-scan of HBT TD-WB97XD pVDZ in CTC Relaxed.
 ------------------------------------------------
 Charge =  0 Multiplicity = 1

                          Input orientation:
 ---------------------------------------------------------------------
 Center     Atomic      Atomic             Coordinates (Angstroms)
 Number     Number       Type             X           Y           Z
 ---------------------------------------------------------------------
      1          6           0        1.620696   -3.320770   -0.000023
      2          6           0        0.969713   -2.081963   -0.000011
      3          6           0        1.707504   -0.881792   -0.000007
      4          6           0        3.106723   -0.906441   -0.000014
      5          6           0        3.751407   -2.131690   -0.000026
      6          6           0        3.012413   -3.327412   -0.000031
      7          1           0        1.059520   -4.255729   -0.000025
      8          1           0        3.656399    0.035338   -0.000010
      9          1           0        4.841571   -2.171977   -0.000033
     10          1           0        3.538737   -4.283253   -0.000041
     11          7           0        0.961595    0.277713    0.000002
     12         16           0       -0.740359   -1.698631    0.000007
     13          6           0       -1.318231    1.110556    0.000010
     14          6           0       -2.699965    0.826165    0.000004
     15          6           0       -0.921573    2.476134    0.000029
     16          6           0       -3.652571    1.829352    0.000022
     17          1           0       -3.026739   -0.216534   -0.000015
     18          6           0       -1.895010    3.483675    0.000052
     19          6           0       -3.240102    3.169065    0.000049
     20          1           0       -4.712947    1.577076    0.000017
     21          1           0       -1.546843    4.517025    0.000068
     22          1           0       -3.980500    3.970987    0.000066
     23          6           0       -0.316492    0.038278    0.000003
     24          8           0        0.347692    2.917157    0.000022
     25          1           0        0.944181    2.147727    0.000001
 ---------------------------------------------------------------------

 SCF Done:  E(RwB97XD) =  -1028.82915587     A.U. after    1 cycles

 Alpha  occ. eigenvalues --  -89.08529 -19.28822 -14.46761 -10.39366 -10.37622
 Alpha  occ. eigenvalues --  -10.34778 -10.34624 -10.32696 -10.32287 -10.31931
 Alpha  occ. eigenvalues --  -10.31516 -10.31421 -10.31412 -10.31313 -10.30348
 Alpha  occ. eigenvalues --  -10.30158  -8.10509  -6.05368  -6.05015  -6.04555
 Alpha  occ. eigenvalues --   -1.16804  -1.08706  -0.97214  -0.96153  -0.91294
 Alpha  occ. eigenvalues --   -0.88504  -0.85346  -0.84623  -0.82809  -0.75437
 Alpha  occ. eigenvalues --   -0.71429  -0.70664  -0.69438  -0.68121  -0.63118
 Alpha  occ. eigenvalues --   -0.60201  -0.58649  -0.58429  -0.56512  -0.54515
 Alpha  occ. eigenvalues --   -0.53746  -0.53085  -0.52722  -0.50752  -0.50466
 Alpha  occ. eigenvalues --   -0.49117  -0.47862  -0.45790  -0.45332  -0.44962
 Alpha  occ. eigenvalues --   -0.43895  -0.43042  -0.42405  -0.39613  -0.37473
 Alpha  occ. eigenvalues --   -0.36152  -0.31965  -0.31764  -0.29200
 Alpha virt. eigenvalues --   -0.00396   0.04938   0.06735   0.07125   0.07723
 Alpha virt. eigenvalues --    0.11610   0.13851   0.15189   0.16316   0.17859
 Alpha virt. eigenvalues --    0.18858   0.20357   0.21626   0.22484   0.22765

 Mulliken charges:
               1
     1  C    0.005040
     2  C   -0.205678
     3  C    0.210581
     4  C   -0.014329
     5  C    0.006083
     6  C   -0.001090
     7  H    0.018966
     8  H    0.015421
     9  H    0.018648
    10  H    0.020889
    11  N   -0.327511
    12  S    0.134426
    13  C   -0.045936
    14  C   -0.024623
    15  C    0.055118
    16  C   -0.003997
    17  H    0.016248
    18  C    0.017321
    19  C    0.019828
    20  H    0.010453
    21  H    0.017802
    22  H    0.018838
    23  C    0.073028
    24  O   -0.189366
    25  H    0.153842
 Sum of Mulliken charges =  -0.00000

 Dipole moment (field-independent basis, Debye):
    X=             -0.0792    Y=             -2.0685    Z=             -0.0000  Tot=              2.0700
 Quadrupole moment (field-independent basis, Debye-Ang):
   XX=            -82.6821   YY=            -89.7764   ZZ=           -104.1971
   XY=             -6.8606   XZ=             -0.0002   YZ=              0.0002

  Exact polarizability:     274.116     -65.934     255.440      -0.001       0.002      63.035
 Approx polarizability:     262.401     -22.416     242.847      -0.001       0.002      82.201

                      1                      2                      3
                      A                      A                      A
 Frequencies --     50.4617                60.0318               110.9971
 Red. masses --      6.4375                 4.9435                 5.6512
 Frc consts  --      0.0097                 0.0105                 0.0410
 IR Inten    --      0.7982                 0.2673                 1.1557

                      4                      5                      6
                      A                      A                      A
 Frequencies --    150.4252               199.2641               245.9014
 Red. masses --      4.9541                 5.8911                 5.7347
 Frc consts  --      0.0660                 0.1378                 0.2043
 IR Inten    --      0.0022                 0.5491                 0.0369

                      7                      8                      9
                      A                      A                      A
 Frequencies --    255.7981               288.6391               327.4432
 Red. masses --      8.0436                 6.2536                 5.0489
 Frc consts  --      0.3101                 0.3070                 0.3189
 IR Inten    --      4.5663                 4.6452                 0.2730

                     10                     11                     12
                      A                      A                      A
 Frequencies --    404.2445               439.6692               470.6838
 Red. masses --      8.5438                 3.1566                 3.7486
 Frc consts  --      0.8226                 0.3595                 0.4893
 IR Inten    --      0.2537                 1.9261                 8.4688

                     13                     14                     15
                      A                      A                      A
 Frequencies --    496.9945               515.4574               538.1214
 Red. masses --      4.7414                 8.7274                 3.4354
 Frc consts  --      0.6900                 1.3662                 0.5861
 IR Inten    --      5.0643                 0.1520                 3.9346

                     16                     17                     18
                      A                      A                      A
 Frequencies --    545.8335               574.6589               593.1731
 Red. masses --      8.5788                 3.7421                 7.7206
 Frc consts  --      1.5059                 0.7281                 1.6005
 IR Inten    --      2.4221                 0.0017                 6.6084

                     19                     20                     21
                      A                      A                      A
 Frequencies --    631.8690               671.7667               675.4291
 Red. masses --      2.0823                 1.6349                 6.6497
 Frc consts  --      0.4898                 0.4347                 1.7873
 IR Inten    --     30.2349                63.9079                 3.1939

                     22                     23                     24
                      A                      A                      A
 Frequencies --    703.2317               725.1521               756.2378
 Red. masses --      8.9102                 7.3074                 1.9340
 Frc consts  --      2.5962                 2.2640                 0.6517
 IR Inten    --     44.3657                 1.1645                23.8989

                     25                     26                     27
                      A                      A                      A
 Frequencies --    767.7207               778.4645               789.0283
 Red. masses --      3.5461                 1.3258                 1.9450
 Frc consts  --      1.2314                 0.4734                 0.7134
 IR Inten    --     13.5029                46.9060                40.2995

                     28                     29                     30
                      A                      A                      A
 Frequencies --    841.6160               885.2489               888.7215
 Red. masses --      6.0733                 1.5381                 1.4272
 Frc consts  --      2.5346                 0.7102                 0.6642
 IR Inten    --     24.4329                 3.8453                 0.7648

                     31                     32                     33
                      A                      A                      A
 Frequencies --    889.6373               972.2197               976.8888
 Red. masses --      6.4353                 1.3579                 1.3651
 Frc consts  --      3.0009                 0.7562                 0.7676
 IR Inten    --      3.6451                 1.1394                 1.5399

                     34                     35                     36
                      A                      A                      A
 Frequencies --    980.0509              1011.9128              1015.5635
 Red. masses --      7.6714                 1.3026                 1.3045
 Frc consts  --      4.3413                 0.7859                 0.7927
 IR Inten    --     65.9947                 0.3421                 0.0145

                     37                     38                     39
                      A                      A                      A
 Frequencies --   1051.4968              1072.6416              1097.9219
 Red. masses --      2.0041                 2.0198                 4.3935
 Frc consts  --      1.3055                 1.3692                 3.1204
 IR Inten    --      8.2876                14.4756                 6.3233

                     40                     41                     42
                      A                      A                      A
 Frequencies --   1148.0943              1151.8848              1178.0161
 Red. masses --      1.5420                 1.3021                 1.1317
 Frc consts  --      1.1975                 1.0180                 0.9253
 IR Inten    --      3.8223                 4.8703                46.5227

                     43                     44                     45
                      A                      A                      A
 Frequencies --   1185.0050              1232.2357              1278.8063
 Red. masses --      1.2062                 1.6738                 2.0841
 Frc consts  --      0.9979                 1.4974                 2.0081
 IR Inten    --      0.1064               178.8283                65.7545

                     46                     47                     48
                      A                      A                      A
 Frequencies --   1283.4283              1314.8362              1343.3938
 Red. masses --      1.6064                 5.3557                 2.9577
 Frc consts  --      1.5590                 5.4552                 3.1449
 IR Inten    --     13.2635                33.4054                 6.4545

                     49                     50                     51
                      A                      A                      A
 Frequencies --   1367.8286              1374.3190              1413.7321
 Red. masses --      7.8814                 2.6837                 1.8782
 Frc consts  --      8.6880                 2.9865                 2.2117
 IR Inten    --     16.2440                 5.6446                82.0062

                     52                     53                     54
                      A                      A                      A
 Frequencies --   1488.6015              1501.2779              1518.5116
 Red. masses --      2.6489                 2.9009                 3.4688
 Frc consts  --      3.4583                 3.8521                 4.7126
 IR Inten    --     35.1535                 2.7656                64.8839

                     55                     56                     57
                      A                      A                      A
 Frequencies --   1533.3220              1601.2208              1643.2397
 Red. masses --      2.7362                 8.8310                 6.6613
 Frc consts  --      3.7902                13.3401                10.5977
 IR Inten    --    118.1528               197.0242                 8.5802

                     58                     59                     60
                      A                      A                      A
 Frequencies --   1653.0909              1682.8960              1709.4706
 Red. masses --      5.7190                 6.9270                 6.4254
 Frc consts  --      9.2080                11.5587                11.0629
 IR Inten    --    103.1370                 2.6357                94.5103

                     61                     62                     63
                      A                      A                      A
 Frequencies --   3199.8963              3211.5039              3213.6456
 Red. masses --      1.0887                 1.0861                 1.0884
 Frc consts  --      6.5680                 6.5999                 6.6227
 IR Inten    --      4.1800                 1.3355                 5.9140

                     64                     65                     66
                      A                      A                      A
 Frequencies --   3223.0207              3231.3560              3233.9128
 Red. masses --      1.0906                 1.0941                 1.0959
 Frc consts  --      6.6746                 6.7310                 6.7525
 IR Inten    --      5.5882                10.5354                12.0122

                     67                     68                     69
                      A                      A                      A
 Frequencies --   3239.0054              3239.7324              3626.7955
 Red. masses --      1.0996                 1.0995                 1.0666
 Frc consts  --      6.7971                 6.7990                 8.2657
 IR Inten    --     18.8897                10.8846               493.0130

 - Thermochemistry -
 -------------------
 Temperature   298.150 Kelvin.  Pressure   1.00000 Atm.
 Atom     1 has atomic number  6 and mass  12.00000

 Molecular mass:   227.04049 amu.
 Principal axes and moments of inertia in atomic units:
                           1         2         3
     Eigenvalues --  1327.113386396.435707723.54907
           X           -0.69353   0.72043   0.00000
           Y            0.72043   0.69353  -0.00001
           Z            0.00001   0.00000   1.00000
 This molecule is an asymmetric top.
 Rotational symmetry number  1.
 Warning -- assumption of classical behavior for rotation
           may cause significant error
 Rotational temperatures (Kelvin)      0.06526     0.01354     0.01121
 Rotational constants (GHZ):           1.35990     0.28215     0.23367
 Zero-point vibrational energy     499277.6 (Joules/Mol)
                                  119.33021 (Kcal/Mol)
 Warning -- explicit consideration of  18 degrees of freedom as
           vibrations may cause significant error
 Vibrational temperatures:     72.60    86.37   159.70   216.43   286.70
          (Kelvin)            353.80   368.04   415.29   471.12   581.62
                              632.59   677.21   715.06   741.63   774.24
                              785.33   826.81   853.44   909.12   966.52
                              971.79  1011.79  1043.33  1088.06  1104.58
                             1120.04  1135.24  1210.90  1273.68  1278.67
                             1279.99  1398.81  1405.53  1410.07  1455.92
                             1461.17  1512.87  1543.29  1579.66  1651.85
                             1657.31  1694.90  1704.96  1772.91  1839.92
                             1846.57  1891.76  1932.84  1968.00  1977.34
                             2034.05  2141.77  2160.00  2184.80  2206.11
                             2303.80  2364.26  2378.43  2421.31  2459.55
                             4603.94  4620.64  4623.72  4637.21  4649.20
                             4652.88  4660.21  4661.25  5218.15

 Zero-point correction=                           0.190165 (Hartree/Particle)
 Thermal correction to Energy=                    0.202001
 Thermal correction to Enthalpy=                  0.202946
 Thermal correction to Gibbs Free Energy=         0.151412
 Sum of electronic and zero-point Energies=          -1028.638991
 Sum of electronic and thermal Energies=             -1028.627154
 Sum of electronic and thermal Enthalpies=           -1028.626210
 Sum of electronic and thermal Free Energies=        -1028.677744

                     E (Thermal)             CV                S
                      KCal/Mol        Cal/Mol-Kelvin    Cal/Mol-Kelvin
 Total                  126.758             48.135            108.462
 Electronic               0.000              0.000              0.000
 Translational            0.889              2.981             42.162
 Rotational               0.889              2.981             32.550
 Vibrational            124.980             42.174             33.750
 Vibration     1          0.595              1.977              4.799
 Vibration     2          0.597              1.973              4.456
 Vibration     3          0.607              1.940              3.251
 Vibration     4          0.618              1.902              2.667
 Vibration     5          0.637              1.841              2.140
 Vibration     6          0.660              1.770              1.760
 Vibration     7          0.666              1.753              1.690
 Vibration     8          0.685              1.695              1.482
 Vibration     9          0.711              1.621              1.273
 Vibration    10          0.769              1.461              0.947
 Vibration    11          0.800              1.384              0.828
 Vibration    12          0.828              1.315              0.736
 Vibration    13          0.853              1.257              0.666
 Vibration    14          0.870              1.216              0.621
 Vibration    15          0.893              1.166              0.569
 Vibration    16          0.901              1.149              0.553
 Vibration    17          0.931              1.086              0.495
 Vibration    18          0.951              1.046              0.462

 Optimization completed.
    -- Stationary point found.
 Normal termination of Gaussian 16 at Tue Oct 27 23:40:37 2020.
