 Gaussian 16, Revision C.01,
 Gaussian 16:  ES64L-G16RevC.01  3-Jul-2019

 ----------------------------------------------------------------------
 #p opt=addgic freq wb97xd/cc-pvdz nosymm int=ultrafine scrf=(solvent=C
 arbonTetraChloride)
 ----------------------------------------------------------------------

 ------------------------------------------------
 NM 2D-scan of HBT TD-WB97XD pVDZ in CTC Relaxed.
 ------------------------------------------------
 Symbolic Z-matrix:
 Charge =  0 Multiplicity = 1

 SCF Done:  E(RwB97XD) =  -1028.74772856     A.U. after   16 cycles
 SCF Done:  E(RwB97XD) =  -1028.79440805     A.U. after   14 cycles
 SCF Done:  E(RwB97XD) =  -1028.79894377     A.U. after   13 cycles
 SCF Done:  E(RwB97XD) =  -1028.79935251     A.U. after   12 cycles
 SCF Done:  E(RwB97XD) =  -1028.79936509     A.U. after   10 cycles
 SCF Done:  E(RwB97XD) =  -1028.79936503     A.U. after   10 cycles
 SCF Done:  E(RwB97XD) =  -1028.79936684     A.U. after    9 cycles
 Optimization completed.
    -- Stationary point found.
 Normal termination of Gaussian 16 at Tue Oct 27 20:33:16 2020.

 --------------------------------------------------------------------
 #P Geom=AllCheck Guess=TCheck SCRF=Check GenChk RwB97XD/CC-pVDZ Freq
 --------------------------------------------------------------------

 Structure from the checkpoint file:  "config_11_1.chk"
 ------------------------------------------------
 NM 2D-scan of HBT TD-WB97XD pVDZ in CTC Relaxed.
 ------------------------------------------------
 Charge =  0 Multiplicity = 1

                          Input orientation:
 ---------------------------------------------------------------------
 Center     Atomic      Atomic             Coordinates (Angstroms)
 Number     Number       Type             X           Y           Z
 ---------------------------------------------------------------------
      1          6           0        1.771348   -3.268745   -0.000006
      2          6           0        1.019247   -2.094691    0.000001
      3          6           0        1.671810   -0.874427   -0.000015
      4          6           0        3.058688   -0.743752   -0.000026
      5          6           0        3.801856   -1.916206   -0.000027
      6          6           0        3.162696   -3.161908   -0.000020
      7          1           0        1.291902   -4.247396   -0.000001
      8          1           0        3.526667    0.240879   -0.000035
      9          1           0        4.891179   -1.864809   -0.000036
     10          1           0        3.762083   -4.072894   -0.000027
     11          7           0        0.770457    0.153956   -0.000030
     12         16           0       -0.749904   -1.820136    0.000018
     13          6           0       -1.437924    1.047737   -0.000009
     14          6           0       -2.850564    0.936478   -0.000031
     15          6           0       -0.802927    2.378986    0.000016
     16          6           0       -3.672963    2.043875   -0.000000
     17          1           0       -3.298057   -0.061861   -0.000075
     18          6           0       -1.731478    3.497635    0.000090
     19          6           0       -3.091974    3.337236    0.000073
     20          1           0       -4.756629    1.924648   -0.000021
     21          1           0       -1.277661    4.490362    0.000152
     22          1           0       -3.741272    4.216491    0.000118
     23          6           0       -0.543604   -0.072768   -0.000010
     24          8           0        0.434873    2.556660    0.000045
     25          1           0        1.133946    1.090847   -0.000076
 ---------------------------------------------------------------------

 SCF Done:  E(RwB97XD) =  -1028.79936684     A.U. after    1 cycles

 Alpha  occ. eigenvalues --  -89.10341 -19.21554 -14.50932 -10.41776 -10.36686
 Alpha  occ. eigenvalues --  -10.36272 -10.36057 -10.33476 -10.32908 -10.32615
 Alpha  occ. eigenvalues --  -10.32361 -10.31182 -10.31087 -10.30560 -10.29051
 Alpha  occ. eigenvalues --  -10.28475  -8.12271  -6.07170  -6.06775  -6.06274
 Alpha  occ. eigenvalues --   -1.13655  -1.10266  -0.98631  -0.94892  -0.93093
 Alpha  occ. eigenvalues --   -0.89367  -0.86377  -0.84121  -0.81667  -0.75810
 Alpha  occ. eigenvalues --   -0.73574  -0.71476  -0.69498  -0.67830  -0.64530
 Alpha  occ. eigenvalues --   -0.60846  -0.59802  -0.56717  -0.56045  -0.55908
 Alpha  occ. eigenvalues --   -0.54986  -0.53573  -0.52827  -0.50689  -0.49605
 Alpha  occ. eigenvalues --   -0.49058  -0.48121  -0.46665  -0.45629  -0.44825
 Alpha  occ. eigenvalues --   -0.44486  -0.42887  -0.41691  -0.40477  -0.36847
 Alpha  occ. eigenvalues --   -0.33614  -0.31756  -0.31666  -0.26325
 Alpha virt. eigenvalues --   -0.01324   0.03717   0.06235   0.06649   0.09315
 Alpha virt. eigenvalues --    0.11020   0.11805   0.14630   0.15923   0.17297
 Alpha virt. eigenvalues --    0.19050   0.20016   0.21228   0.21654   0.22879

 Mulliken charges:
               1
     1  C    0.007499
     2  C   -0.254386
     3  C    0.254471
     4  C   -0.010733
     5  C    0.014130
     6  C    0.001211
     7  H    0.026298
     8  H    0.034475
     9  H    0.027791
    10  H    0.026346
    11  N   -0.087843
    12  S    0.177731
    13  C   -0.147774
    14  C    0.000462
    15  C    0.117679
    16  C   -0.035069
    17  H   -0.000122
    18  C   -0.024555
    19  C    0.028280
    20  H    0.003055
    21  H    0.001028
    22  H    0.012905
    23  C    0.088537
    24  O   -0.385223
    25  H    0.123805
 Sum of Mulliken charges =  -0.00000

 Dipole moment (field-independent basis, Debye):
    X=              1.8960    Y=             -5.0051    Z=             -0.0002  Tot=              5.3522
 Quadrupole moment (field-independent basis, Debye-Ang):
   XX=            -82.2425   YY=            -94.1022   ZZ=           -104.0816
   XY=             -6.9427   XZ=             -0.0003   YZ=             -0.0000

  Exact polarizability:     289.330     -87.439     287.237      -0.001       0.003      63.066
 Approx polarizability:     268.699     -34.567     256.766      -0.001       0.002      82.104

 ******    1 imaginary frequencies (negative Signs) ******

                      1                      2                      3
                      A                      A                      A
 Frequencies --    -34.4815                63.2028               109.7316
 Red. masses --      5.1827                 6.3900                 5.6791
 Frc consts  --      0.0036                 0.0150                 0.0403
 IR Inten    --      0.9079                 2.2362                 0.7661

                      4                      5                      6
                      A                      A                      A
 Frequencies --    121.6700               191.0012               233.9143
 Red. masses --      4.9973                 5.6387                 5.9105
 Frc consts  --      0.0436                 0.1212                 0.1905
 IR Inten    --      0.4237                 0.0151                 0.8695

                      7                      8                      9
                      A                      A                      A
 Frequencies --    266.3016               305.2942               332.1765
 Red. masses --      7.4472                 5.2215                 6.2259
 Frc consts  --      0.3112                 0.2867                 0.4048
 IR Inten    --      3.7632                 2.1207                 5.6152

                     10                     11                     12
                      A                      A                      A
 Frequencies --    391.3925               427.9757               443.9034
 Red. masses --     10.4894                 3.2324                 3.5837
 Frc consts  --      0.9467                 0.3488                 0.4161
 IR Inten    --      6.3133                 1.3290                10.5555

                     13                     14                     15
                      A                      A                      A
 Frequencies --    503.9724               528.6330               538.3165
 Red. masses --      8.1715                 2.8227                 8.9126
 Frc consts  --      1.2228                 0.4648                 1.5217
 IR Inten    --      7.8759                 8.1137                 8.4222

                     16                     17                     18
                      A                      A                      A
 Frequencies --    560.1409               561.0610               586.4425
 Red. masses --      6.8496                 3.6904                 7.1795
 Frc consts  --      1.2662                 0.6845                 1.4548
 IR Inten    --      0.9953                 0.0424                38.5822

                     19                     20                     21
                      A                      A                      A
 Frequencies --    624.4727               659.8124               695.7436
 Red. masses --      3.3968                 5.7638                 6.4392
 Frc consts  --      0.7805                 1.4784                 1.8364
 IR Inten    --      4.9488                 8.4782                31.1384

                     22                     23                     24
                      A                      A                      A
 Frequencies --    702.4983               740.1876               749.3851
 Red. masses --      1.3388                 8.3961                 2.5179
 Frc consts  --      0.3893                 2.7103                 0.8331
 IR Inten    --     35.6137                49.8933                10.3529

                     25                     26                     27
                      A                      A                      A
 Frequencies --    761.4925               775.3465               782.5788
 Red. masses --      1.3957                 1.6536                 2.2660
 Frc consts  --      0.4768                 0.5857                 0.8176
 IR Inten    --     51.1818                23.3411                60.4266

                     28                     29                     30
                      A                      A                      A
 Frequencies --    827.9549               877.4380               878.3847
 Red. masses --      6.1821                 1.9170                 1.4050
 Frc consts  --      2.4969                 0.8696                 0.6387
 IR Inten    --     22.9946                13.8661                 4.4650

                     31                     32                     33
                      A                      A                      A
 Frequencies --    901.4718               955.8179               968.8254
 Red. masses --      4.7539                 4.2599                 1.3248
 Frc consts  --      2.2762                 2.2930                 0.7327
 IR Inten    --      2.0130                50.8426                 0.3572

                     34                     35                     36
                      A                      A                      A
 Frequencies --    970.2012              1014.1798              1015.6299
 Red. masses --      1.3585                 1.3043                 1.3023
 Frc consts  --      0.7534                 0.7904                 0.7914
 IR Inten    --      1.2989                 0.0087                 0.3504

                     37                     38                     39
                      A                      A                      A
 Frequencies --   1047.1696              1055.5185              1077.2916
 Red. masses --      2.1645                 2.1597                 3.4495
 Frc consts  --      1.3984                 1.4177                 2.3587
 IR Inten    --      9.7059                11.2930                36.3503

                     40                     41                     42
                      A                      A                      A
 Frequencies --   1105.1043              1153.1903              1156.6730
 Red. masses --      2.3583                 1.3113                 1.2109
 Frc consts  --      1.6969                 1.0275                 0.9545
 IR Inten    --    140.3229                10.5055                62.4686

                     43                     44                     45
                      A                      A                      A
 Frequencies --   1181.5951              1192.1814              1255.0066
 Red. masses --      1.1405                 1.2256                 1.9414
 Frc consts  --      0.9382                 1.0263                 1.8016
 IR Inten    --     12.4092                14.5824                 1.1366

                     46                     47                     48
                      A                      A                      A
 Frequencies --   1291.1809              1299.9575              1361.8947
 Red. masses --      1.5145                 2.4908                 4.5252
 Frc consts  --      1.4876                 2.4800                 4.9451
 IR Inten    --      2.5607               186.3663               146.6189

                     49                     50                     51
                      A                      A                      A
 Frequencies --   1376.1886              1393.1550              1418.2009
 Red. masses --      3.2409                 6.0000                 2.3107
 Frc consts  --      3.6164                 6.8612                 2.7382
 IR Inten    --     10.8559                81.6737                26.9276

                     52                     53                     54
                      A                      A                      A
 Frequencies --   1489.3951              1504.1533              1531.3928
 Red. masses --      2.7342                 2.9275                 2.9913
 Frc consts  --      3.5736                 3.9025                 4.1332
 IR Inten    --    193.1553               563.1914               239.4053

                     55                     56                     57
                      A                      A                      A
 Frequencies --   1559.8973              1600.0698              1637.9887
 Red. masses --      4.6928                 6.2780                 6.9012
 Frc consts  --      6.7278                 9.4700                10.9093
 IR Inten    --    768.3070               299.3381               125.7957

                     58                     59                     60
                      A                      A                      A
 Frequencies --   1680.8238              1694.9327              1717.4669
 Red. masses --      7.2231                 7.7879                 6.9864
 Frc consts  --     12.0232                13.1819                12.1417
 IR Inten    --     78.6060               152.6313               226.0842

                     61                     62                     63
                      A                      A                      A
 Frequencies --   3177.6547              3191.2975              3218.0035
 Red. masses --      1.0894                 1.0879                 1.0941
 Frc consts  --      6.4811                 6.5280                 6.6755
 IR Inten    --      6.9538                14.6561                22.2967

                     64                     65                     66
                      A                      A                      A
 Frequencies --   3218.3211              3227.6157              3229.0725
 Red. masses --      1.0864                 1.0907                 1.0972
 Frc consts  --      6.6295                 6.6948                 6.7404
 IR Inten    --      1.7336                 1.6887                21.8711

                     67                     68                     69
                      A                      A                      A
 Frequencies --   3236.1120              3243.3591              3567.1916
 Red. masses --      1.0963                 1.1000                 1.0839
 Frc consts  --      6.7644                 6.8178                 8.1260
 IR Inten    --      4.8068                12.3507               244.0074

 - Thermochemistry -
 -------------------
 Temperature   298.150 Kelvin.  Pressure   1.00000 Atm.
 Atom     1 has atomic number  6 and mass  12.00000

 Molecular mass:   227.04049 amu.
 Principal axes and moments of inertia in atomic units:
                           1         2         3
     Eigenvalues --  1320.103616335.280217655.38382
           X           -0.70532   0.70889   0.00000
           Y            0.70889   0.70532  -0.00001
           Z            0.00001   0.00000   1.00000
 This molecule is an asymmetric top.
 Rotational symmetry number  1.
 Warning -- assumption of classical behavior for rotation
           may cause significant error
 Rotational temperatures (Kelvin)      0.06561     0.01367     0.01131
 Rotational constants (GHZ):           1.36712     0.28487     0.23575
    1 imaginary frequencies ignored.
 Zero-point vibrational energy     497381.0 (Joules/Mol)
                                  118.87691 (Kcal/Mol)
 Warning -- explicit consideration of  17 degrees of freedom as
           vibrations may cause significant error
 Vibrational temperatures:     90.93   157.88   175.06   274.81   336.55
          (Kelvin)            383.15   439.25   477.93   563.13   615.76
                              638.68   725.10   760.58   774.52   805.92
                              807.24   843.76   898.48   949.32  1001.02
                             1010.74  1064.96  1078.20  1095.62  1115.55
                             1125.96  1191.24  1262.44  1263.80  1297.02
                             1375.21  1393.92  1395.90  1459.18  1461.26
                             1506.64  1518.66  1549.98  1590.00  1659.18
                             1664.19  1700.05  1715.28  1805.67  1857.72
                             1870.35  1959.46  1980.03  2004.44  2040.47
                             2142.91  2164.14  2203.33  2244.34  2302.14
                             2356.70  2418.33  2438.63  2471.05  4571.94
                             4591.57  4629.99  4630.45  4643.82  4645.92
                             4656.04  4666.47  5132.39

 Zero-point correction=                           0.189442 (Hartree/Particle)
 Thermal correction to Energy=                    0.200540
 Thermal correction to Enthalpy=                  0.201484
 Thermal correction to Gibbs Free Energy=         0.152005
 Sum of electronic and zero-point Energies=          -1028.609924
 Sum of electronic and thermal Energies=             -1028.598827
 Sum of electronic and thermal Enthalpies=           -1028.597883
 Sum of electronic and thermal Free Energies=        -1028.647362

                     E (Thermal)             CV                S
                      KCal/Mol        Cal/Mol-Kelvin    Cal/Mol-Kelvin
 Total                  125.841             46.415            104.137
 Electronic               0.000              0.000              0.000
 Translational            0.889              2.981             42.162
 Rotational               0.889              2.981             32.526
 Vibrational            124.063             40.453             29.448
 Vibration     1          0.597              1.972              4.355
 Vibration     2          0.606              1.941              3.274
 Vibration     3          0.609              1.931              3.074
 Vibration     4          0.634              1.852              2.218
 Vibration     5          0.654              1.789              1.849
 Vibration     6          0.672              1.735              1.620
 Vibration     7          0.696              1.664              1.388
 Vibration     8          0.714              1.611              1.249
 Vibration     9          0.759              1.489              0.995
 Vibration    10          0.789              1.409              0.865
 Vibration    11          0.803              1.374              0.814
 Vibration    12          0.859              1.241              0.648
 Vibration    13          0.884              1.187              0.590
 Vibration    14          0.893              1.165              0.569
 Vibration    15          0.916              1.118              0.524
 Vibration    16          0.917              1.116              0.522
 Vibration    17          0.944              1.061              0.474

 Optimization completed.
    -- Stationary point found.
 Normal termination of Gaussian 16 at Tue Oct 27 20:39:20 2020.
