 Gaussian 16, Revision C.01,
 Gaussian 16:  ES64L-G16RevC.01  3-Jul-2019

 ----------------------------------------------------------------------
 #p opt=addgic freq wb97xd/cc-pvdz nosymm int=ultrafine scrf=(solvent=C
 arbonTetraChloride)
 ----------------------------------------------------------------------

 ------------------------------------------------
 NM 2D-scan of HBT TD-WB97XD pVDZ in CTC Relaxed.
 ------------------------------------------------
 Symbolic Z-matrix:
 Charge =  0 Multiplicity = 1

 SCF Done:  E(RwB97XD) =  -1028.58048118     A.U. after   16 cycles
 SCF Done:  E(RwB97XD) =  -1028.73358885     A.U. after   14 cycles
 SCF Done:  E(RwB97XD) =  -1028.77927366     A.U. after   15 cycles
 SCF Done:  E(RwB97XD) =  -1028.79604648     A.U. after   13 cycles
 SCF Done:  E(RwB97XD) =  -1028.79863106     A.U. after   13 cycles
 SCF Done:  E(RwB97XD) =  -1028.79891751     A.U. after   12 cycles
 SCF Done:  E(RwB97XD) =  -1028.79894706     A.U. after   10 cycles
 SCF Done:  E(RwB97XD) =  -1028.79895065     A.U. after    9 cycles
 Optimization completed.
    -- Stationary point found.
 Normal termination of Gaussian 16 at Wed Oct 28 01:37:01 2020.

 --------------------------------------------------------------------
 #P Geom=AllCheck Guess=TCheck SCRF=Check GenChk RwB97XD/CC-pVDZ Freq
 --------------------------------------------------------------------

 Structure from the checkpoint file:  "config_11_19.chk"
 ------------------------------------------------
 NM 2D-scan of HBT TD-WB97XD pVDZ in CTC Relaxed.
 ------------------------------------------------
 Charge =  0 Multiplicity = 1

                          Input orientation:
 ---------------------------------------------------------------------
 Center     Atomic      Atomic             Coordinates (Angstroms)
 Number     Number       Type             X           Y           Z
 ---------------------------------------------------------------------
      1          6           0        1.525261   -3.279915   -0.000068
      2          6           0        1.001266   -1.995309   -0.000042
      3          6           0        1.813924   -0.872227   -0.000004
      4          6           0        3.203923   -1.001124    0.000007
      5          6           0        3.734161   -2.293369   -0.000017
      6          6           0        2.908583   -3.421834   -0.000054
      7          1           0        0.867390   -4.148772   -0.000095
      8          1           0        3.855187   -0.125999    0.000037
      9          1           0        4.817729   -2.418339   -0.000006
     10          1           0        3.350097   -4.418687   -0.000072
     11          7           0        1.032990    0.282449    0.000023
     12         16           0       -0.693393   -1.537331   -0.000045
     13          6           0       -1.309646    1.147658    0.000054
     14          6           0       -2.677602    0.759222    0.000078
     15          6           0       -0.906123    2.547664    0.000046
     16          6           0       -3.685573    1.686639    0.000068
     17          1           0       -2.936670   -0.303123    0.000107
     18          6           0       -2.038391    3.487169   -0.000013
     19          6           0       -3.343944    3.069361    0.000008
     20          1           0       -4.729368    1.371800    0.000091
     21          1           0       -1.794835    4.551743   -0.000065
     22          1           0       -4.147641    3.810648   -0.000021
     23          6           0       -0.312891    0.152458    0.000023
     24          8           0        0.291287    2.864630    0.000001
     25          1           0        1.554820    1.127310    0.000056
 ---------------------------------------------------------------------

 SCF Done:  E(RwB97XD) =  -1028.79895065     A.U. after    1 cycles

 Alpha  occ. eigenvalues --  -89.09591 -19.21064 -14.52646 -10.41632 -10.37226
 Alpha  occ. eigenvalues --  -10.35913 -10.35641 -10.33231 -10.33177 -10.32652
 Alpha  occ. eigenvalues --  -10.32296 -10.31041 -10.30702 -10.30206 -10.29100
 Alpha  occ. eigenvalues --  -10.28639  -8.11715  -6.06596  -6.06201  -6.05717
 Alpha  occ. eigenvalues --   -1.12901  -1.10041  -0.98655  -0.95731  -0.93301
 Alpha  occ. eigenvalues --   -0.89134  -0.86789  -0.83781  -0.81646  -0.75426
 Alpha  occ. eigenvalues --   -0.74219  -0.72060  -0.69421  -0.67844  -0.64544
 Alpha  occ. eigenvalues --   -0.60907  -0.59726  -0.56701  -0.56053  -0.55969
 Alpha  occ. eigenvalues --   -0.55010  -0.53881  -0.52965  -0.49976  -0.49388
 Alpha  occ. eigenvalues --   -0.48973  -0.48264  -0.46761  -0.45694  -0.44764
 Alpha  occ. eigenvalues --   -0.44478  -0.42777  -0.41896  -0.40350  -0.36923
 Alpha  occ. eigenvalues --   -0.33617  -0.31635  -0.31163  -0.26061
 Alpha virt. eigenvalues --   -0.01320   0.03771   0.05752   0.07220   0.09594
 Alpha virt. eigenvalues --    0.11368   0.14161   0.14712   0.15960   0.16868
 Alpha virt. eigenvalues --    0.17872   0.19697   0.20917   0.21561   0.22723

 Mulliken charges:
               1
     1  C    0.017611
     2  C   -0.228979
     3  C    0.207136
     4  C   -0.013062
     5  C    0.008566
     6  C    0.005622
     7  H    0.023074
     8  H    0.029795
     9  H    0.027511
    10  H    0.025955
    11  N   -0.117868
    12  S    0.176909
    13  C   -0.081301
    14  C   -0.022488
    15  C    0.090098
    16  C   -0.033375
    17  H    0.014477
    18  C   -0.045484
    19  C    0.029377
    20  H    0.001792
    21  H    0.001821
    22  H    0.014054
    23  C    0.101697
    24  O   -0.353270
    25  H    0.120331
 Sum of Mulliken charges =  -0.00000

 Dipole moment (field-independent basis, Debye):
    X=              2.2525    Y=             -5.4952    Z=              0.0000  Tot=              5.9389
 Quadrupole moment (field-independent basis, Debye-Ang):
   XX=            -80.7550   YY=            -96.8073   ZZ=           -103.9623
   XY=             -6.2465   XZ=              0.0001   YZ=              0.0002

  Exact polarizability:     290.214     -91.902     288.750      -0.001       0.002      62.851
 Approx polarizability:     266.810     -34.660     254.735      -0.001       0.001      81.842

 ******    1 imaginary frequencies (negative Signs) ******

                      1                      2                      3
                      A                      A                      A
 Frequencies --    -30.2847                63.0378               112.8714
 Red. masses --      4.5680                 6.1086                 5.5467
 Frc consts  --      0.0025                 0.0143                 0.0416
 IR Inten    --      3.2780                 0.8449                 0.3107

                      4                      5                      6
                      A                      A                      A
 Frequencies --    113.1665               189.0741               221.7194
 Red. masses --      5.8603                 5.8342                 5.6621
 Frc consts  --      0.0442                 0.1229                 0.1640
 IR Inten    --      1.0614                 0.1911                 2.7361

                      7                      8                      9
                      A                      A                      A
 Frequencies --    266.5870               293.3972               302.3480
 Red. masses --      8.5689                 6.9999                 4.1950
 Frc consts  --      0.3588                 0.3550                 0.2259
 IR Inten    --      5.7153                 1.6582                 6.0774

                     10                     11                     12
                      A                      A                      A
 Frequencies --    395.4095               411.5842               442.5877
 Red. masses --      7.7149                 2.1273                 3.2110
 Frc consts  --      0.7107                 0.2123                 0.3706
 IR Inten    --      3.1229                27.9540                20.2976

                     13                     14                     15
                      A                      A                      A
 Frequencies --    448.9535               507.9052               518.4682
 Red. masses --      1.4693                 8.2379                 2.5676
 Frc consts  --      0.1745                 1.2521                 0.4067
 IR Inten    --     42.2846                10.2531                 1.8239

                     16                     17                     18
                      A                      A                      A
 Frequencies --    529.1001               545.2854               563.1125
 Red. masses --      6.7049                 7.6403                 3.8445
 Frc consts  --      1.1059                 1.3385                 0.7183
 IR Inten    --      3.5597                16.2472                 0.0429

                     19                     20                     21
                      A                      A                      A
 Frequencies --    579.6528               630.9447               656.2343
 Red. masses --      7.4235                 6.9177                 6.4059
 Frc consts  --      1.4696                 1.6225                 1.6254
 IR Inten    --     41.1177                 1.7900                 0.6481

                     22                     23                     24
                      A                      A                      A
 Frequencies --    716.7742               743.1537               751.0031
 Red. masses --      5.5486                 7.2446                 2.5568
 Frc consts  --      1.6796                 2.3573                 0.8496
 IR Inten    --     64.3438                46.2974                16.9200

                     25                     26                     27
                      A                      A                      A
 Frequencies --    756.4241               773.8958               778.2285
 Red. masses --      1.4210                 1.5906                 2.4471
 Frc consts  --      0.4791                 0.5613                 0.8732
 IR Inten    --     47.7792                48.0647                15.2155

                     28                     29                     30
                      A                      A                      A
 Frequencies --    831.1233               875.3565               881.0738
 Red. masses --      6.3888                 2.1283                 1.3757
 Frc consts  --      2.6002                 0.9608                 0.6292
 IR Inten    --     20.0130                16.8077                 0.8146

                     31                     32                     33
                      A                      A                      A
 Frequencies --    887.8290               962.3607               968.7870
 Red. masses --      5.5500                 1.3269                 1.3616
 Frc consts  --      2.5775                 0.7240                 0.7530
 IR Inten    --      0.4552                 0.0531                 1.6475

                     34                     35                     36
                      A                      A                      A
 Frequencies --    977.1699              1012.4559              1017.9582
 Red. masses --      4.7338                 1.3034                 1.3079
 Frc consts  --      2.6632                 0.7872                 0.7985
 IR Inten    --     24.7346                 0.0052                 0.3502

                     37                     38                     39
                      A                      A                      A
 Frequencies --   1046.1310              1056.8455              1102.4536
 Red. masses --      2.1278                 2.0412                 3.5288
 Frc consts  --      1.3720                 1.3432                 2.5270
 IR Inten    --     14.3338                12.1562                 6.0587

                     40                     41                     42
                      A                      A                      A
 Frequencies --   1136.6020              1159.5773              1164.3744
 Red. masses --      1.9067                 1.3675                 1.1808
 Frc consts  --      1.4513                 1.0833                 0.9432
 IR Inten    --     29.6492                12.2680                91.8004

                     43                     44                     45
                      A                      A                      A
 Frequencies --   1180.9571              1210.3821              1236.5872
 Red. masses --      1.1602                 1.2899                 2.4336
 Frc consts  --      0.9534                 1.1134                 2.1925
 IR Inten    --     18.2034                16.7450                28.8325

                     46                     47                     48
                      A                      A                      A
 Frequencies --   1281.9602              1300.5411              1348.4173
 Red. masses --      1.9045                 2.0971                 2.4512
 Frc consts  --      1.8441                 2.0899                 2.6259
 IR Inten    --     48.1308               151.7529                35.5209

                     49                     50                     51
                      A                      A                      A
 Frequencies --   1387.4954              1398.5529              1409.0902
 Red. masses --      5.5039                 5.1335                 2.1082
 Frc consts  --      6.2429                 5.9159                 2.4663
 IR Inten    --    250.6258                36.7439                15.1484

                     52                     53                     54
                      A                      A                      A
 Frequencies --   1496.3322              1510.5771              1528.1303
 Red. masses --      2.9044                 2.6211                 3.0826
 Frc consts  --      3.8315                 3.5239                 4.2412
 IR Inten    --    116.0626               389.1740                31.1612

                     55                     56                     57
                      A                      A                      A
 Frequencies --   1542.1802              1596.4060              1659.7306
 Red. masses --      4.6011                 7.0890                 5.8692
 Frc consts  --      6.4473                10.6445                 9.5259
 IR Inten    --   2015.9512                54.9940                79.2377

                     58                     59                     60
                      A                      A                      A
 Frequencies --   1680.6927              1694.2107              1738.0966
 Red. masses --      7.1359                 7.6594                 9.3340
 Frc consts  --     11.8761                12.9533                16.6136
 IR Inten    --     34.8784                14.1615               470.4262

                     61                     62                     63
                      A                      A                      A
 Frequencies --   3188.7459              3192.3817              3213.8177
 Red. masses --      1.0864                 1.0891                 1.0869
 Frc consts  --      6.5086                 6.5397                 6.6142
 IR Inten    --      3.3575                12.2707                 1.3543

                     64                     65                     66
                      A                      A                      A
 Frequencies --   3214.2513              3223.3920              3231.7490
 Red. masses --      1.0951                 1.0910                 1.0956
 Frc consts  --      6.6659                 6.6788                 6.7420
 IR Inten    --     36.1321                 1.3697                 7.3116

                     67                     68                     69
                      A                      A                      A
 Frequencies --   3231.8565              3241.4903              3885.3058
 Red. masses --      1.0973                 1.0996                 1.0787
 Frc consts  --      6.7527                 6.8072                 9.5937
 IR Inten    --     16.0858                12.4833               122.6174

 - Thermochemistry -
 -------------------
 Temperature   298.150 Kelvin.  Pressure   1.00000 Atm.
 Atom     1 has atomic number  6 and mass  12.00000

 Molecular mass:   227.04049 amu.
 Principal axes and moments of inertia in atomic units:
                           1         2         3
     Eigenvalues --  1264.549686440.990437705.54011
           X           -0.70397   0.71023   0.00000
           Y            0.71023   0.70397  -0.00001
           Z            0.00001   0.00001   1.00000
 This molecule is an asymmetric top.
 Rotational symmetry number  1.
 Warning -- assumption of classical behavior for rotation
           may cause significant error
 Rotational temperatures (Kelvin)      0.06849     0.01345     0.01124
 Rotational constants (GHZ):           1.42718     0.28020     0.23421
    1 imaginary frequencies ignored.
 Zero-point vibrational energy     497732.3 (Joules/Mol)
                                  118.96088 (Kcal/Mol)
 Warning -- explicit consideration of  18 degrees of freedom as
           vibrations may cause significant error
 Vibrational temperatures:     90.70   162.40   162.82   272.04   319.00
          (Kelvin)            383.56   422.13   435.01   568.91   592.18
                              636.79   645.94   730.76   745.96   761.26
                              784.54   810.19   833.99   907.79   944.17
                             1031.28  1069.23  1080.53  1088.33  1113.46
                             1119.70  1195.80  1259.44  1267.67  1277.39
                             1384.62  1393.87  1405.93  1456.70  1464.61
                             1505.15  1520.56  1586.18  1635.32  1668.37
                             1675.28  1699.13  1741.47  1779.17  1844.45
                             1871.19  1940.07  1996.30  2012.21  2027.37
                             2152.89  2173.38  2198.64  2218.85  2296.87
                             2387.98  2418.14  2437.59  2500.73  4587.89
                             4593.13  4623.97  4624.59  4637.74  4649.77
                             4649.92  4663.78  5590.09

 Zero-point correction=                           0.189576 (Hartree/Particle)
 Thermal correction to Energy=                    0.200928
 Thermal correction to Enthalpy=                  0.201872
 Thermal correction to Gibbs Free Energy=         0.151930
 Sum of electronic and zero-point Energies=          -1028.609374
 Sum of electronic and thermal Energies=             -1028.598022
 Sum of electronic and thermal Enthalpies=           -1028.597078
 Sum of electronic and thermal Free Energies=        -1028.647021

                     E (Thermal)             CV                S
                      KCal/Mol        Cal/Mol-Kelvin    Cal/Mol-Kelvin
 Total                  126.084             47.072            105.114
 Electronic               0.000              0.000              0.000
 Translational            0.889              2.981             42.162
 Rotational               0.889              2.981             32.506
 Vibrational            124.307             41.110             30.445
 Vibration     1          0.597              1.972              4.360
 Vibration     2          0.607              1.939              3.219
 Vibration     3          0.607              1.939              3.214
 Vibration     4          0.633              1.855              2.237
 Vibration     5          0.648              1.808              1.945
 Vibration     6          0.672              1.734              1.618
 Vibration     7          0.688              1.686              1.454
 Vibration     8          0.694              1.669              1.404
 Vibration     9          0.762              1.480              0.980
 Vibration    10          0.776              1.445              0.921
 Vibration    11          0.802              1.377              0.819
 Vibration    12          0.808              1.363              0.799
 Vibration    13          0.863              1.232              0.639
 Vibration    14          0.873              1.209              0.614
 Vibration    15          0.884              1.186              0.589
 Vibration    16          0.900              1.150              0.554
 Vibration    17          0.919              1.111              0.518
 Vibration    18          0.936              1.075              0.486

 Optimization completed.
    -- Stationary point found.
 Normal termination of Gaussian 16 at Wed Oct 28 01:42:57 2020.
