 Gaussian 16, Revision C.01,
 Gaussian 16:  ES64L-G16RevC.01  3-Jul-2019

 ----------------------------------------------------------------------
 #p opt=addgic freq wb97xd/cc-pvdz nosymm int=ultrafine scrf=(solvent=C
 arbonTetraChloride)
 ----------------------------------------------------------------------

 ------------------------------------------------
 NM 2D-scan of HBT TD-WB97XD pVDZ in CTC Relaxed.
 ------------------------------------------------
 Symbolic Z-matrix:
 Charge =  0 Multiplicity = 1

 SCF Done:  E(RwB97XD) =  -1028.81133280     A.U. after   15 cycles
 SCF Done:  E(RwB97XD) =  -1028.82545496     A.U. after   13 cycles
 SCF Done:  E(RwB97XD) =  -1028.82660119     A.U. after   12 cycles
 SCF Done:  E(RwB97XD) =  -1028.82669994     A.U. after   11 cycles
 SCF Done:  E(RwB97XD) =  -1028.82672312     A.U. after   10 cycles
 SCF Done:  E(RwB97XD) =  -1028.82672801     A.U. after    9 cycles
 Optimization completed.
    -- Stationary point found.
 Normal termination of Gaussian 16 at Wed Oct 28 01:40:30 2020.

 --------------------------------------------------------------------
 #P Geom=AllCheck Guess=TCheck SCRF=Check GenChk RwB97XD/CC-pVDZ Freq
 --------------------------------------------------------------------

 Structure from the checkpoint file:  "config_3_18.chk"
 ------------------------------------------------
 NM 2D-scan of HBT TD-WB97XD pVDZ in CTC Relaxed.
 ------------------------------------------------
 Charge =  0 Multiplicity = 1

                          Input orientation:
 ---------------------------------------------------------------------
 Center     Atomic      Atomic             Coordinates (Angstroms)
 Number     Number       Type             X           Y           Z
 ---------------------------------------------------------------------
      1          6           0        1.526351   -3.269774   -0.000071
      2          6           0        0.996008   -1.982439   -0.000048
      3          6           0        1.787120   -0.820073    0.000004
      4          6           0        3.182988   -0.970097    0.000031
      5          6           0        3.720953   -2.255406    0.000009
      6          6           0        2.906119   -3.398693   -0.000041
      7          1           0        0.872195   -4.142066   -0.000110
      8          1           0        3.829780   -0.091933    0.000072
      9          1           0        4.805467   -2.375299    0.000033
     10          1           0        3.359253   -4.390927   -0.000056
     11          7           0        1.036330    0.358612    0.000028
     12         16           0       -0.689469   -1.566215   -0.000066
     13          6           0       -1.297052    1.124546    0.000026
     14          6           0       -2.647513    0.750891    0.000062
     15          6           0       -0.926199    2.485471    0.000004
     16          6           0       -3.651428    1.703511    0.000072
     17          1           0       -2.916564   -0.307378    0.000088
     18          6           0       -1.956440    3.448541    0.000010
     19          6           0       -3.291373    3.056302    0.000042
     20          1           0       -4.698963    1.402487    0.000103
     21          1           0       -1.683336    4.504591   -0.000015
     22          1           0       -4.069425    3.822335    0.000044
     23          6           0       -0.250548    0.113763    0.000002
     24          8           0        0.357430    2.829354   -0.000039
     25          1           0        0.902226    1.975262   -0.000065
 ---------------------------------------------------------------------

 SCF Done:  E(RwB97XD) =  -1028.82672801     A.U. after    1 cycles

 Alpha  occ. eigenvalues --  -89.08406 -19.27900 -14.47304 -10.39300 -10.37360
 Alpha  occ. eigenvalues --  -10.35260 -10.34574 -10.32195 -10.31940 -10.31877
 Alpha  occ. eigenvalues --  -10.31833 -10.31591 -10.31533 -10.31525 -10.30343
 Alpha  occ. eigenvalues --  -10.30281  -8.10568  -6.05407  -6.05048  -6.04622
 Alpha  occ. eigenvalues --   -1.16328  -1.08879  -0.97365  -0.96347  -0.91981
 Alpha  occ. eigenvalues --   -0.88617  -0.85573  -0.84625  -0.82897  -0.75497
 Alpha  occ. eigenvalues --   -0.71622  -0.70697  -0.69408  -0.68042  -0.63355
 Alpha  occ. eigenvalues --   -0.60645  -0.58929  -0.58491  -0.56504  -0.54573
 Alpha  occ. eigenvalues --   -0.54198  -0.53347  -0.52969  -0.50807  -0.50389
 Alpha  occ. eigenvalues --   -0.49212  -0.47362  -0.46002  -0.45515  -0.45072
 Alpha  occ. eigenvalues --   -0.44094  -0.43000  -0.42524  -0.39819  -0.37204
 Alpha  occ. eigenvalues --   -0.36240  -0.32098  -0.31730  -0.29179
 Alpha virt. eigenvalues --   -0.00489   0.04834   0.06733   0.07142   0.08145
 Alpha virt. eigenvalues --    0.11359   0.14607   0.15258   0.17267   0.18083
 Alpha virt. eigenvalues --    0.18968   0.21115   0.21566   0.22574   0.22691

 Mulliken charges:
               1
     1  C    0.017500
     2  C   -0.210113
     3  C    0.215735
     4  C   -0.019682
     5  C    0.002678
     6  C    0.003114
     7  H    0.018011
     8  H    0.020129
     9  H    0.020362
    10  H    0.021421
    11  N   -0.360188
    12  S    0.149696
    13  C   -0.043476
    14  C   -0.033783
    15  C    0.071603
    16  C   -0.005412
    17  H    0.022540
    18  C    0.000059
    19  C    0.021438
    20  H    0.009623
    21  H    0.016967
    22  H    0.019200
    23  C    0.088361
    24  O   -0.217207
    25  H    0.171425
 Sum of Mulliken charges =  -0.00000

 Dipole moment (field-independent basis, Debye):
    X=             -0.2298    Y=             -2.7484    Z=             -0.0000  Tot=              2.7580
 Quadrupole moment (field-independent basis, Debye-Ang):
   XX=            -82.6961   YY=            -90.3564   ZZ=           -104.0091
   XY=             -7.3087   XZ=             -0.0001   YZ=              0.0002

  Exact polarizability:     273.145     -67.762     253.767      -0.001       0.002      62.844
 Approx polarizability:     261.228     -23.091     241.620       0.000       0.002      82.134

 ******    1 imaginary frequencies (negative Signs) ******

                      1                      2                      3
                      A                      A                      A
 Frequencies --    -14.9016                64.3481               132.0043
 Red. masses --      5.4845                 5.8457                 5.6906
 Frc consts  --      0.0007                 0.0143                 0.0584
 IR Inten    --      0.0424                 1.1747                 2.0295

                      4                      5                      6
                      A                      A                      A
 Frequencies --    151.2822               197.2041               245.1386
 Red. masses --      5.0250                 6.1005                 5.5345
 Frc consts  --      0.0678                 0.1398                 0.1960
 IR Inten    --      0.0954                 0.8034                 0.0197

                      7                      8                      9
                      A                      A                      A
 Frequencies --    281.5068               320.0156               330.3677
 Red. masses --      7.6843                 6.3312                 5.0818
 Frc consts  --      0.3588                 0.3820                 0.3268
 IR Inten    --      1.2678                 9.1479                 0.0389

                     10                     11                     12
                      A                      A                      A
 Frequencies --    421.5042               437.1574               465.4043
 Red. masses --     10.0188                 3.0970                 3.5978
 Frc consts  --      1.0487                 0.3487                 0.4591
 IR Inten    --      0.1839                 1.6406                 8.1843

                     13                     14                     15
                      A                      A                      A
 Frequencies --    517.9256               524.7883               536.5048
 Red. masses --      8.1385                 5.7956                 3.4580
 Frc consts  --      1.2863                 0.9404                 0.5864
 IR Inten    --      0.5454                11.5742                 3.5268

                     16                     17                     18
                      A                      A                      A
 Frequencies --    557.2287               576.9613               590.7768
 Red. masses --      7.3471                 3.7496                 7.6711
 Frc consts  --      1.3441                 0.7354                 1.5774
 IR Inten    --      2.6012                 0.0294                 4.3062

                     19                     20                     21
                      A                      A                      A
 Frequencies --    647.5051               680.9334               735.2083
 Red. masses --      6.2135                 6.6493                 6.4801
 Frc consts  --      1.5349                 1.8165                 2.0637
 IR Inten    --      0.0002                 3.6586                16.0396

                     22                     23                     24
                      A                      A                      A
 Frequencies --    756.2653               756.5910               766.2050
 Red. masses --     10.1735                 1.9329                 3.4671
 Frc consts  --      3.4282                 0.6519                 1.1992
 IR Inten    --     19.3103                30.8670                 0.0355

                     25                     26                     27
                      A                      A                      A
 Frequencies --    773.9014               786.3763               853.4245
 Red. masses --      1.3141                 1.9849                 6.0860
 Frc consts  --      0.4637                 0.7232                 2.6116
 IR Inten    --     59.5783                39.7891                15.2464

                     28                     29                     30
                      A                      A                      A
 Frequencies --    881.4841               887.2288               891.0493
 Red. masses --      1.5651                 1.4110                 6.6569
 Frc consts  --      0.7165                 0.6544                 3.1140
 IR Inten    --      5.9075                 0.1249                 4.9094

                     31                     32                     33
                      A                      A                      A
 Frequencies --    926.0404               966.3651               975.5817
 Red. masses --      1.0774                 1.3665                 1.3669
 Frc consts  --      0.5444                 0.7519                 0.7665
 IR Inten    --     77.5446                 0.7414                 1.8639

                     34                     35                     36
                      A                      A                      A
 Frequencies --   1008.3620              1011.1498              1015.3010
 Red. masses --      7.8148                 1.3047                 1.3056
 Frc consts  --      4.6817                 0.7859                 0.7930
 IR Inten    --     45.4073                 0.5610                 0.0313

                     37                     38                     39
                      A                      A                      A
 Frequencies --   1051.8681              1074.1798              1108.4149
 Red. masses --      1.9931                 1.8981                 3.3110
 Frc consts  --      1.2993                 1.2904                 2.3967
 IR Inten    --      8.8454                 6.9578                 5.9789

                     40                     41                     42
                      A                      A                      A
 Frequencies --   1158.2503              1159.7801              1180.4921
 Red. masses --      1.3955                 1.3879                 1.2219
 Frc consts  --      1.1030                 1.0999                 1.0032
 IR Inten    --      6.0976                 4.0887                27.6729

                     43                     44                     45
                      A                      A                      A
 Frequencies --   1186.1478              1264.6221              1280.9020
 Red. masses --      1.2967                 2.2271                 2.7037
 Frc consts  --      1.0749                 2.0985                 2.6136
 IR Inten    --      8.8895               105.4962                89.1304

                     46                     47                     48
                      A                      A                      A
 Frequencies --   1299.3354              1323.6353              1356.0163
 Red. masses --      1.7720                 2.1417                 3.5465
 Frc consts  --      1.7626                 2.2108                 3.8422
 IR Inten    --     53.1926                40.9779                27.7863

                     49                     50                     51
                      A                      A                      A
 Frequencies --   1373.2106              1379.7783              1481.2695
 Red. masses --      6.7217                 5.7678                 2.5131
 Frc consts  --      7.4680                 6.4696                 3.2489
 IR Inten    --     13.3278                10.0905                19.9144

                     52                     53                     54
                      A                      A                      A
 Frequencies --   1489.8188              1504.0838              1542.9063
 Red. masses --      2.5199                 2.8746                 3.4708
 Frc consts  --      3.2953                 3.8316                 4.8680
 IR Inten    --     37.1938                22.3707               100.6010

                     55                     56                     57
                      A                      A                      A
 Frequencies --   1576.2254              1597.2469              1648.6051
 Red. masses --      4.4681                 2.4365                 6.8829
 Frc consts  --      6.5405                 3.6623                11.0219
 IR Inten    --    295.4426                14.4963                 5.3636

                     58                     59                     60
                      A                      A                      A
 Frequencies --   1677.9346              1688.3545              1713.2897
 Red. masses --      6.6874                 3.7160                 3.1774
 Frc consts  --     11.0932                 6.2410                 5.4953
 IR Inten    --     16.2642               167.6976               152.4558

                     61                     62                     63
                      A                      A                      A
 Frequencies --   2923.6810              3207.1447              3209.0706
 Red. masses --      1.0741                 1.0861                 1.0861
 Frc consts  --      5.4093                 6.5819                 6.5897
 IR Inten    --   1163.1290                 1.4742                 1.4347

                     64                     65                     66
                      A                      A                      A
 Frequencies --   3212.4087              3219.3835              3228.4880
 Red. masses --      1.0902                 1.0903                 1.0943
 Frc consts  --      6.6286                 6.6581                 6.7205
 IR Inten    --     11.5199                 2.8409                13.4597

                     67                     68                     69
                      A                      A                      A
 Frequencies --   3228.8639              3235.9139              3238.8352
 Red. masses --      1.0959                 1.1000                 1.0992
 Frc consts  --      6.7316                 6.7861                 6.7939
 IR Inten    --      9.6990                16.5449                12.7376

 - Thermochemistry -
 -------------------
 Temperature   298.150 Kelvin.  Pressure   1.00000 Atm.
 Atom     1 has atomic number  6 and mass  12.00000

 Molecular mass:   227.04049 amu.
 Principal axes and moments of inertia in atomic units:
                           1         2         3
     Eigenvalues --  1275.966746310.392527586.35926
           X           -0.70207   0.71211   0.00000
           Y            0.71211   0.70207  -0.00001
           Z            0.00001   0.00001   1.00000
 This molecule is an asymmetric top.
 Rotational symmetry number  1.
 Warning -- assumption of classical behavior for rotation
           may cause significant error
 Rotational temperatures (Kelvin)      0.06788     0.01373     0.01142
 Rotational constants (GHZ):           1.41441     0.28600     0.23789
    1 imaginary frequencies ignored.
 Zero-point vibrational energy     499376.6 (Joules/Mol)
                                  119.35387 (Kcal/Mol)
 Warning -- explicit consideration of  17 degrees of freedom as
           vibrations may cause significant error
 Vibrational temperatures:     92.58   189.92   217.66   283.73   352.70
          (Kelvin)            405.03   460.43   475.33   606.45   628.97
                              669.61   745.18   755.05   771.91   801.73
                              830.12   850.00   931.62   979.71  1057.80
                             1088.10  1088.57  1102.40  1113.47  1131.42
                             1227.89  1268.26  1276.52  1282.02  1332.37
                             1390.38  1403.64  1450.81  1454.82  1460.79
                             1513.40  1545.51  1594.76  1666.46  1668.66
                             1698.46  1706.60  1819.51  1842.93  1869.45
                             1904.42  1951.00  1975.74  1985.19  2131.22
                             2143.52  2164.04  2219.90  2267.84  2298.08
                             2371.98  2414.17  2429.17  2465.04  4206.52
                             4614.37  4617.14  4621.94  4631.97  4645.07
                             4645.61  4655.76  4659.96

 Zero-point correction=                           0.190203 (Hartree/Particle)
 Thermal correction to Energy=                    0.200925
 Thermal correction to Enthalpy=                  0.201869
 Thermal correction to Gibbs Free Energy=         0.153259
 Sum of electronic and zero-point Energies=          -1028.636526
 Sum of electronic and thermal Energies=             -1028.625803
 Sum of electronic and thermal Enthalpies=           -1028.624859
 Sum of electronic and thermal Free Energies=        -1028.673469

                     E (Thermal)             CV                S
                      KCal/Mol        Cal/Mol-Kelvin    Cal/Mol-Kelvin
 Total                  126.082             45.213            102.309
 Electronic               0.000              0.000              0.000
 Translational            0.889              2.981             42.162
 Rotational               0.889              2.981             32.480
 Vibrational            124.305             39.252             27.667
 Vibration     1          0.597              1.971              4.319
 Vibration     2          0.612              1.921              2.917
 Vibration     3          0.619              1.901              2.656
 Vibration     4          0.637              1.844              2.159
 Vibration     5          0.660              1.771              1.765
 Vibration     6          0.681              1.708              1.524
 Vibration     7          0.706              1.635              1.310
 Vibration     8          0.713              1.615              1.258
 Vibration     9          0.784              1.423              0.887
 Vibration    10          0.797              1.389              0.836
 Vibration    11          0.823              1.327              0.751
 Vibration    12          0.873              1.210              0.615
 Vibration    13          0.880              1.195              0.599
 Vibration    14          0.892              1.169              0.573
 Vibration    15          0.913              1.124              0.529
 Vibration    16          0.933              1.081              0.491
 Vibration    17          0.948              1.051              0.466

 Optimization completed.
    -- Stationary point found.
 Normal termination of Gaussian 16 at Wed Oct 28 01:46:51 2020.
