 Gaussian 16, Revision C.01,
 Gaussian 16:  ES64L-G16RevC.01  3-Jul-2019

 ----------------------------------------------------------------------
 #p opt=addgic freq wb97xd/cc-pvdz nosymm int=ultrafine scrf=(solvent=C
 arbonTetraChloride)
 ----------------------------------------------------------------------

 ------------------------------------------------
 NM 2D-scan of HBT TD-WB97XD pVDZ in CTC Relaxed.
 ------------------------------------------------
 Symbolic Z-matrix:
 Charge =  0 Multiplicity = 1

 SCF Done:  E(RwB97XD) =  -1028.80622542     A.U. after   15 cycles
 SCF Done:  E(RwB97XD) =  -1028.81155988     A.U. after   13 cycles
 SCF Done:  E(RwB97XD) =  -1028.81087700     A.U. after   13 cycles
 SCF Done:  E(RwB97XD) =  -1028.81260507     A.U. after   12 cycles
 SCF Done:  E(RwB97XD) =  -1028.81264774     A.U. after   12 cycles
 SCF Done:  E(RwB97XD) =  -1028.81245558     A.U. after   12 cycles
 SCF Done:  E(RwB97XD) =  -1028.81262507     A.U. after   12 cycles
 SCF Done:  E(RwB97XD) =  -1028.81267298     A.U. after   12 cycles
 SCF Done:  E(RwB97XD) =  -1028.81269543     A.U. after   10 cycles
 SCF Done:  E(RwB97XD) =  -1028.81269790     A.U. after    9 cycles
 Optimization completed.
    -- Stationary point found.
 Normal termination of Gaussian 16 at Wed Oct 28 00:30:13 2020.

 --------------------------------------------------------------------
 #P Geom=AllCheck Guess=TCheck SCRF=Check GenChk RwB97XD/CC-pVDZ Freq
 --------------------------------------------------------------------

 Structure from the checkpoint file:  "config_7_14.chk"
 ------------------------------------------------
 NM 2D-scan of HBT TD-WB97XD pVDZ in CTC Relaxed.
 ------------------------------------------------
 Charge =  0 Multiplicity = 1

                          Input orientation:
 ---------------------------------------------------------------------
 Center     Atomic      Atomic             Coordinates (Angstroms)
 Number     Number       Type             X           Y           Z
 ---------------------------------------------------------------------
      1          6           0        1.569588   -3.240965   -0.000003
      2          6           0        1.005573   -1.970408   -0.000038
      3          6           0        1.769036   -0.792994   -0.000053
      4          6           0        3.165944   -0.898377   -0.000066
      5          6           0        3.736266   -2.171593   -0.000028
      6          6           0        2.953304   -3.334418    0.000010
      7          1           0        0.938369   -4.129926    0.000011
      8          1           0        3.790612   -0.004762   -0.000095
      9          1           0        4.823514   -2.261469   -0.000029
     10          1           0        3.431660   -4.314449    0.000037
     11          7           0        0.956619    0.344358   -0.000067
     12         16           0       -0.702149   -1.611120   -0.000094
     13          6           0       -1.339418    1.092796    0.000067
     14          6           0       -2.706881    0.770882    0.000003
     15          6           0       -0.865983    2.439981    0.000299
     16          6           0       -3.659913    1.766408    0.000017
     17          1           0       -3.014832   -0.278013   -0.000094
     18          6           0       -1.881448    3.445988    0.000121
     19          6           0       -3.224837    3.106676    0.000028
     20          1           0       -4.722457    1.524061   -0.000053
     21          1           0       -1.570993    4.492052    0.000102
     22          1           0       -3.970191    3.905607   -0.000030
     23          6           0       -0.338104    0.072179   -0.000023
     24          8           0        0.406921    2.676424    0.000195
     25          1           0        0.982339    1.563497   -0.000117
 ---------------------------------------------------------------------

 SCF Done:  E(RwB97XD) =  -1028.81269790     A.U. after    1 cycles

 Alpha  occ. eigenvalues --  -89.09342 -19.23869 -14.49423 -10.40204 -10.36549
 Alpha  occ. eigenvalues --  -10.36525 -10.35354 -10.32773 -10.32588 -10.32148
 Alpha  occ. eigenvalues --  -10.32030 -10.31478 -10.31084 -10.30849 -10.29573
 Alpha  occ. eigenvalues --  -10.29390  -8.11492  -6.06341  -6.05975  -6.05531
 Alpha  occ. eigenvalues --   -1.13432  -1.09761  -0.97974  -0.95817  -0.92856
 Alpha  occ. eigenvalues --   -0.88948  -0.86221  -0.83856  -0.82725  -0.75690
 Alpha  occ. eigenvalues --   -0.71802  -0.71275  -0.68858  -0.67992  -0.63770
 Alpha  occ. eigenvalues --   -0.60929  -0.59520  -0.57451  -0.55898  -0.55188
 Alpha  occ. eigenvalues --   -0.54663  -0.53627  -0.52702  -0.50895  -0.49711
 Alpha  occ. eigenvalues --   -0.49537  -0.47253  -0.46511  -0.45313  -0.45066
 Alpha  occ. eigenvalues --   -0.44406  -0.43180  -0.42024  -0.40534  -0.36459
 Alpha  occ. eigenvalues --   -0.34379  -0.32924  -0.31554  -0.27759
 Alpha virt. eigenvalues --   -0.00875   0.04252   0.06314   0.07405   0.08211
 Alpha virt. eigenvalues --    0.11071   0.14757   0.14916   0.16847   0.17771
 Alpha virt. eigenvalues --    0.19072   0.20663   0.21538   0.21976   0.22896

 Mulliken charges:
               1
     1  C    0.019865
     2  C   -0.225914
     3  C    0.262004
     4  C   -0.014244
     5  C    0.005575
     6  C    0.005261
     7  H    0.021894
     8  H    0.027539
     9  H    0.024638
    10  H    0.024368
    11  N   -0.279897
    12  S    0.176320
    13  C   -0.086655
    14  C   -0.024164
    15  C    0.116630
    16  C   -0.019979
    17  H    0.013906
    18  C   -0.018573
    19  C    0.023261
    20  H    0.004882
    21  H    0.008021
    22  H    0.015877
    23  C    0.075403
    24  O   -0.367427
    25  H    0.211409
 Sum of Mulliken charges =  -0.00000

 Dipole moment (field-independent basis, Debye):
    X=              0.7991    Y=             -4.3512    Z=             -0.0005  Tot=              4.4239
 Quadrupole moment (field-independent basis, Debye-Ang):
   XX=            -82.5117   YY=            -92.8276   ZZ=           -103.9351
   XY=             -7.1048   XZ=              0.0000   YZ=             -0.0010

  Exact polarizability:     279.043     -75.649     266.053       0.001       0.004      62.809
 Approx polarizability:     263.968     -27.049     248.431       0.002       0.004      82.088

 ******    1 imaginary frequencies (negative Signs) ******

                      1                      2                      3
                      A                      A                      A
 Frequencies --  -1211.3093                50.5945                63.1686
 Red. masses --      1.1097                 4.7511                 6.3584
 Frc consts  --      0.9594                 0.0072                 0.0149
 IR Inten    --   1609.9651                 0.0383                 1.3950

                      4                      5                      6
                      A                      A                      A
 Frequencies --    145.3301               152.0242               201.5160
 Red. masses --      5.5757                 5.1447                 6.3840
 Frc consts  --      0.0694                 0.0701                 0.1527
 IR Inten    --      0.7075                 0.9010                 0.1673

                      7                      8                      9
                      A                      A                      A
 Frequencies --    243.2001               283.3132               323.3771
 Red. masses --      5.9354                 7.1421                 5.2589
 Frc consts  --      0.2068                 0.3378                 0.3240
 IR Inten    --      0.3519                 4.1753                 0.2723

                     10                     11                     12
                      A                      A                      A
 Frequencies --    381.5541               429.2096               433.4112
 Red. masses --      6.1754                11.7161                 3.1199
 Frc consts  --      0.5297                 1.2717                 0.3453
 IR Inten    --      1.8667                 1.4905                 1.0032

                     13                     14                     15
                      A                      A                      A
 Frequencies --    457.8423               517.4886               536.9397
 Red. masses --      3.5541                 8.7186                 3.2175
 Frc consts  --      0.4389                 1.3756                 0.5465
 IR Inten    --      9.5965                 5.1839                 3.8414

                     16                     17                     18
                      A                      A                      A
 Frequencies --    558.2405               571.2429               576.3642
 Red. masses --      8.7762                 3.6992                 7.4086
 Frc consts  --      1.6114                 0.7112                 1.4500
 IR Inten    --      5.7224                 0.1118                 7.0531

                     19                     20                     21
                      A                      A                      A
 Frequencies --    616.9274               648.4924               693.4403
 Red. masses --      7.3243                 6.4770                 6.3562
 Frc consts  --      1.6424                 1.6048                 1.8008
 IR Inten    --     22.2854                 0.0004                 1.9648

                     22                     23                     24
                      A                      A                      A
 Frequencies --    735.9607               753.9797               766.7021
 Red. masses --      6.5380                 2.2902                 1.5458
 Frc consts  --      2.0864                 0.7671                 0.5354
 IR Inten    --      7.9647                19.6383                40.9101

                     25                     26                     27
                      A                      A                      A
 Frequencies --    776.0753               777.0923               780.3271
 Red. masses --      2.4141                 8.2263                 1.7475
 Frc consts  --      0.8567                 2.9269                 0.6269
 IR Inten    --     15.7529                36.1368                51.3312

                     28                     29                     30
                      A                      A                      A
 Frequencies --    858.6419               877.7034               885.3719
 Red. masses --      6.2910                 1.6806                 1.3861
 Frc consts  --      2.7327                 0.7628                 0.6402
 IR Inten    --     14.9986                 7.7619                 0.4812

                     31                     32                     33
                      A                      A                      A
 Frequencies --    929.2349               964.1109               973.5651
 Red. masses --      7.1531                 1.3485                 1.3631
 Frc consts  --      3.6391                 0.7385                 0.7612
 IR Inten    --      3.6157                 0.6698                 1.5874

                     34                     35                     36
                      A                      A                      A
 Frequencies --   1012.1592              1015.4301              1018.7219
 Red. masses --      1.3059                 1.3059                 7.5212
 Frc consts  --      0.7882                 0.7933                 4.5988
 IR Inten    --      0.3026                 0.0015                11.7716

                     37                     38                     39
                      A                      A                      A
 Frequencies --   1053.2951              1058.6492              1109.2903
 Red. masses --      2.0293                 1.9114                 3.1753
 Frc consts  --      1.3265                 1.2622                 2.3021
 IR Inten    --      8.4956                 7.8034                 2.5080

                     40                     41                     42
                      A                      A                      A
 Frequencies --   1159.9803              1162.3198              1175.8195
 Red. masses --      1.3847                 1.4209                 1.1078
 Frc consts  --      1.0978                 1.1310                 0.9024
 IR Inten    --      9.8835                 2.1652                83.8876

                     43                     44                     45
                      A                      A                      A
 Frequencies --   1176.4967              1184.0827              1257.5416
 Red. masses --      1.0558                 1.2298                 1.9887
 Frc consts  --      0.8610                 1.0159                 1.8530
 IR Inten    --     71.3946                 1.6677                44.1522

                     46                     47                     48
                      A                      A                      A
 Frequencies --   1289.9519              1325.3337              1335.3174
 Red. masses --      1.5495                 4.5219                 2.5186
 Frc consts  --      1.5191                 4.6797                 2.6459
 IR Inten    --      5.7032               354.0206                34.5426

                     49                     50                     51
                      A                      A                      A
 Frequencies --   1376.3954              1396.0423              1403.7909
 Red. masses --      6.4843                 2.3937                 8.4932
 Frc consts  --      7.2377                 2.7486                 9.8612
 IR Inten    --     27.5753                14.3180                21.2903

                     52                     53                     54
                      A                      A                      A
 Frequencies --   1487.6540              1499.3306              1511.2100
 Red. masses --      2.7806                 2.8386                 3.1169
 Frc consts  --      3.6257                 3.7596                 4.1939
 IR Inten    --     36.8982                13.2428                32.4687

                     55                     56                     57
                      A                      A                      A
 Frequencies --   1566.0181              1580.0352              1617.0284
 Red. masses --      5.9076                 5.3835                 6.2503
 Frc consts  --      8.5360                 7.9186                 9.6291
 IR Inten    --   1269.7365               294.7467                88.8140

                     58                     59                     60
                      A                      A                      A
 Frequencies --   1657.5719              1679.9275              1705.2192
 Red. masses --      6.9442                 6.7878                 6.8139
 Frc consts  --     11.2414                11.2866                11.6736
 IR Inten    --      2.9882                 2.6309               222.1234

                     61                     62                     63
                      A                      A                      A
 Frequencies --   1955.1354              3194.3812              3201.8823
 Red. masses --      1.0976                 1.0885                 1.0888
 Frc consts  --      2.4719                 6.5443                 6.5769
 IR Inten    --    210.7978                 3.1352                11.0122

                     64                     65                     66
                      A                      A                      A
 Frequencies --   3213.1649              3222.7481              3225.6018
 Red. masses --      1.0862                 1.0908                 1.0938
 Frc consts  --      6.6076                 6.6749                 6.7052
 IR Inten    --      1.4831                 2.5160                19.4712

                     67                     68                     69
                      A                      A                      A
 Frequencies --   3232.5336              3236.1377              3239.1964
 Red. masses --      1.0959                 1.0981                 1.0999
 Frc consts  --      6.7472                 6.7756                 6.7995
 IR Inten    --      6.2718                18.0667                12.2424

 - Thermochemistry -
 -------------------
 Temperature   298.150 Kelvin.  Pressure   1.00000 Atm.
 Atom     1 has atomic number  6 and mass  12.00000

 Molecular mass:   227.04049 amu.
 Principal axes and moments of inertia in atomic units:
                           1         2         3
     Eigenvalues --  1273.323386232.927577506.25095
           X            0.70785   0.70636  -0.00002
           Y           -0.70636   0.70785  -0.00004
           Z           -0.00002   0.00004   1.00000
 This molecule is an asymmetric top.
 Rotational symmetry number  1.
 Warning -- assumption of classical behavior for rotation
           may cause significant error
 Rotational temperatures (Kelvin)      0.06802     0.01390     0.01154
 Rotational constants (GHZ):           1.41735     0.28955     0.24043
    1 imaginary frequencies ignored.
 Zero-point vibrational energy     487465.3 (Joules/Mol)
                                  116.50701 (Kcal/Mol)
 Warning -- explicit consideration of  18 degrees of freedom as
           vibrations may cause significant error
 Vibrational temperatures:     72.79    90.89   209.10   218.73   289.94
          (Kelvin)            349.91   407.62   465.27   548.97   617.54
                              623.58   658.73   744.55   772.54   803.18
                              821.89   829.26   887.62   933.04   997.71
                             1058.88  1084.81  1103.11  1116.60  1118.06
                             1122.72  1235.39  1262.82  1273.85  1336.96
                             1387.14  1400.74  1456.27  1460.98  1465.71
                             1515.46  1523.16  1596.02  1668.95  1672.32
                             1691.74  1692.72  1703.63  1809.32  1855.95
                             1906.86  1921.22  1980.33  2008.59  2019.74
                             2140.40  2157.20  2174.29  2253.15  2273.32
                             2326.54  2384.88  2417.04  2453.43  2813.00
                             4596.00  4606.79  4623.03  4636.82  4640.92
                             4650.89  4656.08  4660.48

 Zero-point correction=                           0.185666 (Hartree/Particle)
 Thermal correction to Energy=                    0.197037
 Thermal correction to Enthalpy=                  0.197981
 Thermal correction to Gibbs Free Energy=         0.147445
 Sum of electronic and zero-point Energies=          -1028.627032
 Sum of electronic and thermal Energies=             -1028.615661
 Sum of electronic and thermal Enthalpies=           -1028.614717
 Sum of electronic and thermal Free Energies=        -1028.665253

                     E (Thermal)             CV                S
                      KCal/Mol        Cal/Mol-Kelvin    Cal/Mol-Kelvin
 Total                  123.642             46.482            106.361
 Electronic               0.000              0.000              0.000
 Translational            0.889              2.981             42.162
 Rotational               0.889              2.981             32.455
 Vibrational            121.865             40.520             31.745
 Vibration     1          0.595              1.977              4.794
 Vibration     2          0.597              1.972              4.356
 Vibration     3          0.617              1.908              2.732
 Vibration     4          0.619              1.900              2.647
 Vibration     5          0.638              1.838              2.119
 Vibration     6          0.659              1.774              1.779
 Vibration     7          0.682              1.705              1.514
 Vibration     8          0.708              1.629              1.293
 Vibration     9          0.751              1.510              1.033
 Vibration    10          0.791              1.407              0.861
 Vibration    11          0.794              1.397              0.848
 Vibration    12          0.816              1.344              0.772
 Vibration    13          0.872              1.211              0.616
 Vibration    14          0.892              1.168              0.572
 Vibration    15          0.914              1.122              0.527
 Vibration    16          0.927              1.093              0.502
 Vibration    17          0.933              1.082              0.492
 Vibration    18          0.977              0.996              0.421

 Optimization completed.
    -- Stationary point found.
 Normal termination of Gaussian 16 at Wed Oct 28 00:36:45 2020.
