 Gaussian 16, Revision C.01,
 Gaussian 16:  ES64L-G16RevC.01  3-Jul-2019

 ----------------------------------------------------------------------
 #p opt=addgic freq wb97xd/cc-pvdz nosymm int=ultrafine scrf=(solvent=C
 arbonTetraChloride)
 ----------------------------------------------------------------------

 ------------------------------------------------
 NM 2D-scan of HBT TD-WB97XD pVDZ in CTC Relaxed.
 ------------------------------------------------
 Symbolic Z-matrix:
 Charge =  0 Multiplicity = 1

 SCF Done:  E(RwB97XD) =  -1028.80151747     A.U. after   15 cycles
 SCF Done:  E(RwB97XD) =  -1028.82218130     A.U. after   13 cycles
 SCF Done:  E(RwB97XD) =  -1028.82397743     A.U. after   12 cycles
 SCF Done:  E(RwB97XD) =  -1028.82434435     A.U. after   11 cycles
 SCF Done:  E(RwB97XD) =  -1028.82436948     A.U. after   10 cycles
 SCF Done:  E(RwB97XD) =  -1028.82437186     A.U. after    9 cycles
 Optimization completed.
    -- Stationary point found.
 Normal termination of Gaussian 16 at Tue Oct 27 21:08:49 2020.

 --------------------------------------------------------------------
 #P Geom=AllCheck Guess=TCheck SCRF=Check GenChk RwB97XD/CC-pVDZ Freq
 --------------------------------------------------------------------

 Structure from the checkpoint file:  "config_4_3.chk"
 ------------------------------------------------
 NM 2D-scan of HBT TD-WB97XD pVDZ in CTC Relaxed.
 ------------------------------------------------
 Charge =  0 Multiplicity = 1

                          Input orientation:
 ---------------------------------------------------------------------
 Center     Atomic      Atomic             Coordinates (Angstroms)
 Number     Number       Type             X           Y           Z
 ---------------------------------------------------------------------
      1          6           0        1.740662   -3.296218   -0.000026
      2          6           0        0.986817   -2.114695   -0.000020
      3          6           0        1.645722   -0.875005   -0.000014
      4          6           0        3.040280   -0.776867   -0.000010
      5          6           0        3.780989   -1.943839   -0.000016
      6          6           0        3.130844   -3.190174   -0.000025
      7          1           0        1.262742   -4.276285   -0.000033
      8          1           0        3.505099    0.209487   -0.000005
      9          1           0        4.870923   -1.900748   -0.000015
     10          1           0        3.727940   -4.103509   -0.000030
     11          7           0        0.825115    0.218250   -0.000012
     12         16           0       -0.757956   -1.828139   -0.000025
     13          6           0       -1.401629    1.056251   -0.000002
     14          6           0       -2.803010    0.908805   -0.000008
     15          6           0       -0.872205    2.386825    0.000025
     16          6           0       -3.651694    2.006850    0.000024
     17          1           0       -3.229577   -0.097487   -0.000036
     18          6           0       -1.746058    3.484387    0.000065
     19          6           0       -3.114295    3.302030    0.000067
     20          1           0       -4.731874    1.859413    0.000019
     21          1           0       -1.296681    4.477969    0.000092
     22          1           0       -3.775507    4.170608    0.000098
     23          6           0       -0.444882   -0.064020   -0.000016
     24          8           0        0.425488    2.690998    0.000010
     25          1           0        0.916456    1.826615   -0.000015
 ---------------------------------------------------------------------

 SCF Done:  E(RwB97XD) =  -1028.82437186     A.U. after    1 cycles

 Alpha  occ. eigenvalues --  -89.09069 -19.27527 -14.46708 -10.39770 -10.37279
 Alpha  occ. eigenvalues --  -10.35121 -10.34732 -10.32668 -10.32586 -10.31845
 Alpha  occ. eigenvalues --  -10.31712 -10.31590 -10.31518 -10.31223 -10.30120
 Alpha  occ. eigenvalues --  -10.29807  -8.10973  -6.05846  -6.05485  -6.05012
 Alpha  occ. eigenvalues --   -1.16251  -1.09176  -0.97240  -0.95950  -0.91312
 Alpha  occ. eigenvalues --   -0.88560  -0.85227  -0.84376  -0.83016  -0.75518
 Alpha  occ. eigenvalues --   -0.71281  -0.70528  -0.69408  -0.68206  -0.62964
 Alpha  occ. eigenvalues --   -0.60502  -0.58727  -0.58273  -0.56241  -0.54443
 Alpha  occ. eigenvalues --   -0.54062  -0.53232  -0.52399  -0.51053  -0.50189
 Alpha  occ. eigenvalues --   -0.49463  -0.47724  -0.45895  -0.45292  -0.44946
 Alpha  occ. eigenvalues --   -0.43713  -0.42767  -0.42754  -0.39800  -0.36839
 Alpha  occ. eigenvalues --   -0.36162  -0.32287  -0.31607  -0.28892
 Alpha virt. eigenvalues --   -0.00490   0.04721   0.06925   0.07280   0.07387
 Alpha virt. eigenvalues --    0.11379   0.12964   0.15085   0.15907   0.17788
 Alpha virt. eigenvalues --    0.19013   0.20651   0.21735   0.22511   0.22702

 Mulliken charges:
               1
     1  C    0.001239
     2  C   -0.222911
     3  C    0.249302
     4  C   -0.012543
     5  C    0.008428
     6  C   -0.001466
     7  H    0.021260
     8  H    0.019269
     9  H    0.020162
    10  H    0.022103
    11  N   -0.336004
    12  S    0.144660
    13  C   -0.085152
    14  C   -0.015016
    15  C    0.077506
    16  C   -0.010936
    17  H    0.008119
    18  C    0.012095
    19  C    0.020327
    20  H    0.009723
    21  H    0.015081
    22  H    0.017555
    23  C    0.081034
    24  O   -0.206659
    25  H    0.162823
 Sum of Mulliken charges =  -0.00000

 Dipole moment (field-independent basis, Debye):
    X=              0.2798    Y=             -2.4520    Z=             -0.0000  Tot=              2.4679
 Quadrupole moment (field-independent basis, Debye-Ang):
   XX=            -82.7206   YY=            -89.9937   ZZ=           -104.2093
   XY=             -7.0765   XZ=             -0.0001   YZ=              0.0003

  Exact polarizability:     275.857     -66.242     257.292      -0.001       0.003      63.103
 Approx polarizability:     263.775     -22.929     243.765      -0.000       0.002      82.299

                      1                      2                      3
                      A                      A                      A
 Frequencies --     36.4587                55.4721               119.4974
 Red. masses --      5.6033                 5.8767                 5.6715
 Frc consts  --      0.0044                 0.0107                 0.0477
 IR Inten    --      0.0417                 1.3031                 1.1382

                      4                      5                      6
                      A                      A                      A
 Frequencies --    151.2235               198.9640               244.8581
 Red. masses --      4.8793                 5.7272                 5.8058
 Frc consts  --      0.0657                 0.1336                 0.2051
 IR Inten    --      0.0159                 0.4474                 0.0710

                      7                      8                      9
                      A                      A                      A
 Frequencies --    268.4825               316.1638               324.9064
 Red. masses --      7.6740                 6.4860                 5.0967
 Frc consts  --      0.3259                 0.3820                 0.3170
 IR Inten    --      0.8932                 7.0147                 0.4324

                     10                     11                     12
                      A                      A                      A
 Frequencies --    400.4276               438.6283               466.2924
 Red. masses --      9.2768                 3.1472                 3.7157
 Frc consts  --      0.8764                 0.3568                 0.4760
 IR Inten    --      0.3006                 2.1387                 8.4761

                     13                     14                     15
                      A                      A                      A
 Frequencies --    513.5834               516.1813               539.2608
 Red. masses --      7.0436                 5.4765                 3.4786
 Frc consts  --      1.0946                 0.8597                 0.5960
 IR Inten    --      3.4929                 5.1773                 3.8307

                     16                     17                     18
                      A                      A                      A
 Frequencies --    547.7273               573.3348               594.3925
 Red. masses --      8.5797                 3.6881                 7.6803
 Frc consts  --      1.5165                 0.7143                 1.5987
 IR Inten    --      2.8039                 0.0483                 5.6020

                     19                     20                     21
                      A                      A                      A
 Frequencies --    645.8876               680.7629               700.1828
 Red. masses --      5.9950                 6.4176                 7.5801
 Frc consts  --      1.4735                 1.7523                 2.1895
 IR Inten    --      0.0710                15.4895                33.2355

                     22                     23                     24
                      A                      A                      A
 Frequencies --    727.8197               753.9701               761.8978
 Red. masses --      8.9393                 2.0454                 2.8617
 Frc consts  --      2.7900                 0.6851                 0.9787
 IR Inten    --      5.1894                28.4968                 0.9533

                     25                     26                     27
                      A                      A                      A
 Frequencies --    775.9097               785.2391               842.1704
 Red. masses --      1.3293                 1.8769                 6.0173
 Frc consts  --      0.4715                 0.6819                 2.5145
 IR Inten    --     67.8816                30.0888                21.7096

                     28                     29                     30
                      A                      A                      A
 Frequencies --    859.4041               884.5661               886.7024
 Red. masses --      1.1507                 1.5383                 1.4238
 Frc consts  --      0.5007                 0.7092                 0.6596
 IR Inten    --     71.5911                 5.7899                 4.2418

                     31                     32                     33
                      A                      A                      A
 Frequencies --    901.8484               971.4665               975.1304
 Red. masses --      6.4956                 1.3562                 1.3634
 Frc consts  --      3.1127                 0.7541                 0.7638
 IR Inten    --      0.5161                 1.1041                 1.7282

                     34                     35                     36
                      A                      A                      A
 Frequencies --    983.2211              1011.0317              1015.0492
 Red. masses --      7.5443                 1.2995                 1.3056
 Frc consts  --      4.2970                 0.7827                 0.7926
 IR Inten    --     68.6393                 0.3331                 0.0161

                     37                     38                     39
                      A                      A                      A
 Frequencies --   1050.6974              1068.3632              1091.0329
 Red. masses --      2.0347                 1.9973                 4.6042
 Frc consts  --      1.3235                 1.3432                 3.2291
 IR Inten    --      8.1145                11.9942                 5.7709

                     40                     41                     42
                      A                      A                      A
 Frequencies --   1145.0161              1150.7401              1174.1074
 Red. masses --      1.5245                 1.2735                 1.1206
 Frc consts  --      1.1776                 0.9936                 0.9101
 IR Inten    --     10.3321                 4.6864                49.1481

                     43                     44                     45
                      A                      A                      A
 Frequencies --   1183.1889              1245.7235              1283.4373
 Red. masses --      1.1788                 1.8796                 1.5561
 Frc consts  --      0.9723                 1.7185                 1.5102
 IR Inten    --      0.1575               147.9463                 0.0486

                     46                     47                     48
                      A                      A                      A
 Frequencies --   1286.4389              1320.0196              1355.9321
 Red. masses --      2.3009                 5.5554                 3.1984
 Frc consts  --      2.2435                 5.7033                 3.4647
 IR Inten    --    119.2292                10.1814                16.7304

                     49                     50                     51
                      A                      A                      A
 Frequencies --   1371.6919              1379.8767              1461.6111
 Red. masses --      7.8361                 2.9901                 1.8115
 Frc consts  --      8.6868                 3.3544                 2.2800
 IR Inten    --     17.8679                11.1892                42.8634

                     52                     53                     54
                      A                      A                      A
 Frequencies --   1491.9658              1495.1366              1520.9654
 Red. masses --      2.6730                 3.2381                 3.6793
 Frc consts  --      3.5056                 4.2648                 5.0148
 IR Inten    --     14.5628                32.2061               130.5446

                     55                     56                     57
                      A                      A                      A
 Frequencies --   1553.4749              1595.9715              1647.0704
 Red. masses --      2.3427                 7.6438                 6.3336
 Frc consts  --      3.3310                11.4712                10.1234
 IR Inten    --     67.4690               215.1701                14.0419

                     58                     59                     60
                      A                      A                      A
 Frequencies --   1658.4964              1682.2412              1707.7419
 Red. masses --      4.1014                 6.8304                 6.1162
 Frc consts  --      6.6469                11.3887                10.5093
 IR Inten    --    139.3653                17.3515               116.5025

                     61                     62                     63
                      A                      A                      A
 Frequencies --   3191.2486              3195.1504              3207.5013
 Red. masses --      1.0823                 1.0762                 1.0879
 Frc consts  --      6.4940                 6.4732                 6.5944
 IR Inten    --    320.8923               722.7404                 9.0231

                     64                     65                     66
                      A                      A                      A
 Frequencies --   3211.6513              3221.9413              3227.6127
 Red. masses --      1.0860                 1.0902                 1.0937
 Frc consts  --      6.6000                 6.6681                 6.7131
 IR Inten    --      0.9469                 1.7971                13.6738

                     67                     68                     69
                      A                      A                      A
 Frequencies --   3231.1366              3234.7639              3238.5185
 Red. masses --      1.0960                 1.0992                 1.1001
 Frc consts  --      6.7416                 6.7769                 6.7978
 IR Inten    --      8.1252                17.8804                13.0376

 - Thermochemistry -
 -------------------
 Temperature   298.150 Kelvin.  Pressure   1.00000 Atm.
 Atom     1 has atomic number  6 and mass  12.00000

 Molecular mass:   227.04049 amu.
 Principal axes and moments of inertia in atomic units:
                           1         2         3
     Eigenvalues --  1341.267076326.588307667.85537
           X           -0.69796   0.71613  -0.00000
           Y            0.71613   0.69796  -0.00001
           Z            0.00001   0.00001   1.00000
 This molecule is an asymmetric top.
 Rotational symmetry number  1.
 Warning -- assumption of classical behavior for rotation
           may cause significant error
 Rotational temperatures (Kelvin)      0.06458     0.01369     0.01130
 Rotational constants (GHZ):           1.34555     0.28526     0.23536
 Zero-point vibrational energy     498535.2 (Joules/Mol)
                                  119.15278 (Kcal/Mol)
 Warning -- explicit consideration of  18 degrees of freedom as
           vibrations may cause significant error
 Vibrational temperatures:     52.46    79.81   171.93   217.58   286.26
          (Kelvin)            352.30   386.29   454.89   467.47   576.13
                              631.09   670.89   738.93   742.67   775.88
                              788.06   824.90   855.20   929.29   979.47
                             1007.41  1047.17  1084.79  1096.20  1116.36
                             1129.78  1211.70  1236.49  1272.69  1275.77
                             1297.56  1397.72  1403.00  1414.64  1454.65
                             1460.43  1511.72  1537.14  1569.75  1647.42
                             1655.66  1689.28  1702.34  1792.32  1846.58
                             1850.90  1899.21  1950.88  1973.56  1985.33
                             2102.93  2146.61  2151.17  2188.33  2235.10
                             2296.25  2369.77  2386.21  2420.37  2457.06
                             4591.49  4597.11  4614.88  4620.85  4635.65
                             4643.81  4648.88  4654.10  4659.51

 Zero-point correction=                           0.189882 (Hartree/Particle)
 Thermal correction to Energy=                    0.201618
 Thermal correction to Enthalpy=                  0.202562
 Thermal correction to Gibbs Free Energy=         0.150930
 Sum of electronic and zero-point Energies=          -1028.634490
 Sum of electronic and thermal Energies=             -1028.622754
 Sum of electronic and thermal Enthalpies=           -1028.621810
 Sum of electronic and thermal Free Energies=        -1028.673442

                     E (Thermal)             CV                S
                      KCal/Mol        Cal/Mol-Kelvin    Cal/Mol-Kelvin
 Total                  126.517             47.664            108.668
 Electronic               0.000              0.000              0.000
 Translational            0.889              2.981             42.162
 Rotational               0.889              2.981             32.542
 Vibrational            124.740             41.703             33.964
 Vibration     1          0.594              1.982              5.443
 Vibration     2          0.596              1.975              4.612
 Vibration     3          0.609              1.933              3.108
 Vibration     4          0.619              1.901              2.657
 Vibration     5          0.637              1.841              2.143
 Vibration     6          0.660              1.771              1.767
 Vibration     7          0.673              1.731              1.606
 Vibration     8          0.703              1.643              1.330
 Vibration     9          0.709              1.626              1.285
 Vibration    10          0.766              1.469              0.961
 Vibration    11          0.799              1.386              0.831
 Vibration    12          0.824              1.325              0.748
 Vibration    13          0.869              1.220              0.625
 Vibration    14          0.871              1.214              0.619
 Vibration    15          0.894              1.163              0.567
 Vibration    16          0.903              1.145              0.549
 Vibration    17          0.930              1.089              0.498
 Vibration    18          0.952              1.044              0.459

 Optimization completed.
    -- Stationary point found.
 Normal termination of Gaussian 16 at Tue Oct 27 21:17:11 2020.
