 Gaussian 16, Revision C.01,
 Gaussian 16:  ES64L-G16RevC.01  3-Jul-2019

 ----------------------------------------------------------------------
 #p opt=addgic freq wb97xd/cc-pvdz nosymm int=ultrafine scrf=(solvent=C
 arbonTetraChloride)
 ----------------------------------------------------------------------

 ------------------------------------------------
 NM 2D-scan of HBT TD-WB97XD pVDZ in CTC Relaxed.
 ------------------------------------------------
 Symbolic Z-matrix:
 Charge =  0 Multiplicity = 1

 SCF Done:  E(RwB97XD) =  -1028.79345231     A.U. after   16 cycles
 SCF Done:  E(RwB97XD) =  -1028.80204993     A.U. after   13 cycles
 SCF Done:  E(RwB97XD) =  -1028.80271452     A.U. after   12 cycles
 SCF Done:  E(RwB97XD) =  -1028.80281078     A.U. after   12 cycles
 SCF Done:  E(RwB97XD) =  -1028.80282312     A.U. after   11 cycles
 SCF Done:  E(RwB97XD) =  -1028.80281212     A.U. after   11 cycles
 SCF Done:  E(RwB97XD) =  -1028.80281623     A.U. after   11 cycles
 SCF Done:  E(RwB97XD) =  -1028.80284041     A.U. after   11 cycles
 SCF Done:  E(RwB97XD) =  -1028.80284178     A.U. after    9 cycles
 Optimization completed.
    -- Stationary point found.
 Normal termination of Gaussian 16 at Wed Oct 28 02:22:02 2020.

 --------------------------------------------------------------------
 #P Geom=AllCheck Guess=TCheck SCRF=Check GenChk RwB97XD/CC-pVDZ Freq
 --------------------------------------------------------------------

 Structure from the checkpoint file:  "config_7_20.chk"
 ------------------------------------------------
 NM 2D-scan of HBT TD-WB97XD pVDZ in CTC Relaxed.
 ------------------------------------------------
 Charge =  0 Multiplicity = 1

                          Input orientation:
 ---------------------------------------------------------------------
 Center     Atomic      Atomic             Coordinates (Angstroms)
 Number     Number       Type             X           Y           Z
 ---------------------------------------------------------------------
      1          6           0        1.486548   -3.246194   -0.000037
      2          6           0        0.993277   -1.946172   -0.000024
      3          6           0        1.808300   -0.794709   -0.000012
      4          6           0        3.196794   -0.984071   -0.000016
      5          6           0        3.699375   -2.287991   -0.000031
      6          6           0        2.862911   -3.413300   -0.000041
      7          1           0        0.804801   -4.097257   -0.000043
      8          1           0        3.873959   -0.129480   -0.000005
      9          1           0        4.781017   -2.430492   -0.000033
     10          1           0        3.292298   -4.415733   -0.000049
     11          7           0        1.046594    0.396611    0.000019
     12         16           0       -0.689449   -1.529505   -0.000006
     13          6           0       -1.282348    1.122366    0.000031
     14          6           0       -2.640922    0.711404    0.000065
     15          6           0       -0.891969    2.502769   -0.000070
     16          6           0       -3.646531    1.634275    0.000023
     17          1           0       -2.888870   -0.352517    0.000134
     18          6           0       -1.982418    3.440053   -0.000011
     19          6           0       -3.290460    3.009817   -0.000008
     20          1           0       -4.692658    1.329476    0.000051
     21          1           0       -1.741887    4.504471    0.000014
     22          1           0       -4.088118    3.756925   -0.000016
     23          6           0       -0.263753    0.148482    0.000028
     24          8           0        0.348506    2.832276    0.000122
     25          1           0        1.117125    1.539747    0.000026
 ---------------------------------------------------------------------

 SCF Done:  E(RwB97XD) =  -1028.80284178     A.U. after    1 cycles

 Alpha  occ. eigenvalues --  -89.09358 -19.22634 -14.51459 -10.40602 -10.37493
 Alpha  occ. eigenvalues --  -10.36269 -10.35640 -10.32938 -10.32892 -10.32323
 Alpha  occ. eigenvalues --  -10.32195 -10.31331 -10.31044 -10.30362 -10.29418
 Alpha  occ. eigenvalues --  -10.29108  -8.11538  -6.06391  -6.06024  -6.05559
 Alpha  occ. eigenvalues --   -1.12363  -1.09501  -0.98303  -0.95846  -0.93187
 Alpha  occ. eigenvalues --   -0.89077  -0.86639  -0.83667  -0.82355  -0.75573
 Alpha  occ. eigenvalues --   -0.72217  -0.71814  -0.68639  -0.67606  -0.64234
 Alpha  occ. eigenvalues --   -0.60938  -0.59648  -0.57123  -0.55543  -0.55433
 Alpha  occ. eigenvalues --   -0.54869  -0.53900  -0.52871  -0.50419  -0.49624
 Alpha  occ. eigenvalues --   -0.49217  -0.47859  -0.46695  -0.45447  -0.44919
 Alpha  occ. eigenvalues --   -0.44480  -0.43042  -0.41896  -0.40564  -0.36610
 Alpha  occ. eigenvalues --   -0.33280  -0.33244  -0.31517  -0.27106
 Alpha virt. eigenvalues --   -0.01096   0.04026   0.05753   0.07330   0.08684
 Alpha virt. eigenvalues --    0.11093   0.14556   0.15004   0.16887   0.17727
 Alpha virt. eigenvalues --    0.18917   0.20403   0.20749   0.21563   0.22594

 Mulliken charges:
               1
     1  C    0.022056
     2  C   -0.214763
     3  C    0.255535
     4  C   -0.016408
     5  C    0.004662
     6  C    0.006485
     7  H    0.023614
     8  H    0.029628
     9  H    0.025727
    10  H    0.025403
    11  N   -0.241856
    12  S    0.181338
    13  C   -0.087935
    14  C   -0.027379
    15  C    0.119056
    16  C   -0.023192
    17  H    0.020996
    18  C   -0.019552
    19  C    0.024774
    20  H    0.003500
    21  H    0.005935
    22  H    0.015121
    23  C    0.073679
    24  O   -0.416732
    25  H    0.210308
 Sum of Mulliken charges =  -0.00000

 Dipole moment (field-independent basis, Debye):
    X=              1.1014    Y=             -5.0356    Z=             -0.0003  Tot=              5.1547
 Quadrupole moment (field-independent basis, Debye-Ang):
   XX=            -82.0107   YY=            -94.8950   ZZ=           -103.9898
   XY=             -6.9799   XZ=             -0.0003   YZ=             -0.0008

  Exact polarizability:     281.411     -80.859     274.964      -0.001       0.001      62.770
 Approx polarizability:     264.019     -28.602     253.612       0.000       0.001      81.997

 ******    1 imaginary frequencies (negative Signs) ******

                      1                      2                      3
                      A                      A                      A
 Frequencies --   -827.7521                50.8949                63.1869
 Red. masses --      1.2886                 5.9791                 4.7245
 Frc consts  --      0.5202                 0.0091                 0.0111
 IR Inten    --    418.2134                 1.1727                 0.2787

                      4                      5                      6
                      A                      A                      A
 Frequencies --    148.7984               159.5605               201.0998
 Red. masses --      5.1036                 5.4925                 6.2985
 Frc consts  --      0.0666                 0.0824                 0.1501
 IR Inten    --      1.4671                 0.8100                 0.0496

                      7                      8                      9
                      A                      A                      A
 Frequencies --    242.6849               293.4248               316.5723
 Red. masses --      6.2599                 7.0164                 5.3497
 Frc consts  --      0.2172                 0.3559                 0.3159
 IR Inten    --      0.7706                 3.0295                 0.2184

                     10                     11                     12
                      A                      A                      A
 Frequencies --    389.1581               429.0744               430.9427
 Red. masses --      5.7190                10.7099                 3.1432
 Frc consts  --      0.5103                 1.1617                 0.3439
 IR Inten    --      0.4220                 1.1917                 0.1412

                     13                     14                     15
                      A                      A                      A
 Frequencies --    455.9308               516.7166               530.6491
 Red. masses --      3.5293                 8.7897                 2.9134
 Frc consts  --      0.4323                 1.3827                 0.4833
 IR Inten    --     10.7151                 9.1300                 4.3232

                     16                     17                     18
                      A                      A                      A
 Frequencies --    552.3098               565.3623               569.6034
 Red. masses --      8.8561                 3.8181                 6.7215
 Frc consts  --      1.5917                 0.7190                 1.2849
 IR Inten    --     12.0986                 0.0993                 8.8199

                     19                     20                     21
                      A                      A                      A
 Frequencies --    603.8763               645.1434               695.1018
 Red. masses --      7.1807                 6.2655                 5.8353
 Frc consts  --      1.5428                 1.5365                 1.6611
 IR Inten    --     17.2483                 0.0230                 2.4355

                     22                     23                     24
                      A                      A                      A
 Frequencies --    742.6978               751.4199               758.1375
 Red. masses --      6.6114                 2.6312                 7.1524
 Frc consts  --      2.1487                 0.8753                 2.4221
 IR Inten    --     37.2746                13.6138                56.4718

                     25                     26                     27
                      A                      A                      A
 Frequencies --    761.7295               775.9944               778.4122
 Red. masses --      1.4240                 1.9973                 1.9903
 Frc consts  --      0.4868                 0.7086                 0.7106
 IR Inten    --     53.4607                 6.2551                52.9598

                     28                     29                     30
                      A                      A                      A
 Frequencies --    853.9743               875.9653               884.6024
 Red. masses --      6.2457                 1.8283                 1.3746
 Frc consts  --      2.6836                 0.8266                 0.6338
 IR Inten    --     14.6817                10.6224                 0.5941

                     31                     32                     33
                      A                      A                      A
 Frequencies --    924.3979               962.6009               971.5366
 Red. masses --      6.2193                 1.3368                 1.3638
 Frc consts  --      3.1312                 0.7298                 0.7584
 IR Inten    --      4.4109                 0.3123                 2.1044

                     34                     35                     36
                      A                      A                      A
 Frequencies --   1014.5285              1016.1795              1019.7942
 Red. masses --      1.3062                 1.3097                 7.0479
 Frc consts  --      0.7921                 0.7968                 4.3185
 IR Inten    --      0.0008                 0.2704                 3.5871

                     37                     38                     39
                      A                      A                      A
 Frequencies --   1047.0237              1053.9870              1100.7942
 Red. masses --      2.0245                 2.0330                 1.0664
 Frc consts  --      1.3076                 1.3306                 0.7613
 IR Inten    --      8.5781                 9.4732                79.9582

                     40                     41                     42
                      A                      A                      A
 Frequencies --   1117.5364              1165.5491              1169.3611
 Red. masses --      2.8235                 1.2682                 1.4147
 Frc consts  --      2.0776                 1.0151                 1.1397
 IR Inten    --      0.2003                33.4797                 4.1638

                     43                     44                     45
                      A                      A                      A
 Frequencies --   1180.5674              1190.7872              1248.8497
 Red. masses --      1.2214                 1.3035                 2.0646
 Frc consts  --      1.0030                 1.0890                 1.8972
 IR Inten    --     31.6099                 6.8934                33.9423

                     46                     47                     48
                      A                      A                      A
 Frequencies --   1287.3848              1316.1713              1325.1595
 Red. masses --      1.7450                 2.2304                 3.8997
 Frc consts  --      1.7040                 2.2765                 4.0347
 IR Inten    --     14.9867                22.4614               286.6969

                     49                     50                     51
                      A                      A                      A
 Frequencies --   1360.1433              1399.2819              1418.1280
 Red. masses --      6.0595                 2.6646                 5.5875
 Frc consts  --      6.6048                 3.0739                 6.6207
 IR Inten    --     32.9092                 3.4078               135.1750

                     52                     53                     54
                      A                      A                      A
 Frequencies --   1487.4243              1496.7080              1506.0651
 Red. masses --      2.6221                 2.6983                 2.9141
 Frc consts  --      3.4180                 3.5614                 3.8944
 IR Inten    --     12.0742                15.8779                18.6102

                     55                     56                     57
                      A                      A                      A
 Frequencies --   1571.6731              1587.4940              1620.8370
 Red. masses --      4.5479                 6.6227                 7.9245
 Frc consts  --      6.6189                 9.8335                12.2660
 IR Inten    --    695.5215              1318.8301               220.2512

                     58                     59                     60
                      A                      A                      A
 Frequencies --   1648.5015              1677.8150              1707.5274
 Red. masses --      6.7707                 6.7729                 6.4803
 Frc consts  --     10.8408                11.2335                11.1322
 IR Inten    --      0.3595                 2.2024               284.7853

                     61                     62                     63
                      A                      A                      A
 Frequencies --   2157.1924              3196.6171              3201.0836
 Red. masses --      1.1062                 1.0863                 1.0900
 Frc consts  --      3.0328                 6.5400                 6.5804
 IR Inten    --    463.6187                 5.2117                11.3920

                     64                     65                     66
                      A                      A                      A
 Frequencies --   3212.3801              3221.3921              3222.5896
 Red. masses --      1.0863                 1.0908                 1.0949
 Frc consts  --      6.6046                 6.6691                 6.6992
 IR Inten    --      1.0922                 2.3822                24.8669

                     67                     68                     69
                      A                      A                      A
 Frequencies --   3230.8022              3238.1325              3238.2562
 Red. masses --      1.0959                 1.0997                 1.0984
 Frc consts  --      6.7398                 6.7937                 6.7863
 IR Inten    --      5.5784                21.1525                 5.8160

 - Thermochemistry -
 -------------------
 Temperature   298.150 Kelvin.  Pressure   1.00000 Atm.
 Atom     1 has atomic number  6 and mass  12.00000

 Molecular mass:   227.04049 amu.
 Principal axes and moments of inertia in atomic units:
                           1         2         3
     Eigenvalues --  1276.910146247.966447524.87658
           X           -0.70388   0.71032   0.00000
           Y            0.71032   0.70388  -0.00001
           Z            0.00001   0.00001   1.00000
 This molecule is an asymmetric top.
 Rotational symmetry number  1.
 Warning -- assumption of classical behavior for rotation
           may cause significant error
 Rotational temperatures (Kelvin)      0.06783     0.01386     0.01151
 Rotational constants (GHZ):           1.41337     0.28885     0.23984
    1 imaginary frequencies ignored.
 Zero-point vibrational energy     487808.9 (Joules/Mol)
                                  116.58912 (Kcal/Mol)
 Warning -- explicit consideration of  18 degrees of freedom as
           vibrations may cause significant error
 Vibrational temperatures:     73.23    90.91   214.09   229.57   289.34
          (Kelvin)            349.17   422.17   455.48   559.91   617.34
                              620.03   655.98   743.44   763.49   794.65
                              813.43   819.53   868.84   928.22  1000.10
                             1068.58  1081.13  1090.79  1095.96  1116.48
                             1119.96  1228.68  1260.32  1272.75  1330.00
                             1384.97  1397.82  1459.68  1462.06  1467.26
                             1506.43  1516.45  1583.80  1607.89  1676.97
                             1682.45  1698.57  1713.28  1796.82  1852.26
                             1893.68  1906.61  1956.94  2013.25  2040.37
                             2140.07  2153.43  2166.89  2261.29  2284.05
                             2332.02  2371.83  2414.00  2456.75  3103.72
                             4599.22  4605.65  4621.90  4634.86  4636.59
                             4648.40  4658.95  4659.13

 Zero-point correction=                           0.185797 (Hartree/Particle)
 Thermal correction to Energy=                    0.197180
 Thermal correction to Enthalpy=                  0.198124
 Thermal correction to Gibbs Free Energy=         0.147615
 Sum of electronic and zero-point Energies=          -1028.617045
 Sum of electronic and thermal Energies=             -1028.605662
 Sum of electronic and thermal Enthalpies=           -1028.604717
 Sum of electronic and thermal Free Energies=        -1028.655227

                     E (Thermal)             CV                S
                      KCal/Mol        Cal/Mol-Kelvin    Cal/Mol-Kelvin
 Total                  123.732             46.653            106.306
 Electronic               0.000              0.000              0.000
 Translational            0.889              2.981             42.162
 Rotational               0.889              2.981             32.462
 Vibrational            121.955             40.692             31.682
 Vibration     1          0.595              1.977              4.782
 Vibration     2          0.597              1.972              4.355
 Vibration     3          0.618              1.904              2.688
 Vibration     4          0.621              1.892              2.555
 Vibration     5          0.638              1.838              2.123
 Vibration     6          0.659              1.775              1.783
 Vibration     7          0.688              1.686              1.454
 Vibration     8          0.703              1.642              1.328
 Vibration     9          0.757              1.493              1.003
 Vibration    10          0.790              1.407              0.862
 Vibration    11          0.792              1.403              0.856
 Vibration    12          0.814              1.348              0.778
 Vibration    13          0.872              1.213              0.618
 Vibration    14          0.886              1.182              0.586
 Vibration    15          0.908              1.135              0.539
 Vibration    16          0.921              1.106              0.513
 Vibration    17          0.926              1.097              0.505
 Vibration    18          0.962              1.024              0.443

 Optimization completed.
    -- Stationary point found.
 Normal termination of Gaussian 16 at Wed Oct 28 02:27:54 2020.
