 Gaussian 16, Revision C.01,
 Gaussian 16:  ES64L-G16RevC.01  3-Jul-2019

 ----------------------------------------------------------------------
 #p opt=addgic freq wb97xd/cc-pvdz nosymm int=ultrafine scrf=(solvent=C
 arbonTetraChloride)
 ----------------------------------------------------------------------

 ------------------------------------------------
 NM 2D-scan of HBT TD-WB97XD pVDZ in CTC Relaxed.
 ------------------------------------------------
 Symbolic Z-matrix:
 Charge =  0 Multiplicity = 1

 SCF Done:  E(RwB97XD) =  -1028.80402020     A.U. after   15 cycles
 SCF Done:  E(RwB97XD) =  -1028.82860728     A.U. after   13 cycles
 SCF Done:  E(RwB97XD) =  -1028.83035705     A.U. after   12 cycles
 SCF Done:  E(RwB97XD) =  -1028.83055322     A.U. after   11 cycles
 SCF Done:  E(RwB97XD) =  -1028.83060195     A.U. after   10 cycles
 SCF Done:  E(RwB97XD) =  -1028.83060527     A.U. after    9 cycles
 Optimization completed.
    -- Stationary point found.
 Normal termination of Gaussian 16 at Wed Oct 28 00:01:42 2020.

 --------------------------------------------------------------------
 #P Geom=AllCheck Guess=TCheck SCRF=Check GenChk RwB97XD/CC-pVDZ Freq
 --------------------------------------------------------------------

 Structure from the checkpoint file:  "config_3_12.chk"
 ------------------------------------------------
 NM 2D-scan of HBT TD-WB97XD pVDZ in CTC Relaxed.
 ------------------------------------------------
 Charge =  0 Multiplicity = 1

                          Input orientation:
 ---------------------------------------------------------------------
 Center     Atomic      Atomic             Coordinates (Angstroms)
 Number     Number       Type             X           Y           Z
 ---------------------------------------------------------------------
      1          6           0        1.612372   -3.291093   -0.000018
      2          6           0        0.985101   -2.043743   -0.000002
      3          6           0        1.724708   -0.847815   -0.000016
      4          6           0        3.124397   -0.892848   -0.000047
      5          6           0        3.750039   -2.131487   -0.000061
      6          6           0        3.001660   -3.320157   -0.000047
      7          1           0        1.031556   -4.213852   -0.000009
      8          1           0        3.695311    0.036234   -0.000057
      9          1           0        4.839731   -2.183866   -0.000085
     10          1           0        3.516861   -4.281822   -0.000061
     11          7           0        0.953648    0.300017    0.000004
     12         16           0       -0.725082   -1.673082    0.000027
     13          6           0       -1.334720    1.098842    0.000047
     14          6           0       -2.710217    0.813445    0.000032
     15          6           0       -0.906001    2.451825    0.000051
     16          6           0       -3.655380    1.825946    0.000006
     17          1           0       -3.040238   -0.228277    0.000030
     18          6           0       -1.874780    3.469618    0.000017
     19          6           0       -3.225580    3.159398   -0.000005
     20          1           0       -4.718442    1.585242   -0.000011
     21          1           0       -1.528817    4.503917    0.000021
     22          1           0       -3.959734    3.967384   -0.000026
     23          6           0       -0.326233    0.042315    0.000039
     24          8           0        0.380590    2.797356    0.000109
     25          1           0        0.913577    1.953027    0.000171
 ---------------------------------------------------------------------

 SCF Done:  E(RwB97XD) =  -1028.83060527     A.U. after    1 cycles

 Alpha  occ. eigenvalues --  -89.08669 -19.27938 -14.46986 -10.39428 -10.37358
 Alpha  occ. eigenvalues --  -10.34948 -10.34791 -10.32329 -10.32249 -10.31867
 Alpha  occ. eigenvalues --  -10.31659 -10.31596 -10.31477 -10.31411 -10.30241
 Alpha  occ. eigenvalues --  -10.30120  -8.10710  -6.05563  -6.05206  -6.04760
 Alpha  occ. eigenvalues --   -1.16408  -1.08957  -0.97284  -0.96189  -0.91650
 Alpha  occ. eigenvalues --   -0.88586  -0.85407  -0.84557  -0.82942  -0.75493
 Alpha  occ. eigenvalues --   -0.71442  -0.70592  -0.69429  -0.68181  -0.63185
 Alpha  occ. eigenvalues --   -0.60527  -0.58808  -0.58416  -0.56418  -0.54519
 Alpha  occ. eigenvalues --   -0.54078  -0.53220  -0.52783  -0.50867  -0.50347
 Alpha  occ. eigenvalues --   -0.49327  -0.47613  -0.45926  -0.45405  -0.45007
 Alpha  occ. eigenvalues --   -0.43942  -0.42939  -0.42613  -0.39787  -0.37190
 Alpha  occ. eigenvalues --   -0.36205  -0.32116  -0.31713  -0.29087
 Alpha virt. eigenvalues --   -0.00464   0.04834   0.06829   0.07184   0.07789
 Alpha virt. eigenvalues --    0.11428   0.14207   0.15181   0.16558   0.17994
 Alpha virt. eigenvalues --    0.18932   0.20899   0.21676   0.22560   0.22758

 Mulliken charges:
               1
     1  C    0.010334
     2  C   -0.214815
     3  C    0.225765
     4  C   -0.015070
     5  C    0.005508
     6  C    0.000677
     7  H    0.018910
     8  H    0.018489
     9  H    0.019861
    10  H    0.021474
    11  N   -0.348760
    12  S    0.146628
    13  C   -0.056103
    14  C   -0.025558
    15  C    0.068057
    16  C   -0.006678
    17  H    0.015500
    18  C    0.007956
    19  C    0.020716
    20  H    0.009719
    21  H    0.016382
    22  H    0.018620
    23  C    0.084742
    24  O   -0.206952
    25  H    0.164596
 Sum of Mulliken charges =  -0.00000

 Dipole moment (field-independent basis, Debye):
    X=             -0.0474    Y=             -2.5304    Z=              0.0000  Tot=              2.5308
 Quadrupole moment (field-independent basis, Debye-Ang):
   XX=            -82.7331   YY=            -90.0859   ZZ=           -104.0938
   XY=             -7.1722   XZ=              0.0000   YZ=              0.0000

  Exact polarizability:     274.269     -67.049     255.113      -0.001       0.001      62.943
 Approx polarizability:     262.186     -23.028     242.340      -0.001       0.000      82.170

                      1                      2                      3
                      A                      A                      A
 Frequencies --     43.4297                61.0251               122.5177
 Red. masses --      5.5858                 5.6701                 5.6544
 Frc consts  --      0.0062                 0.0124                 0.0500
 IR Inten    --      0.1010                 1.1536                 1.3634

                      4                      5                      6
                      A                      A                      A
 Frequencies --    152.1771               198.4040               245.5462
 Red. masses --      5.0118                 5.9742                 5.6901
 Frc consts  --      0.0684                 0.1386                 0.2021
 IR Inten    --      0.0318                 0.6759                 0.0278

                      7                      8                      9
                      A                      A                      A
 Frequencies --    273.2684               314.9741               328.5238
 Red. masses --      7.6446                 6.4565                 5.1036
 Frc consts  --      0.3363                 0.3774                 0.3245
 IR Inten    --      0.9453                 6.9779                 0.1625

                     10                     11                     12
                      A                      A                      A
 Frequencies --    412.1298               437.8802               466.8489
 Red. masses --      9.6257                 3.1295                 3.6768
 Frc consts  --      0.9633                 0.3535                 0.4721
 IR Inten    --      0.1782                 1.9904                 8.0195

                     13                     14                     15
                      A                      A                      A
 Frequencies --    516.5404               522.3824               538.0182
 Red. masses --      8.6299                 5.1550                 3.4639
 Frc consts  --      1.3566                 0.8288                 0.5908
 IR Inten    --      0.2677                 8.8254                 3.6466

                     16                     17                     18
                      A                      A                      A
 Frequencies --    550.6754               575.3511               591.9655
 Red. masses --      7.9925                 3.7282                 7.6751
 Frc consts  --      1.4280                 0.7271                 1.5846
 IR Inten    --      2.3714                 0.0290                 5.2860

                     19                     20                     21
                      A                      A                      A
 Frequencies --    647.1917               680.6751               720.8817
 Red. masses --      6.0741                 6.5388                 6.9140
 Frc consts  --      1.4990                 1.7850                 2.1169
 IR Inten    --      0.0302                 4.8639                27.5379

                     22                     23                     24
                      A                      A                      A
 Frequencies --    740.0791               756.1100               764.3787
 Red. masses --      9.8280                 1.9832                 3.0874
 Frc consts  --      3.1715                 0.6680                 1.0628
 IR Inten    --     11.7530                29.7471                 1.2204

                     25                     26                     27
                      A                      A                      A
 Frequencies --    775.9132               786.8093               848.0515
 Red. masses --      1.3315                 1.9255                 5.9740
 Frc consts  --      0.4723                 0.7023                 2.5314
 IR Inten    --     64.5300                35.3303                19.1433

                     28                     29                     30
                      A                      A                      A
 Frequencies --    868.1190               884.0674               888.0288
 Red. masses --      1.1282                 1.5264                 1.4145
 Frc consts  --      0.5009                 0.7029                 0.6572
 IR Inten    --     76.6125                 2.4376                 4.0317

                     31                     32                     33
                      A                      A                      A
 Frequencies --    896.2181               970.1403               976.1111
 Red. masses --      6.5586                 1.3599                 1.3650
 Frc consts  --      3.1038                 0.7541                 0.7662
 IR Inten    --      2.6608                 1.0305                 1.7382

                     34                     35                     36
                      A                      A                      A
 Frequencies --    995.4726              1011.2596              1015.7017
 Red. masses --      7.6104                 1.3024                 1.3048
 Frc consts  --      4.4434                 0.7847                 0.7931
 IR Inten    --     55.2986                 0.4067                 0.0252

                     37                     38                     39
                      A                      A                      A
 Frequencies --   1052.4017              1069.9198              1101.1266
 Red. masses --      1.9992                 1.9452                 4.0274
 Frc consts  --      1.3046                 1.3120                 2.8771
 IR Inten    --      8.5205                10.4139                 5.9649

                     40                     41                     42
                      A                      A                      A
 Frequencies --   1150.9988              1154.6096              1175.9320
 Red. masses --      1.4721                 1.3254                 1.1290
 Frc consts  --      1.1490                 1.0410                 0.9198
 IR Inten    --      6.8843                 3.3069                41.3993

                     43                     44                     45
                      A                      A                      A
 Frequencies --   1185.1271              1255.6103              1285.5911
 Red. masses --      1.2103                 1.9139                 1.6536
 Frc consts  --      1.0015                 1.7778                 1.6102
 IR Inten    --      0.3127               113.4479                 8.9827

                     46                     47                     48
                      A                      A                      A
 Frequencies --   1291.6673              1335.8576              1345.5993
 Red. masses --      2.3869                 3.3544                 3.9843
 Frc consts  --      2.3463                 3.5269                 4.2505
 IR Inten    --    137.5664                29.3253                 5.1189

                     49                     50                     51
                      A                      A                      A
 Frequencies --   1373.4176              1379.0014              1476.2385
 Red. masses --      7.6167                 3.9914                 2.1273
 Frc consts  --      8.4649                 4.4721                 2.7315
 IR Inten    --     14.4778                17.3703                18.2042

                     52                     53                     54
                      A                      A                      A
 Frequencies --   1490.0004              1505.1626              1526.6161
 Red. masses --      2.6032                 2.8996                 3.7702
 Frc consts  --      3.4052                 3.8704                 5.1770
 IR Inten    --     45.6375                 7.5672               119.6534

                     55                     56                     57
                      A                      A                      A
 Frequencies --   1561.3781              1591.3074              1648.4794
 Red. masses --      2.2161                 5.5452                 6.8021
 Frc consts  --      3.1832                 8.2732                10.8909
 IR Inten    --    160.7460               156.8176                 5.4279

                     58                     59                     60
                      A                      A                      A
 Frequencies --   1671.2494              1679.8621              1709.6521
 Red. masses --      3.6661                 6.8256                 5.1737
 Frc consts  --      6.0331                11.3486                 8.9098
 IR Inten    --    152.4881                14.4493               134.1675

                     61                     62                     63
                      A                      A                      A
 Frequencies --   3165.5702              3199.2418              3210.9930
 Red. masses --      1.0696                 1.0888                 1.0885
 Frc consts  --      6.3150                 6.5660                 6.6124
 IR Inten    --    981.5492                15.4315                 1.4802

                     64                     65                     66
                      A                      A                      A
 Frequencies --   3212.3673              3223.5490              3230.0971
 Red. masses --      1.0861                 1.0906                 1.0939
 Frc consts  --      6.6035                 6.6770                 6.7246
 IR Inten    --      1.5109                 3.6279                12.0097

                     67                     68                     69
                      A                      A                      A
 Frequencies --   3234.1692              3237.8049              3239.9412
 Red. masses --      1.0960                 1.0992                 1.0995
 Frc consts  --      6.7541                 6.7895                 6.8002
 IR Inten    --      9.3170                16.5709                12.3026

 - Thermochemistry -
 -------------------
 Temperature   298.150 Kelvin.  Pressure   1.00000 Atm.
 Atom     1 has atomic number  6 and mass  12.00000

 Molecular mass:   227.04049 amu.
 Principal axes and moments of inertia in atomic units:
                           1         2         3
     Eigenvalues --  1303.501976330.903957634.40592
           X           -0.69961   0.71452   0.00000
           Y            0.71452   0.69961  -0.00001
           Z            0.00001   0.00000   1.00000
 This molecule is an asymmetric top.
 Rotational symmetry number  1.
 Warning -- assumption of classical behavior for rotation
           may cause significant error
 Rotational temperatures (Kelvin)      0.06645     0.01368     0.01135
 Rotational constants (GHZ):           1.38453     0.28507     0.23640
 Zero-point vibrational energy     499724.5 (Joules/Mol)
                                  119.43701 (Kcal/Mol)
 Warning -- explicit consideration of  18 degrees of freedom as
           vibrations may cause significant error
 Vibrational temperatures:     62.49    87.80   176.28   218.95   285.46
          (Kelvin)            353.29   393.17   453.18   472.67   592.96
                              630.01   671.69   743.19   751.59   774.09
                              792.30   827.80   851.71   931.16   979.34
                             1037.19  1064.81  1087.87  1099.77  1116.37
                             1132.04  1220.16  1249.03  1271.98  1277.68
                             1289.46  1395.82  1404.41  1432.26  1454.98
                             1461.37  1514.17  1539.38  1584.28  1656.03
                             1661.23  1691.90  1705.13  1806.54  1849.68
                             1858.42  1922.00  1936.02  1976.04  1984.08
                             2123.98  2143.78  2165.59  2196.46  2246.47
                             2289.54  2371.79  2404.56  2416.95  2459.81
                             4554.55  4603.00  4619.90  4621.88  4637.97
                             4647.39  4653.25  4658.48  4661.55

 Zero-point correction=                           0.190335 (Hartree/Particle)
 Thermal correction to Energy=                    0.201986
 Thermal correction to Enthalpy=                  0.202930
 Thermal correction to Gibbs Free Energy=         0.151679
 Sum of electronic and zero-point Energies=          -1028.640270
 Sum of electronic and thermal Energies=             -1028.628619
 Sum of electronic and thermal Enthalpies=           -1028.627675
 Sum of electronic and thermal Free Energies=        -1028.678926

                     E (Thermal)             CV                S
                      KCal/Mol        Cal/Mol-Kelvin    Cal/Mol-Kelvin
 Total                  126.748             47.445            107.866
 Electronic               0.000              0.000              0.000
 Translational            0.889              2.981             42.162
 Rotational               0.889              2.981             32.510
 Vibrational            124.971             41.483             33.194
 Vibration     1          0.595              1.980              5.096
 Vibration     2          0.597              1.973              4.424
 Vibration     3          0.610              1.930              3.060
 Vibration     4          0.619              1.900              2.645
 Vibration     5          0.637              1.842              2.148
 Vibration     6          0.660              1.770              1.762
 Vibration     7          0.676              1.723              1.575
 Vibration     8          0.702              1.645              1.336
 Vibration     9          0.712              1.619              1.267
 Vibration    10          0.776              1.444              0.919
 Vibration    11          0.798              1.388              0.833
 Vibration    12          0.824              1.324              0.746
 Vibration    13          0.872              1.213              0.618
 Vibration    14          0.877              1.200              0.604
 Vibration    15          0.893              1.166              0.570
 Vibration    16          0.906              1.138              0.543
 Vibration    17          0.932              1.085              0.494
 Vibration    18          0.949              1.049              0.464

 Optimization completed.
    -- Stationary point found.
 Normal termination of Gaussian 16 at Wed Oct 28 00:08:22 2020.
