 Gaussian 16, Revision C.01,
 Gaussian 16:  ES64L-G16RevC.01  3-Jul-2019

 ----------------------------------------------------------------------
 #p opt=addgic freq wb97xd/cc-pvdz nosymm int=ultrafine scrf=(solvent=C
 arbonTetraChloride)
 ----------------------------------------------------------------------

 ------------------------------------------------
 NM 2D-scan of HBT TD-WB97XD pVDZ in CTC Relaxed.
 ------------------------------------------------
 Symbolic Z-matrix:
 Charge =  0 Multiplicity = 1

 SCF Done:  E(RwB97XD) =  -1028.81378585     A.U. after   15 cycles
 SCF Done:  E(RwB97XD) =  -1028.82671258     A.U. after   13 cycles
 SCF Done:  E(RwB97XD) =  -1028.82785865     A.U. after   12 cycles
 SCF Done:  E(RwB97XD) =  -1028.82826254     A.U. after   11 cycles
 SCF Done:  E(RwB97XD) =  -1028.82830284     A.U. after   10 cycles
 SCF Done:  E(RwB97XD) =  -1028.82830547     A.U. after    9 cycles
 Optimization completed.
    -- Stationary point found.
 Normal termination of Gaussian 16 at Tue Oct 27 22:22:26 2020.

 --------------------------------------------------------------------
 #P Geom=AllCheck Guess=TCheck SCRF=Check GenChk RwB97XD/CC-pVDZ Freq
 --------------------------------------------------------------------

 Structure from the checkpoint file:  "config_4_7.chk"
 ------------------------------------------------
 NM 2D-scan of HBT TD-WB97XD pVDZ in CTC Relaxed.
 ------------------------------------------------
 Charge =  0 Multiplicity = 1

                          Input orientation:
 ---------------------------------------------------------------------
 Center     Atomic      Atomic             Coordinates (Angstroms)
 Number     Number       Type             X           Y           Z
 ---------------------------------------------------------------------
      1          6           0        1.681664   -3.289095   -0.000038
      2          6           0        0.988393   -2.074899   -0.000038
      3          6           0        1.684206   -0.855326   -0.000008
      4          6           0        3.082812   -0.824605    0.000024
      5          6           0        3.769193   -2.027852    0.000023
      6          6           0        3.072757   -3.247945   -0.000008
      7          1           0        1.153047   -4.242698   -0.000060
      8          1           0        3.599975    0.135356    0.000047
      9          1           0        4.860054   -2.029861    0.000047
     10          1           0        3.631574   -4.184991   -0.000008
     11          7           0        0.879661    0.258859   -0.000013
     12         16           0       -0.741831   -1.752794   -0.000069
     13          6           0       -1.375151    1.072768   -0.000027
     14          6           0       -2.765122    0.863048   -0.000010
     15          6           0       -0.882232    2.411077   -0.000002
     16          6           0       -3.656093    1.925841    0.000056
     17          1           0       -3.148334   -0.160625   -0.000035
     18          6           0       -1.798952    3.475925    0.000075
     19          6           0       -3.161934    3.237470    0.000105
     20          1           0       -4.730139    1.739588    0.000075
     21          1           0       -1.395649    4.489207    0.000097
     22          1           0       -3.854855    4.081104    0.000160
     23          6           0       -0.395443   -0.016050   -0.000050
     24          8           0        0.412127    2.713273   -0.000075
     25          1           0        0.910369    1.840621   -0.000170
 ---------------------------------------------------------------------

 SCF Done:  E(RwB97XD) =  -1028.82830547     A.U. after    1 cycles

 Alpha  occ. eigenvalues --  -89.08941 -19.27435 -14.46887 -10.39632 -10.37246
 Alpha  occ. eigenvalues --  -10.34995 -10.34896 -10.32485 -10.32349 -10.31833
 Alpha  occ. eigenvalues --  -10.31681 -10.31669 -10.31543 -10.31295 -10.30135
 Alpha  occ. eigenvalues --  -10.29913  -8.10918  -6.05780  -6.05420  -6.04963
 Alpha  occ. eigenvalues --   -1.16180  -1.09152  -0.97287  -0.96046  -0.91552
 Alpha  occ. eigenvalues --   -0.88599  -0.85340  -0.84419  -0.83020  -0.75528
 Alpha  occ. eigenvalues --   -0.71349  -0.70531  -0.69409  -0.68254  -0.63095
 Alpha  occ. eigenvalues --   -0.60579  -0.58822  -0.58303  -0.56291  -0.54481
 Alpha  occ. eigenvalues --   -0.54159  -0.53260  -0.52573  -0.50992  -0.50220
 Alpha  occ. eigenvalues --   -0.49474  -0.47616  -0.45954  -0.45345  -0.44991
 Alpha  occ. eigenvalues --   -0.43831  -0.42801  -0.42754  -0.39844  -0.36855
 Alpha  occ. eigenvalues --   -0.36200  -0.32259  -0.31635  -0.28926
 Alpha virt. eigenvalues --   -0.00495   0.04746   0.06896   0.07285   0.07559
 Alpha virt. eigenvalues --    0.11368   0.13719   0.15114   0.16177   0.17890
 Alpha virt. eigenvalues --    0.18997   0.20808   0.21743   0.22567   0.22701

 Mulliken charges:
               1
     1  C    0.006531
     2  C   -0.221950
     3  C    0.242881
     4  C   -0.012994
     5  C    0.007171
     6  C   -0.000091
     7  H    0.020144
     8  H    0.019399
     9  H    0.020320
    10  H    0.021955
    11  N   -0.343064
    12  S    0.148704
    13  C   -0.074302
    14  C   -0.019049
    15  C    0.075599
    16  C   -0.009812
    17  H    0.010511
    18  C    0.008077
    19  C    0.020725
    20  H    0.009444
    21  H    0.015080
    22  H    0.017927
    23  C    0.083741
    24  O   -0.213512
    25  H    0.166564
 Sum of Mulliken charges =  -0.00000

 Dipole moment (field-independent basis, Debye):
    X=              0.1660    Y=             -2.6077    Z=             -0.0001  Tot=              2.6129
 Quadrupole moment (field-independent basis, Debye-Ang):
   XX=            -82.7416   YY=            -90.1261   ZZ=           -104.1278
   XY=             -7.1509   XZ=             -0.0002   YZ=              0.0004

  Exact polarizability:     275.396     -67.046     256.490      -0.001       0.003      63.006
 Approx polarizability:     263.085     -23.258     243.067      -0.000       0.003      82.222

                      1                      2                      3
                      A                      A                      A
 Frequencies --     42.8787                59.8722               123.0479
 Red. masses --      5.5099                 5.8910                 5.6608
 Frc consts  --      0.0060                 0.0124                 0.0505
 IR Inten    --      0.0342                 1.2991                 1.4453

                      4                      5                      6
                      A                      A                      A
 Frequencies --    153.2468               199.0368               245.2301
 Red. masses --      4.9629                 5.8726                 5.7672
 Frc consts  --      0.0687                 0.1371                 0.2043
 IR Inten    --      0.0407                 0.5521                 0.0525

                      7                      8                      9
                      A                      A                      A
 Frequencies --    272.1821               323.6137               327.1221
 Red. masses --      7.5524                 6.4599                 5.1284
 Frc consts  --      0.3297                 0.3986                 0.3233
 IR Inten    --      0.9344                 7.2767                 0.3030

                     10                     11                     12
                      A                      A                      A
 Frequencies --    407.9222               438.1967               466.0981
 Red. masses --      9.6890                 3.1443                 3.6955
 Frc consts  --      0.9499                 0.3557                 0.4730
 IR Inten    --      0.1869                 2.1255                 8.0861

                     13                     14                     15
                      A                      A                      A
 Frequencies --    515.3200               524.1340               539.2568
 Red. masses --      8.6553                 5.0626                 3.4737
 Frc consts  --      1.3542                 0.8194                 0.5952
 IR Inten    --      0.2833                10.7441                 3.6757

                     16                     17                     18
                      A                      A                      A
 Frequencies --    550.6216               574.4114               593.6852
 Red. masses --      8.0682                 3.7045                 7.6670
 Frc consts  --      1.4412                 0.7202                 1.5922
 IR Inten    --      2.8718                 0.0509                 5.1394

                     19                     20                     21
                      A                      A                      A
 Frequencies --    647.6171               683.0615               713.1327
 Red. masses --      6.1765                 6.4106                 6.9892
 Frc consts  --      1.5263                 1.7623                 2.0942
 IR Inten    --      0.0050                 8.2492                28.4354

                     22                     23                     24
                      A                      A                      A
 Frequencies --    739.2155               755.5152               765.4175
 Red. masses --      9.9293                 2.0401                 3.1013
 Frc consts  --      3.1968                 0.6861                 1.0705
 IR Inten    --     10.6523                26.3630                 1.3128

                     25                     26                     27
                      A                      A                      A
 Frequencies --    776.6023               786.5501               846.5568
 Red. masses --      1.3465                 1.8739                 5.9864
 Frc consts  --      0.4785                 0.6830                 2.5277
 IR Inten    --     65.0277                34.9808                19.3520

                     28                     29                     30
                      A                      A                      A
 Frequencies --    884.4589               886.6817               902.3726
 Red. masses --      1.5644                 1.3982                 6.5789
 Frc consts  --      0.7210                 0.6477                 3.1563
 IR Inten    --      6.1385                 0.4486                 1.1922

                     31                     32                     33
                      A                      A                      A
 Frequencies --    910.1420               971.6901               976.3757
 Red. masses --      1.1013                 1.3555                 1.3628
 Frc consts  --      0.5375                 0.7541                 0.7655
 IR Inten    --     74.8892                 1.0237                 2.0577

                     34                     35                     36
                      A                      A                      A
 Frequencies --    992.6952              1010.9974              1015.9817
 Red. masses --      7.5456                 1.3004                 1.3046
 Frc consts  --      4.3810                 0.7831                 0.7934
 IR Inten    --     60.0880                 0.3890                 0.0251

                     37                     38                     39
                      A                      A                      A
 Frequencies --   1052.8067              1068.8147              1097.4907
 Red. masses --      2.0190                 1.9608                 4.3059
 Frc consts  --      1.3185                 1.3197                 3.0558
 IR Inten    --      8.3299                 9.9470                 5.7238

                     40                     41                     42
                      A                      A                      A
 Frequencies --   1148.3225              1152.6747              1174.9947
 Red. masses --      1.4831                 1.2939                 1.1273
 Frc consts  --      1.1523                 1.0129                 0.9169
 IR Inten    --      8.8581                 3.6043                47.2297

                     43                     44                     45
                      A                      A                      A
 Frequencies --   1184.9414              1254.8101              1286.6041
 Red. masses --      1.1888                 1.8880                 1.5460
 Frc consts  --      0.9835                 1.7515                 1.5078
 IR Inten    --      0.2997               118.4873                 0.1780

                     46                     47                     48
                      A                      A                      A
 Frequencies --   1294.2252              1338.5062              1350.5371
 Red. masses --      2.5162                 5.3456                 3.2452
 Frc consts  --      2.4832                 5.6427                 3.4875
 IR Inten    --    153.9907                15.3722                11.5322

                     49                     50                     51
                      A                      A                      A
 Frequencies --   1374.8571              1379.4446              1481.4227
 Red. masses --      7.8510                 3.3097                 2.1097
 Frc consts  --      8.7436                 3.7106                 2.7280
 IR Inten    --     14.3183                17.4791                17.1475

                     52                     53                     54
                      A                      A                      A
 Frequencies --   1493.0214              1500.0140              1522.3387
 Red. masses --      2.6561                 3.1257                 3.9708
 Frc consts  --      3.4884                 4.1437                 5.4218
 IR Inten    --     28.0444                17.2283               125.5412

                     55                     56                     57
                      A                      A                      A
 Frequencies --   1568.0509              1591.6376              1650.0997
 Red. masses --      2.4087                 5.3097                 6.7336
 Frc consts  --      3.4894                 7.9252                10.8023
 IR Inten    --    144.2553               166.3346                 6.8817

                     58                     59                     60
                      A                      A                      A
 Frequencies --   1671.5764              1681.2880              1709.2480
 Red. masses --      3.1914                 6.7311                 5.2065
 Frc consts  --      5.2540                11.2103                 8.9621
 IR Inten    --    174.7731                25.3788               142.5842

                     61                     62                     63
                      A                      A                      A
 Frequencies --   3010.0909              3194.1841              3206.9491
 Red. masses --      1.0717                 1.0894                 1.0884
 Frc consts  --      5.7209                 6.5486                 6.5951
 IR Inten    --   1177.9285                 5.2603                 4.4942

                     64                     65                     66
                      A                      A                      A
 Frequencies --   3212.2179              3223.4207              3227.7186
 Red. masses --      1.0863                 1.0906                 1.0941
 Frc consts  --      6.6038                 6.6765                 6.7160
 IR Inten    --      1.7664                 3.8496                11.4362

                     67                     68                     69
                      A                      A                      A
 Frequencies --   3233.9684              3236.4356              3239.7846
 Red. masses --      1.0960                 1.0986                 1.0997
 Frc consts  --      6.7534                 6.7800                 6.8009
 IR Inten    --      9.5216                17.5961                13.1366

 - Thermochemistry -
 -------------------
 Temperature   298.150 Kelvin.  Pressure   1.00000 Atm.
 Atom     1 has atomic number  6 and mass  12.00000

 Molecular mass:   227.04049 amu.
 Principal axes and moments of inertia in atomic units:
                           1         2         3
     Eigenvalues --  1318.128926316.636847634.76576
           X           -0.70019   0.71396  -0.00000
           Y            0.71396   0.70019  -0.00001
           Z            0.00001   0.00001   1.00000
 This molecule is an asymmetric top.
 Rotational symmetry number  1.
 Warning -- assumption of classical behavior for rotation
           may cause significant error
 Rotational temperatures (Kelvin)      0.06571     0.01371     0.01134
 Rotational constants (GHZ):           1.36917     0.28571     0.23638
 Zero-point vibrational energy     499042.8 (Joules/Mol)
                                  119.27409 (Kcal/Mol)
 Warning -- explicit consideration of  18 degrees of freedom as
           vibrations may cause significant error
 Vibrational temperatures:     61.69    86.14   177.04   220.49   286.37
          (Kelvin)            352.83   391.61   465.61   470.66   586.91
                              630.47   670.61   741.43   754.11   775.87
                              792.22   826.45   854.18   931.78   982.77
                             1026.04  1063.57  1087.02  1101.26  1117.36
                             1131.67  1218.01  1272.54  1275.74  1298.31
                             1309.49  1398.05  1404.79  1428.27  1454.60
                             1461.77  1514.75  1537.79  1579.04  1652.18
                             1658.44  1690.56  1704.87  1805.39  1851.14
                             1862.10  1925.81  1943.12  1978.11  1984.71
                             2131.44  2148.12  2158.19  2190.31  2256.08
                             2290.01  2374.13  2405.03  2419.00  2459.23
                             4330.85  4595.72  4614.08  4621.67  4637.78
                             4643.97  4652.96  4656.51  4661.33

 Zero-point correction=                           0.190075 (Hartree/Particle)
 Thermal correction to Energy=                    0.201714
 Thermal correction to Enthalpy=                  0.202659
 Thermal correction to Gibbs Free Energy=         0.151404
 Sum of electronic and zero-point Energies=          -1028.638230
 Sum of electronic and thermal Energies=             -1028.626591
 Sum of electronic and thermal Enthalpies=           -1028.625647
 Sum of electronic and thermal Free Energies=        -1028.676901

                     E (Thermal)             CV                S
                      KCal/Mol        Cal/Mol-Kelvin    Cal/Mol-Kelvin
 Total                  126.578             47.384            107.873
 Electronic               0.000              0.000              0.000
 Translational            0.889              2.981             42.162
 Rotational               0.889              2.981             32.519
 Vibrational            124.800             41.422             33.192
 Vibration     1          0.595              1.980              5.121
 Vibration     2          0.597              1.973              4.461
 Vibration     3          0.610              1.930              3.052
 Vibration     4          0.619              1.899              2.632
 Vibration     5          0.637              1.841              2.142
 Vibration     6          0.660              1.771              1.765
 Vibration     7          0.675              1.725              1.582
 Vibration     8          0.708              1.628              1.292
 Vibration     9          0.711              1.621              1.274
 Vibration    10          0.772              1.453              0.934
 Vibration    11          0.798              1.387              0.832
 Vibration    12          0.823              1.325              0.749
 Vibration    13          0.870              1.216              0.621
 Vibration    14          0.879              1.197              0.600
 Vibration    15          0.894              1.163              0.567
 Vibration    16          0.906              1.138              0.543
 Vibration    17          0.931              1.087              0.496
 Vibration    18          0.951              1.045              0.461

 Optimization completed.
    -- Stationary point found.
 Normal termination of Gaussian 16 at Tue Oct 27 22:30:15 2020.
