 Gaussian 16, Revision C.01,
 Gaussian 16:  ES64L-G16RevC.01  3-Jul-2019

 ----------------------------------------------------------------------
 #p opt=addgic freq wb97xd/cc-pvdz nosymm int=ultrafine scrf=(solvent=C
 arbonTetraChloride)
 ----------------------------------------------------------------------

 ------------------------------------------------
 NM 2D-scan of HBT TD-WB97XD pVDZ in CTC Relaxed.
 ------------------------------------------------
 Symbolic Z-matrix:
 Charge =  0 Multiplicity = 1

 SCF Done:  E(RwB97XD) =  -1028.72333264     A.U. after   16 cycles
 SCF Done:  E(RwB97XD) =  -1028.79068574     A.U. after   14 cycles
 SCF Done:  E(RwB97XD) =  -1028.80030007     A.U. after   13 cycles
 SCF Done:  E(RwB97XD) =  -1028.80218982     A.U. after   13 cycles
 SCF Done:  E(RwB97XD) =  -1028.80259648     A.U. after   11 cycles
 SCF Done:  E(RwB97XD) =  -1028.80266441     A.U. after   10 cycles
 Optimization completed.
    -- Stationary point found.
 Normal termination of Gaussian 16 at Tue Oct 27 21:52:53 2020.

 --------------------------------------------------------------------
 #P Geom=AllCheck Guess=TCheck SCRF=Check GenChk RwB97XD/CC-pVDZ Freq
 --------------------------------------------------------------------

 Structure from the checkpoint file:  "config_11_6.chk"
 ------------------------------------------------
 NM 2D-scan of HBT TD-WB97XD pVDZ in CTC Relaxed.
 ------------------------------------------------
 Charge =  0 Multiplicity = 1

                          Input orientation:
 ---------------------------------------------------------------------
 Center     Atomic      Atomic             Coordinates (Angstroms)
 Number     Number       Type             X           Y           Z
 ---------------------------------------------------------------------
      1          6           0        1.702106   -3.274869   -0.000021
      2          6           0        1.012371   -2.065835   -0.000008
      3          6           0        1.712003   -0.871198   -0.000009
      4          6           0        3.104133   -0.813510   -0.000017
      5          6           0        3.789426   -2.023388   -0.000027
      6          6           0        3.095655   -3.238600   -0.000031
      7          1           0        1.170479   -4.226217   -0.000024
      8          1           0        3.625071    0.144396   -0.000017
      9          1           0        4.880004   -2.022181   -0.000033
     10          1           0        3.651624   -4.176610   -0.000041
     11          7           0        0.843755    0.194124   -0.000011
     12         16           0       -0.738244   -1.738293    0.000009
     13          6           0       -1.403773    1.073381    0.000008
     14          6           0       -2.808877    0.882594   -0.000006
     15          6           0       -0.827967    2.425050    0.000034
     16          6           0       -3.683898    1.944850    0.000015
     17          1           0       -3.203503   -0.138000   -0.000035
     18          6           0       -1.814342    3.499745    0.000063
     19          6           0       -3.164679    3.266873    0.000054
     20          1           0       -4.760460    1.773155    0.000003
     21          1           0       -1.417091    4.516616    0.000091
     22          1           0       -3.858911    4.111196    0.000075
     23          6           0       -0.480484   -0.008414    0.000000
     24          8           0        0.400572    2.633328    0.000032
     25          1           0        1.249810    1.105374   -0.000030
 ---------------------------------------------------------------------

 SCF Done:  E(RwB97XD) =  -1028.80266441     A.U. after    1 cycles

 Alpha  occ. eigenvalues --  -89.10155 -19.21380 -14.51455 -10.41670 -10.36837
 Alpha  occ. eigenvalues --  -10.36150 -10.35953 -10.33390 -10.32985 -10.32626
 Alpha  occ. eigenvalues --  -10.32327 -10.31157 -10.30731 -10.30620 -10.29074
 Alpha  occ. eigenvalues --  -10.28524  -8.12141  -6.07034  -6.06641  -6.06145
 Alpha  occ. eigenvalues --   -1.13425  -1.10182  -0.98639  -0.95119  -0.93209
 Alpha  occ. eigenvalues --   -0.89303  -0.86509  -0.84054  -0.81675  -0.75690
 Alpha  occ. eigenvalues --   -0.73767  -0.71691  -0.69436  -0.67850  -0.64568
 Alpha  occ. eigenvalues --   -0.60900  -0.59803  -0.56672  -0.56040  -0.55938
 Alpha  occ. eigenvalues --   -0.55017  -0.53599  -0.52957  -0.50497  -0.49535
 Alpha  occ. eigenvalues --   -0.49042  -0.48204  -0.46705  -0.45636  -0.44762
 Alpha  occ. eigenvalues --   -0.44539  -0.42938  -0.41760  -0.40447  -0.36884
 Alpha  occ. eigenvalues --   -0.33605  -0.31683  -0.31554  -0.26245
 Alpha virt. eigenvalues --   -0.01308   0.03733   0.06098   0.06737   0.09423
 Alpha virt. eigenvalues --    0.11146   0.12698   0.14621   0.15955   0.17149
 Alpha virt. eigenvalues --    0.18741   0.19912   0.21157   0.21636   0.23046

 Mulliken charges:
               1
     1  C    0.010547
     2  C   -0.249192
     3  C    0.241975
     4  C   -0.010832
     5  C    0.012906
     6  C    0.002289
     7  H    0.025330
     8  H    0.032636
     9  H    0.027660
    10  H    0.026140
    11  N   -0.091199
    12  S    0.179284
    13  C   -0.128842
    14  C   -0.004969
    15  C    0.112990
    16  C   -0.034745
    17  H    0.002157
    18  C   -0.031106
    19  C    0.028243
    20  H    0.002665
    21  H    0.001058
    22  H    0.013368
    23  C    0.091639
    24  O   -0.379730
    25  H    0.119727
 Sum of Mulliken charges =   0.00000

 Dipole moment (field-independent basis, Debye):
    X=              1.9737    Y=             -5.1323    Z=             -0.0001  Tot=              5.4987
 Quadrupole moment (field-independent basis, Debye-Ang):
   XX=            -81.9190   YY=            -94.7094   ZZ=           -104.0349
   XY=             -6.8210   XZ=             -0.0002   YZ=              0.0000

  Exact polarizability:     289.648     -89.011     287.652      -0.001       0.003      62.983
 Approx polarizability:     268.085     -34.921     255.894      -0.001       0.002      82.001

                      1                      2                      3
                      A                      A                      A
 Frequencies --     22.8725                65.3662               111.5828
 Red. masses --      4.8726                 6.5292                 5.6489
 Frc consts  --      0.0015                 0.0164                 0.0414
 IR Inten    --      0.8791                 2.2412                 0.7366

                      4                      5                      6
                      A                      A                      A
 Frequencies --    120.6983               192.9703               231.5171
 Red. masses --      5.1577                 5.8373                 5.9048
 Frc consts  --      0.0443                 0.1281                 0.1865
 IR Inten    --      0.3342                 0.0228                 1.0740

                      7                      8                      9
                      A                      A                      A
 Frequencies --    265.8056               305.7083               321.9444
 Red. masses --      7.3992                 5.1562                 6.7228
 Frc consts  --      0.3080                 0.2839                 0.4105
 IR Inten    --      3.7026                 2.4750                 5.2925

                     10                     11                     12
                      A                      A                      A
 Frequencies --    389.9033               427.3557               444.1932
 Red. masses --      9.2009                 3.2750                 3.5461
 Frc consts  --      0.8241                 0.3524                 0.4122
 IR Inten    --      5.6551                 1.3931                10.7867

                     13                     14                     15
                      A                      A                      A
 Frequencies --    502.7967               525.0561               538.2728
 Red. masses --      8.0170                 2.6694                 8.8341
 Frc consts  --      1.1941                 0.4336                 1.5081
 IR Inten    --      9.0053                11.9077                10.1719

                     16                     17                     18
                      A                      A                      A
 Frequencies --    554.3862               561.4355               584.6819
 Red. masses --      6.6282                 3.7131                 7.2471
 Frc consts  --      1.2002                 0.6896                 1.4597
 IR Inten    --      1.1722                 0.2318                38.5220

                     19                     20                     21
                      A                      A                      A
 Frequencies --    591.5408               649.6440               660.3010
 Red. masses --      1.3327                 3.3207                 5.9024
 Frc consts  --      0.2747                 0.8257                 1.5162
 IR Inten    --     38.2247                18.4822                 6.1433

                     22                     23                     24
                      A                      A                      A
 Frequencies --    700.7905               740.0419               751.5364
 Red. masses --      6.0734                 7.8699                 2.7807
 Frc consts  --      1.7573                 2.5394                 0.9253
 IR Inten    --     39.8899                50.5170                 7.8987

                     25                     26                     27
                      A                      A                      A
 Frequencies --    760.8869               776.6835               780.5749
 Red. masses --      1.4233                 1.5321                 2.4222
 Frc consts  --      0.4855                 0.5445                 0.8695
 IR Inten    --     47.6159                40.7485                37.0711

                     28                     29                     30
                      A                      A                      A
 Frequencies --    830.1371               877.1464               882.7382
 Red. masses --      6.1692                 1.9814                 1.3733
 Frc consts  --      2.5048                 0.8982                 0.6305
 IR Inten    --     23.3491                15.2996                 1.2251

                     31                     32                     33
                      A                      A                      A
 Frequencies --    899.3929               961.9878               969.0030
 Red. masses --      4.9767                 4.0980                 1.3220
 Frc consts  --      2.3719                 2.2344                 0.7313
 IR Inten    --      1.3503                39.1974                 0.2089

                     34                     35                     36
                      A                      A                      A
 Frequencies --    972.4060              1015.3275              1016.2593
 Red. masses --      1.3563                 1.3016                 1.3042
 Frc consts  --      0.7556                 0.7906                 0.7936
 IR Inten    --      1.4480                 0.0091                 0.3500

                     37                     38                     39
                      A                      A                      A
 Frequencies --   1043.2677              1058.1401              1085.0283
 Red. masses --      2.1227                 2.1428                 3.3021
 Frc consts  --      1.3612                 1.4136                 2.2905
 IR Inten    --      8.7907                11.9662                31.7387

                     40                     41                     42
                      A                      A                      A
 Frequencies --   1110.3048              1155.8232              1157.8154
 Red. masses --      2.1726                 1.3319                 1.2090
 Frc consts  --      1.5780                 1.0484                 0.9549
 IR Inten    --     91.7376                 3.2546                66.2780

                     43                     44                     45
                      A                      A                      A
 Frequencies --   1182.4561              1190.3829              1244.2360
 Red. masses --      1.1451                 1.1919                 2.0300
 Frc consts  --      0.9433                 0.9951                 1.8516
 IR Inten    --     21.2677                10.7662                 9.7068

                     46                     47                     48
                      A                      A                      A
 Frequencies --   1289.7929              1298.4594              1367.9679
 Red. masses --      2.0426                 1.8424                 2.5847
 Frc consts  --      2.0021                 1.8301                 2.8497
 IR Inten    --     96.6676               110.6789                60.2656

                     49                     50                     51
                      A                      A                      A
 Frequencies --   1380.7781              1393.9325              1416.4929
 Red. masses --      7.3612                 6.2216                 2.2571
 Frc consts  --      8.2689                 7.1226                 2.6682
 IR Inten    --     29.7766               106.4421                14.9455

                     52                     53                     54
                      A                      A                      A
 Frequencies --   1489.6326              1504.5900              1532.1732
 Red. masses --      2.8267                 3.0505                 2.9812
 Frc consts  --      3.6956                 4.0687                 4.1234
 IR Inten    --    183.4582               702.6724               252.1128

                     55                     56                     57
                      A                      A                      A
 Frequencies --   1551.5241              1595.7783              1646.0258
 Red. masses --      4.6469                 6.6870                 6.6418
 Frc consts  --      6.5907                10.0329                10.6025
 IR Inten    --   1060.2131               143.4591                84.5654

                     58                     59                     60
                      A                      A                      A
 Frequencies --   1682.0016              1696.4323              1723.3820
 Red. masses --      7.1888                 7.8005                 7.9187
 Frc consts  --     11.9828                13.2265                13.8570
 IR Inten    --     69.6174                88.3212               361.2044

                     61                     62                     63
                      A                      A                      A
 Frequencies --   3176.9684              3190.8042              3217.0441
 Red. masses --      1.0895                 1.0878                 1.0945
 Frc consts  --      6.4791                 6.5253                 6.6736
 IR Inten    --      5.4382                14.6396                26.8254

                     64                     65                     66
                      A                      A                      A
 Frequencies --   3217.6979              3228.5387              3231.5372
 Red. masses --      1.0867                 1.0908                 1.0967
 Frc consts  --      6.6289                 6.6989                 6.7477
 IR Inten    --      2.1561                 1.9317                19.5477

                     67                     68                     69
                      A                      A                      A
 Frequencies --   3236.6578              3244.2432              3730.2957
 Red. masses --      1.0966                 1.0996                 1.0811
 Frc consts  --      6.7685                 6.8189                 8.8633
 IR Inten    --      3.8324                12.2426               159.9278

 - Thermochemistry -
 -------------------
 Temperature   298.150 Kelvin.  Pressure   1.00000 Atm.
 Atom     1 has atomic number  6 and mass  12.00000

 Molecular mass:   227.04049 amu.
 Principal axes and moments of inertia in atomic units:
                           1         2         3
     Eigenvalues --  1300.125246366.104357666.22959
           X           -0.70584   0.70837   0.00000
           Y            0.70837   0.70584  -0.00001
           Z            0.00001   0.00000   1.00000
 This molecule is an asymmetric top.
 Rotational symmetry number  1.
 Warning -- assumption of classical behavior for rotation
           may cause significant error
 Rotational temperatures (Kelvin)      0.06662     0.01361     0.01130
 Rotational constants (GHZ):           1.38813     0.28349     0.23541
 Zero-point vibrational energy     498084.0 (Joules/Mol)
                                  119.04495 (Kcal/Mol)
 Warning -- explicit consideration of  19 degrees of freedom as
           vibrations may cause significant error
 Vibrational temperatures:     32.91    94.05   160.54   173.66   277.64
          (Kelvin)            333.10   382.44   439.85   463.21   560.98
                              614.87   639.09   723.41   755.44   774.45
                              797.64   807.78   841.23   851.10   934.69
                              950.03  1008.28  1064.76  1081.29  1094.75
                             1117.47  1123.07  1194.38  1262.02  1270.06
                             1294.03  1384.09  1394.18  1399.08  1460.83
                             1462.17  1501.03  1522.43  1561.11  1597.48
                             1662.97  1665.84  1701.29  1712.70  1790.18
                             1855.72  1868.19  1968.20  1986.63  2005.56
                             2038.02  2143.25  2164.77  2204.46  2232.30
                             2295.97  2368.26  2420.03  2440.79  2479.56
                             4570.95  4590.86  4628.61  4629.55  4645.15
                             4649.46  4656.83  4667.74  5367.06

 Zero-point correction=                           0.189710 (Hartree/Particle)
 Thermal correction to Energy=                    0.201751
 Thermal correction to Enthalpy=                  0.202695
 Thermal correction to Gibbs Free Energy=         0.150145
 Sum of electronic and zero-point Energies=          -1028.612954
 Sum of electronic and thermal Energies=             -1028.600913
 Sum of electronic and thermal Enthalpies=           -1028.599969
 Sum of electronic and thermal Free Energies=        -1028.652520

                     E (Thermal)             CV                S
                      KCal/Mol        Cal/Mol-Kelvin    Cal/Mol-Kelvin
 Total                  126.601             48.584            110.602
 Electronic               0.000              0.000              0.000
 Translational            0.889              2.981             42.162
 Rotational               0.889              2.981             32.517
 Vibrational            124.823             42.623             35.922
 Vibration     1          0.593              1.985              6.368
 Vibration     2          0.597              1.971              4.288
 Vibration     3          0.607              1.940              3.241
 Vibration     4          0.609              1.932              3.089
 Vibration     5          0.635              1.850              2.199
 Vibration     6          0.653              1.793              1.867
 Vibration     7          0.672              1.736              1.623
 Vibration     8          0.696              1.663              1.385
 Vibration     9          0.707              1.631              1.300
 Vibration    10          0.758              1.492              1.001
 Vibration    11          0.789              1.411              0.867
 Vibration    12          0.804              1.374              0.814
 Vibration    13          0.858              1.244              0.651
 Vibration    14          0.880              1.195              0.598
 Vibration    15          0.893              1.165              0.569
 Vibration    16          0.910              1.130              0.535
 Vibration    17          0.917              1.115              0.521
 Vibration    18          0.942              1.064              0.477
 Vibration    19          0.949              1.050              0.464

                           ! Non-Optimized Parameters !
 Normal termination of Gaussian 16 at Tue Oct 27 21:59:02 2020.
