 Gaussian 16, Revision C.01,
 Gaussian 16:  ES64L-G16RevC.01  3-Jul-2019

 ----------------------------------------------------------------------
 #p opt=addgic freq wb97xd/cc-pvdz nosymm int=ultrafine scrf=(solvent=C
 arbonTetraChloride)
 ----------------------------------------------------------------------

 ------------------------------------------------
 NM 2D-scan of HBT TD-WB97XD pVDZ in CTC Relaxed.
 ------------------------------------------------
 Symbolic Z-matrix:
 Charge =  0 Multiplicity = 1

 SCF Done:  E(RwB97XD) =  -1028.81488984     A.U. after   15 cycles
 SCF Done:  E(RwB97XD) =  -1028.82230494     A.U. after   13 cycles
 SCF Done:  E(RwB97XD) =  -1028.82278114     A.U. after   12 cycles
 SCF Done:  E(RwB97XD) =  -1028.82322404     A.U. after   12 cycles
 SCF Done:  E(RwB97XD) =  -1028.82351566     A.U. after   11 cycles
 SCF Done:  E(RwB97XD) =  -1028.82351999     A.U. after    9 cycles
 SCF Done:  E(RwB97XD) =  -1028.82350760     A.U. after   11 cycles
 SCF Done:  E(RwB97XD) =  -1028.82352087     A.U. after   10 cycles
 SCF Done:  E(RwB97XD) =  -1028.82352130     A.U. after    8 cycles
 Optimization completed.
    -- Stationary point found.
 Normal termination of Gaussian 16 at Wed Oct 28 00:46:42 2020.

 --------------------------------------------------------------------
 #P Geom=AllCheck Guess=TCheck SCRF=Check GenChk RwB97XD/CC-pVDZ Freq
 --------------------------------------------------------------------

 Structure from the checkpoint file:  "config_5_14.chk"
 ------------------------------------------------
 NM 2D-scan of HBT TD-WB97XD pVDZ in CTC Relaxed.
 ------------------------------------------------
 Charge =  0 Multiplicity = 1

                          Input orientation:
 ---------------------------------------------------------------------
 Center     Atomic      Atomic             Coordinates (Angstroms)
 Number     Number       Type             X           Y           Z
 ---------------------------------------------------------------------
      1          6           0        1.576080   -3.254952   -0.000083
      2          6           0        1.004015   -1.986582   -0.000053
      3          6           0        1.763604   -0.807427    0.000008
      4          6           0        3.162392   -0.906441    0.000037
      5          6           0        3.740176   -2.174346    0.000008
      6          6           0        2.959998   -3.340292   -0.000051
      7          1           0        0.951560   -4.148609   -0.000127
      8          1           0        3.779300   -0.007237    0.000084
      9          1           0        4.827764   -2.260906    0.000033
     10          1           0        3.442571   -4.318428   -0.000071
     11          7           0        0.967521    0.335353    0.000040
     12         16           0       -0.700671   -1.617251   -0.000067
     13          6           0       -1.337109    1.098827    0.000032
     14          6           0       -2.699159    0.780757    0.000072
     15          6           0       -0.890682    2.443402    0.000001
     16          6           0       -3.659872    1.779241    0.000075
     17          1           0       -3.008219   -0.267347    0.000106
     18          6           0       -1.886312    3.449634   -0.000004
     19          6           0       -3.236834    3.114478    0.000031
     20          1           0       -4.720489    1.528104    0.000109
     21          1           0       -1.570896    4.493963   -0.000038
     22          1           0       -3.980929    3.913878    0.000025
     23          6           0       -0.317530    0.068098    0.000012
     24          8           0        0.400121    2.704166   -0.000037
     25          1           0        0.908632    1.775860   -0.000039
 ---------------------------------------------------------------------

 SCF Done:  E(RwB97XD) =  -1028.82352130     A.U. after    1 cycles

 Alpha  occ. eigenvalues --  -89.08794 -19.26520 -14.47547 -10.39537 -10.37065
 Alpha  occ. eigenvalues --  -10.35530 -10.34830 -10.32393 -10.32086 -10.31760
 Alpha  occ. eigenvalues --  -10.31733 -10.31709 -10.31602 -10.31352 -10.30042
 Alpha  occ. eigenvalues --  -10.30024  -8.10935  -6.05778  -6.05416  -6.04986
 Alpha  occ. eigenvalues --   -1.15489  -1.09274  -0.97482  -0.96171  -0.92180
 Alpha  occ. eigenvalues --   -0.88698  -0.85697  -0.84292  -0.83040  -0.75584
 Alpha  occ. eigenvalues --   -0.71542  -0.70720  -0.69355  -0.68097  -0.63399
 Alpha  occ. eigenvalues --   -0.60808  -0.59119  -0.58218  -0.56284  -0.54554
 Alpha  occ. eigenvalues --   -0.54529  -0.53450  -0.52796  -0.50951  -0.50112
 Alpha  occ. eigenvalues --   -0.49464  -0.47100  -0.46178  -0.45394  -0.45119
 Alpha  occ. eigenvalues --   -0.44113  -0.42845  -0.42690  -0.40041  -0.36339
 Alpha  occ. eigenvalues --   -0.36281  -0.32353  -0.31630  -0.28804
 Alpha virt. eigenvalues --   -0.00564   0.04660   0.06723   0.07450   0.07836
 Alpha virt. eigenvalues --    0.11244   0.14650   0.15142   0.17004   0.17975
 Alpha virt. eigenvalues --    0.19018   0.21003   0.21732   0.22512   0.22663

 Mulliken charges:
               1
     1  C    0.017441
     2  C   -0.220763
     3  C    0.241650
     4  C   -0.016734
     5  C    0.004231
     6  C    0.003695
     7  H    0.019207
     8  H    0.022580
     9  H    0.021822
    10  H    0.022379
    11  N   -0.345833
    12  S    0.159413
    13  C   -0.061325
    14  C   -0.028325
    15  C    0.088564
    16  C   -0.010784
    17  H    0.016345
    18  C   -0.007604
    19  C    0.021584
    20  H    0.008220
    21  H    0.013873
    22  H    0.018068
    23  C    0.083707
    24  O   -0.254577
    25  H    0.183167
 Sum of Mulliken charges =  -0.00000

 Dipole moment (field-independent basis, Debye):
    X=              0.1397    Y=             -3.2205    Z=             -0.0000  Tot=              3.2236
 Quadrupole moment (field-independent basis, Debye-Ang):
   XX=            -82.6680   YY=            -90.8733   ZZ=           -103.9668
   XY=             -7.2844   XZ=             -0.0001   YZ=              0.0002

  Exact polarizability:     274.874     -69.189     255.976      -0.001       0.002      62.837
 Approx polarizability:     262.272     -24.068     242.582       0.000       0.002      82.138

 ******    1 imaginary frequencies (negative Signs) ******

                      1                      2                      3
                      A                      A                      A
 Frequencies --    -18.0577                65.5627               127.4709
 Red. masses --      5.3629                 6.0683                 5.5725
 Frc consts  --      0.0010                 0.0154                 0.0533
 IR Inten    --      0.0313                 1.2822                 3.6181

                      4                      5                      6
                      A                      A                      A
 Frequencies --    151.9013               197.2237               243.5760
 Red. masses --      5.0677                 6.0965                 5.6125
 Frc consts  --      0.0689                 0.1397                 0.1962
 IR Inten    --      0.2709                 0.5589                 0.0864

                      7                      8                      9
                      A                      A                      A
 Frequencies --    277.3837               329.0496               334.5103
 Red. masses --      7.3073                 5.1427                 5.9639
 Frc consts  --      0.3313                 0.3281                 0.3932
 IR Inten    --      0.6332                 0.1275                19.5374

                     10                     11                     12
                      A                      A                      A
 Frequencies --    423.0235               435.6563               462.0992
 Red. masses --     10.6885                 3.1006                 3.5820
 Frc consts  --      1.1269                 0.3467                 0.4507
 IR Inten    --      0.0655                 1.6922                 8.3278

                     13                     14                     15
                      A                      A                      A
 Frequencies --    514.3845               524.2699               537.6971
 Red. masses --      7.0764                 6.4219                 3.4454
 Frc consts  --      1.1032                 1.0400                 0.5869
 IR Inten    --      8.9726                24.1703                 3.4427

                     16                     17                     18
                      A                      A                      A
 Frequencies --    562.9763               575.8540               590.6400
 Red. masses --      7.0110                 3.7148                 7.6075
 Frc consts  --      1.3092                 0.7258                 1.5636
 IR Inten    --      8.2867                 0.0611                 2.0238

                     19                     20                     21
                      A                      A                      A
 Frequencies --    648.2618               686.8697               731.0799
 Red. masses --      6.3712                 6.4433                 6.5091
 Frc consts  --      1.5775                 1.7910                 2.0497
 IR Inten    --      0.0092                 6.9385                20.0287

                     22                     23                     24
                      A                      A                      A
 Frequencies --    755.8615               768.7196               769.7695
 Red. masses --      2.0212                 2.7590                 9.7795
 Frc consts  --      0.6804                 0.9606                 3.4142
 IR Inten    --     26.7966                 5.3877                21.1265

                     25                     26                     27
                      A                      A                      A
 Frequencies --    774.4415               784.3900               855.5599
 Red. masses --      1.4674                 1.9109                 6.0007
 Frc consts  --      0.5185                 0.6927                 2.5879
 IR Inten    --     54.4906                42.3300                14.2181

                     28                     29                     30
                      A                      A                      A
 Frequencies --    881.2676               886.3879               906.0260
 Red. masses --      1.5752                 1.4048                 6.7785
 Frc consts  --      0.7208                 0.6503                 3.2784
 IR Inten    --      5.4930                 0.4013                 7.0055

                     31                     32                     33
                      A                      A                      A
 Frequencies --    966.1043               975.0144              1010.5898
 Red. masses --      1.3623                 1.3648                 1.3030
 Frc consts  --      0.7491                 0.7644                 0.7840
 IR Inten    --      1.2249                 1.3035                 0.1562

                     34                     35                     36
                      A                      A                      A
 Frequencies --   1012.6962              1015.5457              1052.4933
 Red. masses --      7.5612                 1.3055                 2.0050
 Frc consts  --      4.5688                 0.7933                 1.3086
 IR Inten    --     47.7581                 0.0016                 9.7538

                     37                     38                     39
                      A                      A                      A
 Frequencies --   1067.1075              1068.7139              1106.1902
 Red. masses --      1.8845                 1.0610                 3.4209
 Frc consts  --      1.2643                 0.7140                 2.4663
 IR Inten    --      7.8186                72.7496                 4.9173

                     40                     41                     42
                      A                      A                      A
 Frequencies --   1153.7054              1158.8684              1173.3708
 Red. masses --      1.4485                 1.3832                 1.1377
 Frc consts  --      1.1360                 1.0945                 0.9229
 IR Inten    --     14.3609                 2.5221                35.7625

                     43                     44                     45
                      A                      A                      A
 Frequencies --   1183.6246              1262.0367              1287.2917
 Red. masses --      1.2345                 1.9197                 1.7350
 Frc consts  --      1.0190                 1.8015                 1.6940
 IR Inten    --      0.8538                65.2349                14.2090

                     46                     47                     48
                      A                      A                      A
 Frequencies --   1302.1351              1312.8500              1363.6392
 Red. masses --      3.1260                 2.7178                 4.0006
 Frc consts  --      3.1228                 2.7599                 4.3830
 IR Inten    --    208.8120                91.7200                10.3340

                     49                     50                     51
                      A                      A                      A
 Frequencies --   1378.5141              1381.8629              1485.2050
 Red. masses --      3.6857                 7.8006                 2.9786
 Frc consts  --      4.1266                 8.7763                 3.8710
 IR Inten    --     16.5225                 5.7417                16.0616

                     52                     53                     54
                      A                      A                      A
 Frequencies --   1491.7291              1495.1295              1517.5461
 Red. masses --      2.5985                 2.7310                 3.8139
 Frc consts  --      3.4069                 3.5969                 5.1749
 IR Inten    --     23.6124                23.9797                75.7591

                     55                     56                     57
                      A                      A                      A
 Frequencies --   1576.5371              1617.2301              1655.0293
 Red. masses --      6.3238                 3.6820                 6.9475
 Frc consts  --      9.2605                 5.6739                11.2121
 IR Inten    --    273.4838                 4.0361                21.9224

                     58                     59                     60
                      A                      A                      A
 Frequencies --   1674.5179              1699.0937              1751.2123
 Red. masses --      6.5697                 7.0448                 1.4511
 Frc consts  --     10.8537                11.9826                 2.6220
 IR Inten    --    106.3851               221.1859               418.5953

                     61                     62                     63
                      A                      A                      A
 Frequencies --   2147.4335              3200.2224              3207.8847
 Red. masses --      1.1279                 1.0882                 1.0891
 Frc consts  --      3.0645                 6.5665                 6.6033
 IR Inten    --   1656.1620                 3.3013                 7.7267

                     64                     65                     66
                      A                      A                      A
 Frequencies --   3211.7041              3221.8663              3227.9872
 Red. masses --      1.0861                 1.0906                 1.0937
 Frc consts  --      6.6008                 6.6699                 6.7145
 IR Inten    --      1.5804                 2.8883                14.5030

                     67                     68                     69
                      A                      A                      A
 Frequencies --   3231.6942              3236.8597              3238.2364
 Red. masses --      1.0959                 1.0988                 1.0998
 Frc consts  --      6.7436                 6.7831                 6.7952
 IR Inten    --      8.2738                18.3861                12.9597

 - Thermochemistry -
 -------------------
 Temperature   298.150 Kelvin.  Pressure   1.00000 Atm.
 Atom     1 has atomic number  6 and mass  12.00000

 Molecular mass:   227.04049 amu.
 Principal axes and moments of inertia in atomic units:
                           1         2         3
     Eigenvalues --  1274.467486268.787427543.25490
           X           -0.70601   0.70821   0.00000
           Y            0.70821   0.70601  -0.00001
           Z            0.00001   0.00001   1.00000
 This molecule is an asymmetric top.
 Rotational symmetry number  1.
 Warning -- assumption of classical behavior for rotation
           may cause significant error
 Rotational temperatures (Kelvin)      0.06796     0.01382     0.01148
 Rotational constants (GHZ):           1.41607     0.28789     0.23925
    1 imaginary frequencies ignored.
 Zero-point vibrational energy     495980.0 (Joules/Mol)
                                  118.54207 (Kcal/Mol)
 Warning -- explicit consideration of  17 degrees of freedom as
           vibrations may cause significant error
 Vibrational temperatures:     94.33   183.40   218.55   283.76   350.45
          (Kelvin)            399.09   473.43   481.29   608.64   626.81
                              664.86   740.08   754.31   773.63   810.00
                              828.53   849.80   932.70   988.25  1051.86
                             1087.52  1106.02  1107.53  1114.25  1128.56
                             1230.96  1267.95  1275.31  1303.57  1390.01
                             1402.83  1454.01  1457.04  1461.14  1514.30
                             1535.33  1537.64  1591.56  1659.92  1667.35
                             1688.22  1702.97  1815.79  1852.13  1873.48
                             1888.90  1961.97  1983.37  1988.19  2136.88
                             2146.27  2151.16  2183.41  2268.29  2326.83
                             2381.22  2409.26  2444.62  2519.60  3089.68
                             4604.41  4615.43  4620.93  4635.55  4644.35
                             4649.69  4657.12  4659.10

 Zero-point correction=                           0.188909 (Hartree/Particle)
 Thermal correction to Energy=                    0.199601
 Thermal correction to Enthalpy=                  0.200546
 Thermal correction to Gibbs Free Energy=         0.151978
 Sum of electronic and zero-point Energies=          -1028.634612
 Sum of electronic and thermal Energies=             -1028.623920
 Sum of electronic and thermal Enthalpies=           -1028.622976
 Sum of electronic and thermal Free Energies=        -1028.671543

                     E (Thermal)             CV                S
                      KCal/Mol        Cal/Mol-Kelvin    Cal/Mol-Kelvin
 Total                  125.252             45.008            102.218
 Electronic               0.000              0.000              0.000
 Translational            0.889              2.981             42.162
 Rotational               0.889              2.981             32.466
 Vibrational            123.474             39.047             27.590
 Vibration     1          0.597              1.971              4.282
 Vibration     2          0.611              1.926              2.984
 Vibration     3          0.619              1.901              2.648
 Vibration     4          0.637              1.844              2.159
 Vibration     5          0.659              1.773              1.777
 Vibration     6          0.678              1.715              1.550
 Vibration     7          0.712              1.617              1.265
 Vibration     8          0.716              1.607              1.238
 Vibration     9          0.785              1.420              0.882
 Vibration    10          0.796              1.392              0.840
 Vibration    11          0.820              1.334              0.760
 Vibration    12          0.869              1.218              0.623
 Vibration    13          0.879              1.196              0.600
 Vibration    14          0.893              1.167              0.570
 Vibration    15          0.919              1.111              0.518
 Vibration    16          0.932              1.083              0.493
 Vibration    17          0.948              1.052              0.466

 Optimization completed.
    -- Stationary point found.
 Normal termination of Gaussian 16 at Wed Oct 28 00:53:34 2020.
