 Gaussian 16, Revision C.01,
 Gaussian 16:  ES64L-G16RevC.01  3-Jul-2019

 ----------------------------------------------------------------------
 #p opt=addgic freq wb97xd/cc-pvdz nosymm int=ultrafine scrf=(solvent=C
 arbonTetraChloride)
 ----------------------------------------------------------------------

 ------------------------------------------------
 NM 2D-scan of HBT TD-WB97XD pVDZ in CTC Relaxed.
 ------------------------------------------------
 Symbolic Z-matrix:
 Charge =  0 Multiplicity = 1

 SCF Done:  E(RwB97XD) =  -1028.80746937     A.U. after   15 cycles
 SCF Done:  E(RwB97XD) =  -1028.81212323     A.U. after   14 cycles
 SCF Done:  E(RwB97XD) =  -1028.81035724     A.U. after   13 cycles
 SCF Done:  E(RwB97XD) =  -1028.81378873     A.U. after   12 cycles
 SCF Done:  E(RwB97XD) =  -1028.81394321     A.U. after   12 cycles
 SCF Done:  E(RwB97XD) =  -1028.81398351     A.U. after   11 cycles
 SCF Done:  E(RwB97XD) =  -1028.81389284     A.U. after   12 cycles
 SCF Done:  E(RwB97XD) =  -1028.81399303     A.U. after   11 cycles
 SCF Done:  E(RwB97XD) =  -1028.81399932     A.U. after   10 cycles
 Optimization completed.
    -- Stationary point found.
 Normal termination of Gaussian 16 at Tue Oct 27 21:36:20 2020.

 --------------------------------------------------------------------
 #P Geom=AllCheck Guess=TCheck SCRF=Check GenChk RwB97XD/CC-pVDZ Freq
 --------------------------------------------------------------------

 Structure from the checkpoint file:  "config_8_4.chk"
 ------------------------------------------------
 NM 2D-scan of HBT TD-WB97XD pVDZ in CTC Relaxed.
 ------------------------------------------------
 Charge =  0 Multiplicity = 1

                          Input orientation:
 ---------------------------------------------------------------------
 Center     Atomic      Atomic             Coordinates (Angstroms)
 Number     Number       Type             X           Y           Z
 ---------------------------------------------------------------------
      1          6           0        1.714365   -3.255212   -0.000005
      2          6           0        1.006000   -2.053449   -0.000012
      3          6           0        1.681982   -0.828798   -0.000028
      4          6           0        3.077257   -0.767657   -0.000049
      5          6           0        3.779531   -1.965002   -0.000039
      6          6           0        3.105076   -3.194911   -0.000015
      7          1           0        1.197120   -4.214816    0.000004
      8          1           0        3.584120    0.197418   -0.000067
      9          1           0        4.870138   -1.948905   -0.000050
     10          1           0        3.677863   -4.123120   -0.000011
     11          7           0        0.818806    0.241255   -0.000030
     12         16           0       -0.740061   -1.776651   -0.000030
     13          6           0       -1.409643    1.048089    0.000040
     14          6           0       -2.808965    0.882784   -0.000000
     15          6           0       -0.828351    2.371609    0.000166
     16          6           0       -3.656932    1.973588    0.000013
     17          1           0       -3.225069   -0.128515   -0.000063
     18          6           0       -1.739771    3.468307    0.000093
     19          6           0       -3.104239    3.271035    0.000042
     20          1           0       -4.737924    1.833545   -0.000031
     21          1           0       -1.310121    4.471092    0.000097
     22          1           0       -3.769957    4.137263    0.000022
     23          6           0       -0.468746   -0.046052    0.000002
     24          8           0        0.447403    2.564868    0.000083
     25          1           0        0.935444    1.418150   -0.000049
 ---------------------------------------------------------------------

 SCF Done:  E(RwB97XD) =  -1028.81399932     A.U. after    1 cycles

 Alpha  occ. eigenvalues --  -89.09838 -19.23491 -14.49081 -10.40697 -10.36499
 Alpha  occ. eigenvalues --  -10.36196 -10.35676 -10.33040 -10.32430 -10.32184
 Alpha  occ. eigenvalues --  -10.32107 -10.31471 -10.31365 -10.30887 -10.29441
 Alpha  occ. eigenvalues --  -10.29040  -8.11828  -6.06700  -6.06327  -6.05859
 Alpha  occ. eigenvalues --   -1.13711  -1.10010  -0.98009  -0.95362  -0.92587
 Alpha  occ. eigenvalues --   -0.89024  -0.85981  -0.83999  -0.82512  -0.75790
 Alpha  occ. eigenvalues --   -0.71905  -0.70931  -0.68875  -0.68447  -0.63827
 Alpha  occ. eigenvalues --   -0.60827  -0.59494  -0.57310  -0.55839  -0.55289
 Alpha  occ. eigenvalues --   -0.54643  -0.53578  -0.52434  -0.51001  -0.50004
 Alpha  occ. eigenvalues --   -0.49430  -0.47571  -0.46471  -0.45327  -0.45046
 Alpha  occ. eigenvalues --   -0.44225  -0.43125  -0.41869  -0.40528  -0.36483
 Alpha  occ. eigenvalues --   -0.33913  -0.33076  -0.31540  -0.27500
 Alpha virt. eigenvalues --   -0.00962   0.04139   0.06544   0.06998   0.08363
 Alpha virt. eigenvalues --    0.10956   0.13421   0.14839   0.16117   0.17668
 Alpha virt. eigenvalues --    0.19175   0.20574   0.21574   0.21997   0.22873

 Mulliken charges:
               1
     1  C    0.011418
     2  C   -0.240108
     3  C    0.277642
     4  C   -0.009580
     5  C    0.010049
     6  C    0.001944
     7  H    0.023554
     8  H    0.028579
     9  H    0.024869
    10  H    0.024834
    11  N   -0.241698
    12  S    0.175463
    13  C   -0.119459
    14  C   -0.009543
    15  C    0.112877
    16  C   -0.024457
    17  H    0.004217
    18  C   -0.010225
    19  C    0.024308
    20  H    0.004957
    21  H    0.006398
    22  H    0.014743
    23  C    0.074128
    24  O   -0.358783
    25  H    0.193869
 Sum of Mulliken charges =  -0.00000

 Dipole moment (field-independent basis, Debye):
    X=              1.0523    Y=             -4.2305    Z=             -0.0002  Tot=              4.3594
 Quadrupole moment (field-independent basis, Debye-Ang):
   XX=            -82.7162   YY=            -92.3876   ZZ=           -104.0333
   XY=             -7.0731   XZ=             -0.0000   YZ=             -0.0002

  Exact polarizability:     281.310     -76.279     270.413      -0.000       0.003      62.969
 Approx polarizability:     265.661     -28.008     250.710       0.000       0.002      82.171

 ******    1 imaginary frequencies (negative Signs) ******

                      1                      2                      3
                      A                      A                      A
 Frequencies --   -881.4525                50.7322                65.4305
 Red. masses --      1.1897                 4.9611                 6.1787
 Frc consts  --      0.5446                 0.0075                 0.0156
 IR Inten    --   1156.5004                 0.0051                 1.8610

                      4                      5                      6
                      A                      A                      A
 Frequencies --    136.0826               151.0098               200.0144
 Red. masses --      5.6212                 5.1269                 6.0449
 Frc consts  --      0.0613                 0.0689                 0.1425
 IR Inten    --      0.5196                 0.6923                 0.1237

                      7                      8                      9
                      A                      A                      A
 Frequencies --    242.7227               275.6583               318.9738
 Red. masses --      6.0627                 7.1676                 5.2797
 Frc consts  --      0.2104                 0.3209                 0.3165
 IR Inten    --      0.4307                 2.7282                 0.6400

                     10                     11                     12
                      A                      A                      A
 Frequencies --    384.0294               417.7819               433.6750
 Red. masses --      6.0736                11.1894                 3.1504
 Frc consts  --      0.5277                 1.1507                 0.3491
 IR Inten    --      0.5514                 2.4624                 1.4881

                     13                     14                     15
                      A                      A                      A
 Frequencies --    456.5284               515.3384               538.8912
 Red. masses --      3.6304                 8.8228                 3.2221
 Frc consts  --      0.4458                 1.3805                 0.5513
 IR Inten    --      9.5534                 4.7551                 4.2671

                     16                     17                     18
                      A                      A                      A
 Frequencies --    554.4173               569.0607               581.7650
 Red. masses --      8.7596                 3.6372                 7.5851
 Frc consts  --      1.5864                 0.6940                 1.5125
 IR Inten    --      6.4566                 0.1287                10.0019

                     19                     20                     21
                      A                      A                      A
 Frequencies --    617.5398               648.5140               693.7557
 Red. masses --      7.2694                 6.5405                 6.3873
 Frc consts  --      1.6333                 1.6207                 1.8113
 IR Inten    --     20.3337                 0.0048                11.0091

                     22                     23                     24
                      A                      A                      A
 Frequencies --    716.4058               752.9437               766.6042
 Red. masses --      6.5549                 2.3602                 1.5772
 Frc consts  --      1.9821                 0.7883                 0.5461
 IR Inten    --     10.2941                15.9526                39.0333

                     25                     26                     27
                      A                      A                      A
 Frequencies --    776.5358               780.6733               780.9352
 Red. masses --      2.3079                 7.7018                 1.6801
 Frc consts  --      0.8200                 2.7655                 0.6037
 IR Inten    --     29.2385                25.5865                40.3980

                     28                     29                     30
                      A                      A                      A
 Frequencies --    851.1185               879.7028               884.5673
 Red. masses --      6.2133                 1.6959                 1.3951
 Frc consts  --      2.6519                 0.7732                 0.6431
 IR Inten    --     17.0981                 8.0002                 0.2876

                     31                     32                     33
                      A                      A                      A
 Frequencies --    935.8161               967.8067               974.2890
 Red. masses --      6.9926                 1.3412                 1.3594
 Frc consts  --      3.6080                 0.7401                 0.7603
 IR Inten    --     13.2024                 0.6703                 1.1401

                     34                     35                     36
                      A                      A                      A
 Frequencies --   1012.4876              1015.3969              1016.2082
 Red. masses --      1.3024                 7.2048                 1.3051
 Frc consts  --      0.7867                 4.3767                 0.7940
 IR Inten    --      0.2486                 9.6401                 0.0037

                     37                     38                     39
                      A                      A                      A
 Frequencies --   1054.2764              1056.6439              1100.5956
 Red. masses --      2.0683                 1.9616                 3.8332
 Frc consts  --      1.3545                 1.2904                 2.7357
 IR Inten    --      6.2872                10.2096                 4.5722

                     40                     41                     42
                      A                      A                      A
 Frequencies --   1152.6726              1156.4922              1165.5027
 Red. masses --      1.4381                 1.2925                 1.0613
 Frc consts  --      1.1258                 1.0185                 0.8494
 IR Inten    --     12.1020                 1.0081                67.8912

                     43                     44                     45
                      A                      A                      A
 Frequencies --   1175.4247              1185.2350              1257.8052
 Red. masses --      1.1005                 1.1712                 1.8797
 Frc consts  --      0.8958                 0.9694                 1.7521
 IR Inten    --     91.9862                 0.2559                61.5420

                     46                     47                     48
                      A                      A                      A
 Frequencies --   1289.6576              1325.3981              1363.9507
 Red. masses --      1.5303                 3.0159                 4.5148
 Frc consts  --      1.4996                 3.1214                 4.9486
 IR Inten    --     19.6830               349.7456                13.1150

                     49                     50                     51
                      A                      A                      A
 Frequencies --   1381.5816              1383.8413              1406.0914
 Red. masses --      8.0054                 3.8520                 2.4168
 Frc consts  --      9.0030                 4.3462                 2.8153
 IR Inten    --     25.3886                 8.0288                10.7166

                     52                     53                     54
                      A                      A                      A
 Frequencies --   1495.0045              1504.7783              1525.6529
 Red. masses --      2.7669                 2.8562                 3.6025
 Frc consts  --      3.6436                 3.8105                 4.9405
 IR Inten    --     19.6091                28.9654                59.4875

                     55                     56                     57
                      A                      A                      A
 Frequencies --   1564.5058              1588.4469              1603.7594
 Red. masses --      7.3065                 4.7661                 5.9889
 Frc consts  --     10.5369                 7.0854                 9.0756
 IR Inten    --   1674.8457               241.0449                17.5105

                     58                     59                     60
                      A                      A                      A
 Frequencies --   1661.8210              1683.1989              1711.1977
 Red. masses --      7.0389                 6.7468                 6.5619
 Frc consts  --     11.4531                11.2620                11.3210
 IR Inten    --      2.8538                 3.8967               166.9586

                     61                     62                     63
                      A                      A                      A
 Frequencies --   1975.1828              3184.4107              3197.5105
 Red. masses --      1.1113                 1.0897                 1.0883
 Frc consts  --      2.5544                 6.5105                 6.5559
 IR Inten    --    204.7003                 4.4344                10.4921

                     64                     65                     66
                      A                      A                      A
 Frequencies --   3215.7373              3223.3419              3226.5652
 Red. masses --      1.0865                 1.0939                 1.0909
 Frc consts  --      6.6196                 6.6963                 6.6912
 IR Inten    --      1.8618                16.1432                 3.1392

                     67                     68                     69
                      A                      A                      A
 Frequencies --   3232.3494              3236.9084              3242.6485
 Red. masses --      1.0978                 1.0961                 1.0997
 Frc consts  --      6.7576                 6.7662                 6.8128
 IR Inten    --     20.0377                 7.7923                10.6618

 - Thermochemistry -
 -------------------
 Temperature   298.150 Kelvin.  Pressure   1.00000 Atm.
 Atom     1 has atomic number  6 and mass  12.00000

 Molecular mass:   227.04049 amu.
 Principal axes and moments of inertia in atomic units:
                           1         2         3
     Eigenvalues --  1309.571996247.307887556.87987
           X           -0.70605   0.70816  -0.00000
           Y            0.70816   0.70605  -0.00002
           Z            0.00001   0.00002   1.00000
 This molecule is an asymmetric top.
 Rotational symmetry number  1.
 Warning -- assumption of classical behavior for rotation
           may cause significant error
 Rotational temperatures (Kelvin)      0.06614     0.01386     0.01146
 Rotational constants (GHZ):           1.37812     0.28888     0.23882
    1 imaginary frequencies ignored.
 Zero-point vibrational energy     487428.0 (Joules/Mol)
                                  116.49809 (Kcal/Mol)
 Warning -- explicit consideration of  18 degrees of freedom as
           vibrations may cause significant error
 Vibrational temperatures:     72.99    94.14   195.79   217.27   287.78
          (Kelvin)            349.22   396.61   458.93   552.53   601.10
                              623.96   656.84   741.46   775.34   797.68
                              818.75   837.03   888.50   933.07   998.16
                             1030.75  1083.32  1102.97  1117.26  1123.21
                             1123.59  1224.57  1265.70  1272.70  1346.43
                             1392.46  1401.78  1456.74  1460.93  1462.10
                             1516.87  1520.27  1583.51  1658.44  1663.93
                             1676.90  1691.17  1705.29  1809.70  1855.53
                             1906.95  1962.42  1987.79  1991.04  2023.05
                             2150.98  2165.04  2195.07  2250.97  2285.42
                             2307.45  2390.99  2421.75  2462.03  2841.85
                             4581.66  4600.50  4626.73  4637.67  4642.31
                             4650.63  4657.19  4665.45

 Zero-point correction=                           0.185652 (Hartree/Particle)
 Thermal correction to Energy=                    0.197070
 Thermal correction to Enthalpy=                  0.198014
 Thermal correction to Gibbs Free Energy=         0.147364
 Sum of electronic and zero-point Energies=          -1028.628348
 Sum of electronic and thermal Energies=             -1028.616929
 Sum of electronic and thermal Enthalpies=           -1028.615985
 Sum of electronic and thermal Free Energies=        -1028.666635

                     E (Thermal)             CV                S
                      KCal/Mol        Cal/Mol-Kelvin    Cal/Mol-Kelvin
 Total                  123.663             46.573            106.603
 Electronic               0.000              0.000              0.000
 Translational            0.889              2.981             42.162
 Rotational               0.889              2.981             32.491
 Vibrational            121.886             40.612             31.949
 Vibration     1          0.595              1.977              4.789
 Vibration     2          0.597              1.971              4.286
 Vibration     3          0.614              1.917              2.858
 Vibration     4          0.618              1.902              2.659
 Vibration     5          0.638              1.840              2.133
 Vibration     6          0.659              1.775              1.783
 Vibration     7          0.677              1.718              1.560
 Vibration     8          0.705              1.637              1.315
 Vibration     9          0.753              1.504              1.023
 Vibration    10          0.781              1.432              0.900
 Vibration    11          0.794              1.397              0.847
 Vibration    12          0.815              1.346              0.776
 Vibration    13          0.870              1.216              0.621
 Vibration    14          0.894              1.164              0.568
 Vibration    15          0.910              1.130              0.535
 Vibration    16          0.925              1.098              0.506
 Vibration    17          0.939              1.071              0.482
 Vibration    18          0.977              0.995              0.420

 Optimization completed.
    -- Stationary point found.
 Normal termination of Gaussian 16 at Tue Oct 27 21:42:39 2020.
