 Gaussian 16, Revision C.01,
 Gaussian 16:  ES64L-G16RevC.01  3-Jul-2019

 ----------------------------------------------------------------------
 #p opt=addgic freq wb97xd/cc-pvdz nosymm int=ultrafine scrf=(solvent=C
 arbonTetraChloride)
 ----------------------------------------------------------------------

 ------------------------------------------------
 NM 2D-scan of HBT TD-WB97XD pVDZ in CTC Relaxed.
 ------------------------------------------------
 Symbolic Z-matrix:
 Charge =  0 Multiplicity = 1

 SCF Done:  E(RwB97XD) =  -1028.79715493     A.U. after   15 cycles
 SCF Done:  E(RwB97XD) =  -1028.82058041     A.U. after   13 cycles
 SCF Done:  E(RwB97XD) =  -1028.82255360     A.U. after   12 cycles
 SCF Done:  E(RwB97XD) =  -1028.82289914     A.U. after   11 cycles
 SCF Done:  E(RwB97XD) =  -1028.82292130     A.U. after   10 cycles
 SCF Done:  E(RwB97XD) =  -1028.82292349     A.U. after    9 cycles
 Optimization completed.
    -- Stationary point found.
 Normal termination of Gaussian 16 at Tue Oct 27 20:50:50 2020.

 --------------------------------------------------------------------
 #P Geom=AllCheck Guess=TCheck SCRF=Check GenChk RwB97XD/CC-pVDZ Freq
 --------------------------------------------------------------------

 Structure from the checkpoint file:  "config_4_2.chk"
 ------------------------------------------------
 NM 2D-scan of HBT TD-WB97XD pVDZ in CTC Relaxed.
 ------------------------------------------------
 Charge =  0 Multiplicity = 1

                          Input orientation:
 ---------------------------------------------------------------------
 Center     Atomic      Atomic             Coordinates (Angstroms)
 Number     Number       Type             X           Y           Z
 ---------------------------------------------------------------------
      1          6           0        1.755419   -3.297516   -0.000023
      2          6           0        0.986603   -2.124592   -0.000017
      3          6           0        1.636115   -0.880010   -0.000016
      4          6           0        3.029224   -0.765162   -0.000018
      5          6           0        3.783303   -1.922682   -0.000023
      6          6           0        3.144925   -3.175320   -0.000027
      7          1           0        1.290392   -4.283791   -0.000027
      8          1           0        3.480880    0.227289   -0.000015
      9          1           0        4.872715   -1.868288   -0.000026
     10          1           0        3.751388   -4.082518   -0.000033
     11          7           0        0.811397    0.208034   -0.000014
     12         16           0       -0.761739   -1.847281   -0.000020
     13          6           0       -1.408282    1.052267    0.000002
     14          6           0       -2.812099    0.920375   -0.000009
     15          6           0       -0.869750    2.380733    0.000029
     16          6           0       -3.650101    2.026914    0.000018
     17          1           0       -3.249220   -0.081360   -0.000037
     18          6           0       -1.732884    3.486203    0.000065
     19          6           0       -3.102088    3.317812    0.000060
     20          1           0       -4.731588    1.889126    0.000009
     21          1           0       -1.272295    4.474612    0.000093
     22          1           0       -3.755270    4.192422    0.000088
     23          6           0       -0.457268   -0.075974   -0.000011
     24          8           0        0.428868    2.685441    0.000027
     25          1           0        0.918470    1.823292    0.000017
 ---------------------------------------------------------------------

 SCF Done:  E(RwB97XD) =  -1028.82292349     A.U. after    1 cycles

 Alpha  occ. eigenvalues --  -89.09097 -19.27550 -14.46664 -10.39804 -10.37287
 Alpha  occ. eigenvalues --  -10.35152 -10.34692 -10.32750 -10.32612 -10.31845
 Alpha  occ. eigenvalues --  -10.31721 -10.31574 -10.31510 -10.31204 -10.30115
 Alpha  occ. eigenvalues --  -10.29781  -8.10983  -6.05858  -6.05497  -6.05019
 Alpha  occ. eigenvalues --   -1.16265  -1.09179  -0.97227  -0.95925  -0.91250
 Alpha  occ. eigenvalues --   -0.88548  -0.85200  -0.84361  -0.83012  -0.75513
 Alpha  occ. eigenvalues --   -0.71267  -0.70532  -0.69407  -0.68179  -0.62931
 Alpha  occ. eigenvalues --   -0.60479  -0.58701  -0.58263  -0.56226  -0.54431
 Alpha  occ. eigenvalues --   -0.54036  -0.53223  -0.52353  -0.51066  -0.50178
 Alpha  occ. eigenvalues --   -0.49453  -0.47742  -0.45879  -0.45277  -0.44933
 Alpha  occ. eigenvalues --   -0.43683  -0.42756  -0.42749  -0.39786  -0.36831
 Alpha  occ. eigenvalues --   -0.36149  -0.32291  -0.31599  -0.28883
 Alpha virt. eigenvalues --   -0.00487   0.04714   0.06931   0.07279   0.07343
 Alpha virt. eigenvalues --    0.11383   0.12753   0.15079   0.15854   0.17762
 Alpha virt. eigenvalues --    0.19018   0.20613   0.21730   0.22492   0.22700

 Mulliken charges:
               1
     1  C   -0.000111
     2  C   -0.222974
     3  C    0.250889
     4  C   -0.012639
     5  C    0.008713
     6  C   -0.001808
     7  H    0.021559
     8  H    0.019302
     9  H    0.020128
    10  H    0.022147
    11  N   -0.334027
    12  S    0.143498
    13  C   -0.087807
    14  C   -0.014105
    15  C    0.078201
    16  C   -0.011176
    17  H    0.007733
    18  C    0.012971
    19  C    0.020198
    20  H    0.009793
    21  H    0.015097
    22  H    0.017461
    23  C    0.080091
    24  O   -0.205069
    25  H    0.161933
 Sum of Mulliken charges =  -0.00000

 Dipole moment (field-independent basis, Debye):
    X=              0.3085    Y=             -2.4129    Z=             -0.0000  Tot=              2.4325
 Quadrupole moment (field-independent basis, Debye-Ang):
   XX=            -82.7128   YY=            -89.9705   ZZ=           -104.2315
   XY=             -7.0551   XZ=             -0.0001   YZ=              0.0003

  Exact polarizability:     275.999     -66.008     257.497      -0.001       0.003      63.131
 Approx polarizability:     263.949     -22.820     243.958      -0.000       0.002      82.321

                      1                      2                      3
                      A                      A                      A
 Frequencies --     35.4262                54.2657               118.8602
 Red. masses --      5.6189                 5.9043                 5.6822
 Frc consts  --      0.0042                 0.0102                 0.0473
 IR Inten    --      0.0319                 1.3088                 1.0617

                      4                      5                      6
                      A                      A                      A
 Frequencies --    151.1638               198.9465               244.6473
 Red. masses --      4.8558                 5.6929                 5.8129
 Frc consts  --      0.0654                 0.1328                 0.2050
 IR Inten    --      0.0118                 0.4198                 0.0767

                      7                      8                      9
                      A                      A                      A
 Frequencies --    267.8436               315.5632               324.3938
 Red. masses --      7.7175                 6.5004                 5.0934
 Frc consts  --      0.3262                 0.3814                 0.3158
 IR Inten    --      0.9033                 6.7933                 0.4823

                     10                     11                     12
                      A                      A                      A
 Frequencies --    398.4173               438.8316               466.5181
 Red. masses --      9.1976                 3.1499                 3.7281
 Frc consts  --      0.8602                 0.3574                 0.4780
 IR Inten    --      0.3194                 2.1715                 8.4969

                     13                     14                     15
                      A                      A                      A
 Frequencies --    512.3849               514.9874               539.4362
 Red. masses --      5.8202                 6.4831                 3.4833
 Frc consts  --      0.9003                 1.0130                 0.5972
 IR Inten    --      5.6241                 2.2338                 3.8686

                     16                     17                     18
                      A                      A                      A
 Frequencies --    547.1260               573.1031               594.5189
 Red. masses --      8.6403                 3.6838                 7.6829
 Frc consts  --      1.5239                 0.7129                 1.5999
 IR Inten    --      2.8393                 0.0486                 5.6917

                     19                     20                     21
                      A                      A                      A
 Frequencies --    645.2280               679.8335               696.6291
 Red. masses --      5.9210                 6.4659                 7.6779
 Frc consts  --      1.4524                 1.7607                 2.1953
 IR Inten    --      0.1195                19.6936                32.0570

                     22                     23                     24
                      A                      A                      A
 Frequencies --    725.3113               753.5500               760.4405
 Red. masses --      8.7007                 2.0650                 2.6788
 Frc consts  --      2.6968                 0.6909                 0.9127
 IR Inten    --      4.2806                30.0054                 1.1007

                     25                     26                     27
                      A                      A                      A
 Frequencies --    775.9854               784.8175               840.8951
 Red. masses --      1.3318                 1.8745                 6.0493
 Frc consts  --      0.4725                 0.6802                 2.5202
 IR Inten    --     68.5091                28.4161                22.3375

                     28                     29                     30
                      A                      A                      A
 Frequencies --    846.1142               884.7660               886.1618
 Red. masses --      1.1734                 1.5261                 1.4413
 Frc consts  --      0.4950                 0.7039                 0.6669
 IR Inten    --     72.7926                 6.6916                 1.5027

                     31                     32                     33
                      A                      A                      A
 Frequencies --    901.5232               972.1009               974.9246
 Red. masses --      6.4849                 1.3549                 1.3635
 Frc consts  --      3.1053                 0.7543                 0.7636
 IR Inten    --      0.4449                 1.1962                 1.6171

                     34                     35                     36
                      A                      A                      A
 Frequencies --    980.9002              1011.0225              1014.8385
 Red. masses --      7.5487                 1.2991                 1.3059
 Frc consts  --      4.2793                 0.7824                 0.7924
 IR Inten    --     70.4275                 0.3166                 0.0150

                     37                     38                     39
                      A                      A                      A
 Frequencies --   1050.3543              1068.2822              1089.2655
 Red. masses --      2.0474                 2.0087                 4.6478
 Frc consts  --      1.3308                 1.3506                 3.2491
 IR Inten    --      8.1766                12.5496                 5.7084

                     40                     41                     42
                      A                      A                      A
 Frequencies --   1144.1280              1150.7351              1174.0443
 Red. masses --      1.5388                 1.2709                 1.1214
 Frc consts  --      1.1868                 0.9916                 0.9107
 IR Inten    --     10.9118                 4.9030                50.3069

                     43                     44                     45
                      A                      A                      A
 Frequencies --   1182.8140              1243.2602              1282.9085
 Red. masses --      1.1764                 1.8835                 1.5607
 Frc consts  --      0.9697                 1.7153                 1.5134
 IR Inten    --      0.1379               155.6988                 0.0605

                     46                     47                     48
                      A                      A                      A
 Frequencies --   1284.8117              1314.3224              1356.3044
 Red. masses --      2.2378                 5.4627                 3.2136
 Frc consts  --      2.1764                 5.5598                 3.4831
 IR Inten    --    108.4587                10.7815                16.8845

                     49                     50                     51
                      A                      A                      A
 Frequencies --   1370.8202              1380.3662              1455.6284
 Red. masses --      7.2693                 2.9719                 1.7733
 Frc consts  --      8.0483                 3.3363                 2.2138
 IR Inten    --     19.0450                 9.0847                50.4119

                     52                     53                     54
                      A                      A                      A
 Frequencies --   1491.4793              1494.1673              1520.5741
 Red. masses --      2.6714                 3.2261                 3.5734
 Frc consts  --      3.5013                 4.2435                 4.8680
 IR Inten    --     11.3531                37.2450               131.7916

                     55                     56                     57
                      A                      A                      A
 Frequencies --   1550.7354              1597.8893              1646.0906
 Red. masses --      2.4158                 7.9556                 6.1535
 Frc consts  --      3.4228                11.9678                 9.8239
 IR Inten    --     53.2434               217.0391                18.5069

                     58                     59                     60
                      A                      A                      A
 Frequencies --   1656.0470              1682.3511              1707.4967
 Red. masses --      4.4049                 6.8250                 6.2265
 Frc consts  --      7.1176                11.3811                10.6959
 IR Inten    --    128.8829                15.1651               110.4450

                     61                     62                     63
                      A                      A                      A
 Frequencies --   3192.4639              3207.2518              3210.9719
 Red. masses --      1.0892                 1.0883                 1.0861
 Frc consts  --      6.5407                 6.5955                 6.5977
 IR Inten    --      2.0008                18.9923                 0.5358

                     64                     65                     66
                      A                      A                      A
 Frequencies --   3221.5550              3227.3599              3230.3423
 Red. masses --      1.0901                 1.0938                 1.0959
 Frc consts  --      6.6656                 6.7127                 6.7376
 IR Inten    --      8.0573                15.2268                30.7402

                     67                     68                     69
                      A                      A                      A
 Frequencies --   3234.6200              3238.2801              3242.8145
 Red. masses --      1.0993                 1.1001                 1.0683
 Frc consts  --      6.7768                 6.7970                 6.6188
 IR Inten    --     14.0913                21.0950               961.4741

 - Thermochemistry -
 -------------------
 Temperature   298.150 Kelvin.  Pressure   1.00000 Atm.
 Atom     1 has atomic number  6 and mass  12.00000

 Molecular mass:   227.04049 amu.
 Principal axes and moments of inertia in atomic units:
                           1         2         3
     Eigenvalues --  1347.463576328.463817675.92739
           X           -0.69735   0.71673  -0.00000
           Y            0.71673   0.69735  -0.00001
           Z            0.00001   0.00001   1.00000
 This molecule is an asymmetric top.
 Rotational symmetry number  1.
 Warning -- assumption of classical behavior for rotation
           may cause significant error
 Rotational temperatures (Kelvin)      0.06428     0.01369     0.01128
 Rotational constants (GHZ):           1.33936     0.28518     0.23512
 Zero-point vibrational energy     498436.1 (Joules/Mol)
                                  119.12909 (Kcal/Mol)
 Warning -- explicit consideration of  18 degrees of freedom as
           vibrations may cause significant error
 Vibrational temperatures:     50.97    78.08   171.01   217.49   286.24
          (Kelvin)            351.99   385.37   454.03   466.73   573.23
                              631.38   671.22   737.21   740.95   776.13
                              787.19   824.57   855.38   928.34   978.13
                             1002.29  1043.56  1084.19  1094.10  1116.47
                             1129.18  1209.86  1217.37  1272.98  1274.99
                             1297.09  1398.64  1402.70  1411.30  1454.64
                             1460.13  1511.23  1537.02  1567.21  1646.15
                             1655.65  1689.19  1701.81  1788.77  1845.82
                             1848.56  1891.02  1951.42  1972.30  1986.04
                             2094.32  2145.91  2149.77  2187.77  2231.16
                             2299.01  2368.36  2382.68  2420.53  2456.71
                             4593.24  4614.52  4619.87  4635.10  4643.45
                             4647.74  4653.90  4659.16  4665.69

 Zero-point correction=                           0.189844 (Hartree/Particle)
 Thermal correction to Energy=                    0.201601
 Thermal correction to Enthalpy=                  0.202545
 Thermal correction to Gibbs Free Energy=         0.150834
 Sum of electronic and zero-point Energies=          -1028.633079
 Sum of electronic and thermal Energies=             -1028.621322
 Sum of electronic and thermal Enthalpies=           -1028.620378
 Sum of electronic and thermal Free Energies=        -1028.672089

                     E (Thermal)             CV                S
                      KCal/Mol        Cal/Mol-Kelvin    Cal/Mol-Kelvin
 Total                  126.507             47.734            108.835
 Electronic               0.000              0.000              0.000
 Translational            0.889              2.981             42.162
 Rotational               0.889              2.981             32.548
 Vibrational            124.729             41.772             34.125
 Vibration     1          0.594              1.982              5.500
 Vibration     2          0.596              1.976              4.656
 Vibration     3          0.609              1.934              3.119
 Vibration     4          0.619              1.901              2.658
 Vibration     5          0.637              1.841              2.143
 Vibration     6          0.660              1.772              1.769
 Vibration     7          0.673              1.732              1.610
 Vibration     8          0.703              1.644              1.333
 Vibration     9          0.709              1.627              1.288
 Vibration    10          0.765              1.474              0.968
 Vibration    11          0.799              1.386              0.830
 Vibration    12          0.824              1.324              0.747
 Vibration    13          0.867              1.223              0.628
 Vibration    14          0.870              1.217              0.622
 Vibration    15          0.894              1.163              0.566
 Vibration    16          0.902              1.146              0.550
 Vibration    17          0.929              1.089              0.498
 Vibration    18          0.952              1.043              0.459

 Optimization completed.
    -- Stationary point found.
 Normal termination of Gaussian 16 at Tue Oct 27 20:58:05 2020.
