 Gaussian 16, Revision C.01,
 Gaussian 16:  ES64L-G16RevC.01  3-Jul-2019

 ----------------------------------------------------------------------
 #p opt=addgic freq wb97xd/cc-pvdz nosymm int=ultrafine scrf=(solvent=C
 arbonTetraChloride)
 ----------------------------------------------------------------------

 ------------------------------------------------
 NM 2D-scan of HBT TD-WB97XD pVDZ in CTC Relaxed.
 ------------------------------------------------
 Symbolic Z-matrix:
 Charge =  0 Multiplicity = 1

 SCF Done:  E(RwB97XD) =  -1028.78481675     A.U. after   15 cycles
 SCF Done:  E(RwB97XD) =  -1028.82511574     A.U. after   13 cycles
 SCF Done:  E(RwB97XD) =  -1028.82825211     A.U. after   13 cycles
 SCF Done:  E(RwB97XD) =  -1028.82879059     A.U. after   11 cycles
 SCF Done:  E(RwB97XD) =  -1028.82886454     A.U. after   10 cycles
 SCF Done:  E(RwB97XD) =  -1028.82887562     A.U. after    9 cycles
 Optimization completed.
    -- Stationary point found.
 Normal termination of Gaussian 16 at Wed Oct 28 01:10:56 2020.

 --------------------------------------------------------------------
 #P Geom=AllCheck Guess=TCheck SCRF=Check GenChk RwB97XD/CC-pVDZ Freq
 --------------------------------------------------------------------

 Structure from the checkpoint file:  "config_2_18.chk"
 ------------------------------------------------
 NM 2D-scan of HBT TD-WB97XD pVDZ in CTC Relaxed.
 ------------------------------------------------
 Charge =  0 Multiplicity = 1

                          Input orientation:
 ---------------------------------------------------------------------
 Center     Atomic      Atomic             Coordinates (Angstroms)
 Number     Number       Type             X           Y           Z
 ---------------------------------------------------------------------
      1          6           0        1.530157   -3.285818   -0.000029
      2          6           0        0.987392   -2.001956   -0.000012
      3          6           0        1.777696   -0.837186   -0.000017
      4          6           0        3.173928   -0.976170   -0.000046
      5          6           0        3.722014   -2.255112   -0.000061
      6          6           0        2.912044   -3.402565   -0.000053
      7          1           0        0.885941   -4.165529   -0.000026
      8          1           0        3.810213   -0.090351   -0.000050
      9          1           0        4.807187   -2.368851   -0.000081
     10          1           0        3.371749   -4.391900   -0.000067
     11          7           0        1.042150    0.347736    0.000014
     12         16           0       -0.697068   -1.576868    0.000014
     13          6           0       -1.288454    1.130402    0.000070
     14          6           0       -2.642087    0.757892    0.000072
     15          6           0       -0.935723    2.497318    0.000049
     16          6           0       -3.648915    1.706460    0.000023
     17          1           0       -2.910680   -0.300451    0.000097
     18          6           0       -1.965443    3.455779   -0.000016
     19          6           0       -3.297492    3.061733   -0.000031
     20          1           0       -4.694851    1.399924    0.000017
     21          1           0       -1.690046    4.511154   -0.000038
     22          1           0       -4.078270    3.824794   -0.000075
     23          6           0       -0.243818    0.112073    0.000052
     24          8           0        0.340659    2.886864    0.000114
     25          1           0        0.906870    2.067761    0.000205
 ---------------------------------------------------------------------

 SCF Done:  E(RwB97XD) =  -1028.82887562     A.U. after    1 cycles

 Alpha  occ. eigenvalues --  -89.08333 -19.28427 -14.47164 -10.39271 -10.37486
 Alpha  occ. eigenvalues --  -10.35065 -10.34552 -10.32176 -10.32165 -10.31883
 Alpha  occ. eigenvalues --  -10.31722 -10.31547 -10.31534 -10.31440 -10.30373
 Alpha  occ. eigenvalues --  -10.30349  -8.10463  -6.05305  -6.04948  -6.04516
 Alpha  occ. eigenvalues --   -1.16643  -1.08743  -0.97328  -0.96326  -0.91804
 Alpha  occ. eigenvalues --   -0.88578  -0.85500  -0.84712  -0.82831  -0.75464
 Alpha  occ. eigenvalues --   -0.71618  -0.70679  -0.69395  -0.68096  -0.63304
 Alpha  occ. eigenvalues --   -0.60510  -0.58829  -0.58536  -0.56574  -0.54571
 Alpha  occ. eigenvalues --   -0.54026  -0.53243  -0.52991  -0.50747  -0.50477
 Alpha  occ. eigenvalues --   -0.49149  -0.47580  -0.45927  -0.45498  -0.45050
 Alpha  occ. eigenvalues --   -0.44066  -0.43078  -0.42407  -0.39726  -0.37427
 Alpha  occ. eigenvalues --   -0.36217  -0.32030  -0.31752  -0.29260
 Alpha virt. eigenvalues --   -0.00455   0.04896   0.06744   0.07068   0.08148
 Alpha virt. eigenvalues --    0.11438   0.14498   0.15267   0.17143   0.18110
 Alpha virt. eigenvalues --    0.18894   0.20931   0.21518   0.22546   0.22781

 Mulliken charges:
               1
     1  C    0.015235
     2  C   -0.206642
     3  C    0.207440
     4  C   -0.019009
     5  C    0.003054
     6  C    0.002057
     7  H    0.017739
     8  H    0.018493
     9  H    0.019648
    10  H    0.021089
    11  N   -0.354276
    12  S    0.144102
    13  C   -0.038738
    14  C   -0.033566
    15  C    0.062378
    16  C   -0.003730
    17  H    0.022981
    18  C    0.005891
    19  C    0.021312
    20  H    0.010091
    21  H    0.017836
    22  H    0.019382
    23  C    0.085972
    24  O   -0.203187
    25  H    0.164446
 Sum of Mulliken charges =  -0.00000

 Dipole moment (field-independent basis, Debye):
    X=             -0.2914    Y=             -2.4963    Z=              0.0000  Tot=              2.5133
 Quadrupole moment (field-independent basis, Debye-Ang):
   XX=            -82.7112   YY=            -90.1262   ZZ=           -104.0571
   XY=             -7.2062   XZ=              0.0001   YZ=             -0.0000

  Exact polarizability:     272.910     -67.175     253.767      -0.001       0.000      62.872
 Approx polarizability:     261.163     -22.801     241.719      -0.001      -0.000      82.133

                      1                      2                      3
                      A                      A                      A
 Frequencies --     26.0389                63.3195               129.0190
 Red. masses --      5.5946                 5.6316                 5.7095
 Frc consts  --      0.0022                 0.0133                 0.0560
 IR Inten    --      0.0890                 1.0846                 1.5905

                      4                      5                      6
                      A                      A                      A
 Frequencies --    151.1801               197.5348               246.3949
 Red. masses --      5.0195                 6.0665                 5.5620
 Frc consts  --      0.0676                 0.1395                 0.1990
 IR Inten    --      0.0321                 0.8307                 0.0107

                      7                      8                      9
                      A                      A                      A
 Frequencies --    277.5376               310.5305               330.3032
 Red. masses --      7.8856                 6.3514                 5.0645
 Frc consts  --      0.3579                 0.3608                 0.3255
 IR Inten    --      1.7064                 7.1348                 0.0450

                     10                     11                     12
                      A                      A                      A
 Frequencies --    417.4916               438.1076               467.5429
 Red. masses --      9.6037                 3.1073                 3.6400
 Frc consts  --      0.9862                 0.3514                 0.4688
 IR Inten    --      0.3003                 1.7381                 8.0844

                     13                     14                     15
                      A                      A                      A
 Frequencies --    518.0145               521.5241               536.5968
 Red. masses --      8.3599                 5.4453                 3.4466
 Frc consts  --      1.3217                 0.8726                 0.5847
 IR Inten    --      0.2143                 8.2437                 3.6865

                     16                     17                     18
                      A                      A                      A
 Frequencies --    553.4639               576.8039               591.1482
 Red. masses --      7.7347                 3.7563                 7.7004
 Frc consts  --      1.3960                 0.7363                 1.5855
 IR Inten    --      1.8713                 0.0201                 5.4827

                     19                     20                     21
                      A                      A                      A
 Frequencies --    646.7693               678.2674               731.9677
 Red. masses --      5.9975                 6.6941                 6.6494
 Frc consts  --      1.4782                 1.8145                 2.0990
 IR Inten    --      0.0535                 3.0730                21.7990

                     22                     23                     24
                      A                      A                      A
 Frequencies --    744.7594               756.6167               762.9632
 Red. masses --      9.9513                 1.9144                 3.0581
 Frc consts  --      3.2521                 0.6457                 1.0488
 IR Inten    --     14.2690                33.7198                 0.9566

                     25                     26                     27
                      A                      A                      A
 Frequencies --    774.3112               787.1140               841.0867
 Red. masses --      1.3166                 1.9942                 1.1378
 Frc consts  --      0.4651                 0.7279                 0.4742
 IR Inten    --     65.2160                35.7121                77.3107

                     28                     29                     30
                      A                      A                      A
 Frequencies --    850.4068               882.3665               887.7599
 Red. masses --      6.0840                 1.5464                 6.5598
 Frc consts  --      2.5923                 0.7094                 3.0460
 IR Inten    --     17.3229                 3.6496                 4.5907

                     31                     32                     33
                      A                      A                      A
 Frequencies --    887.8120               967.6996               975.8951
 Red. masses --      1.4189                 1.3658                 1.3673
 Frc consts  --      0.6589                 0.7536                 0.7672
 IR Inten    --      1.1747                 0.9854                 1.6672

                     34                     35                     36
                      A                      A                      A
 Frequencies --   1000.5764              1011.5051              1015.2678
 Red. masses --      7.7948                 1.3046                 1.3056
 Frc consts  --      4.5978                 0.7864                 0.7929
 IR Inten    --     50.3668                 0.4446                 0.0222

                     37                     38                     39
                      A                      A                      A
 Frequencies --   1051.4714              1075.3276              1107.1649
 Red. masses --      1.9898                 1.9263                 3.4474
 Frc consts  --      1.2961                 1.3124                 2.4898
 IR Inten    --      8.6113                 8.0297                 6.3307

                     40                     41                     42
                      A                      A                      A
 Frequencies --   1157.2771              1158.0631              1180.9685
 Red. masses --      1.3904                 1.3867                 1.2165
 Frc consts  --      1.0972                 1.0957                 0.9996
 IR Inten    --      3.9044                 5.2172                24.5809

                     43                     44                     45
                      A                      A                      A
 Frequencies --   1186.2858              1258.4661              1279.1095
 Red. masses --      1.2883                 2.3284                 2.3055
 Frc consts  --      1.0682                 2.1726                 2.2224
 IR Inten    --     11.1219               142.7128                50.7632

                     46                     47                     48
                      A                      A                      A
 Frequencies --   1298.6895              1323.9560              1346.6821
 Red. masses --      1.7224                 2.3168                 3.8554
 Frc consts  --      1.7116                 2.3927                 4.1196
 IR Inten    --     50.5945                26.9261                25.7887

                     49                     50                     51
                      A                      A                      A
 Frequencies --   1370.9577              1379.6200              1476.2401
 Red. masses --      7.4746                 4.8881                 2.1625
 Frc consts  --      8.2772                 5.4817                 2.7767
 IR Inten    --     13.5741                13.2641                21.3015

                     52                     53                     54
                      A                      A                      A
 Frequencies --   1486.9499              1504.2718              1541.8872
 Red. masses --      2.5373                 2.8938                 3.2072
 Frc consts  --      3.3053                 3.8581                 4.4924
 IR Inten    --     52.0950                17.7570                91.7534

                     55                     56                     57
                      A                      A                      A
 Frequencies --   1562.1344              1591.6718              1646.0028
 Red. masses --      2.1312                 5.2804                 6.8161
 Frc consts  --      3.0641                 7.8817                10.8805
 IR Inten    --    187.4413               132.8435                 4.7247

                     58                     59                     60
                      A                      A                      A
 Frequencies --   1675.7335              1680.0030              1710.3414
 Red. masses --      4.4666                 5.8980                 4.6665
 Frc consts  --      7.3898                 9.8078                 8.0428
 IR Inten    --    106.6138                44.8623               122.4094

                     61                     62                     63
                      A                      A                      A
 Frequencies --   3207.6160              3208.6701              3213.3310
 Red. masses --      1.0862                 1.0860                 1.0900
 Frc consts  --      6.5843                 6.5877                 6.6312
 IR Inten    --      0.3076                 1.4596                13.8233

                     64                     65                     66
                      A                      A                      A
 Frequencies --   3219.1599              3228.9494              3229.5489
 Red. masses --      1.0903                 1.0959                 1.0944
 Frc consts  --      6.6571                 6.7321                 6.7255
 IR Inten    --      4.7465                10.8445                11.6173

                     67                     68                     69
                      A                      A                      A
 Frequencies --   3235.5745              3239.2895              3252.7047
 Red. masses --      1.0998                 1.0994                 1.0689
 Frc consts  --      6.7839                 6.7965                 6.6629
 IR Inten    --     25.0337                19.5085               812.7377

 - Thermochemistry -
 -------------------
 Temperature   298.150 Kelvin.  Pressure   1.00000 Atm.
 Atom     1 has atomic number  6 and mass  12.00000

 Molecular mass:   227.04049 amu.
 Principal axes and moments of inertia in atomic units:
                           1         2         3
     Eigenvalues --  1286.274406342.376647628.65104
           X           -0.69907   0.71506   0.00000
           Y            0.71506   0.69907  -0.00001
           Z            0.00001   0.00000   1.00000
 This molecule is an asymmetric top.
 Rotational symmetry number  1.
 Warning -- assumption of classical behavior for rotation
           may cause significant error
 Rotational temperatures (Kelvin)      0.06734     0.01366     0.01135
 Rotational constants (GHZ):           1.40308     0.28455     0.23657
 Zero-point vibrational energy     500277.2 (Joules/Mol)
                                  119.56912 (Kcal/Mol)
 Warning -- explicit consideration of  18 degrees of freedom as
           vibrations may cause significant error
 Vibrational temperatures:     37.46    91.10   185.63   217.51   284.21
          (Kelvin)            354.51   399.31   446.78   475.23   600.68
                              630.34   672.69   745.31   750.36   772.04
                              796.31   829.89   850.53   930.56   975.88
                             1053.14  1071.54  1088.60  1097.73  1114.06
                             1132.48  1210.14  1223.55  1269.53  1277.29
                             1277.36  1392.30  1404.10  1439.61  1455.33
                             1460.74  1512.83  1547.16  1592.96  1665.06
                             1666.19  1699.15  1706.80  1810.65  1840.35
                             1868.52  1904.88  1937.58  1972.50  1984.97
                             2123.98  2139.39  2164.31  2218.43  2247.56
                             2290.06  2368.23  2411.01  2417.15  2460.80
                             4615.04  4616.56  4623.27  4631.65  4645.74
                             4646.60  4655.27  4660.62  4679.92

 Zero-point correction=                           0.190546 (Hartree/Particle)
 Thermal correction to Energy=                    0.202211
 Thermal correction to Enthalpy=                  0.203155
 Thermal correction to Gibbs Free Energy=         0.151519
 Sum of electronic and zero-point Energies=          -1028.638330
 Sum of electronic and thermal Energies=             -1028.626664
 Sum of electronic and thermal Enthalpies=           -1028.625720
 Sum of electronic and thermal Free Energies=        -1028.677356

                     E (Thermal)             CV                S
                      KCal/Mol        Cal/Mol-Kelvin    Cal/Mol-Kelvin
 Total                  126.889             47.431            108.677
 Electronic               0.000              0.000              0.000
 Translational            0.889              2.981             42.162
 Rotational               0.889              2.981             32.498
 Vibrational            125.112             41.469             34.017
 Vibration     1          0.593              1.985              6.110
 Vibration     2          0.597              1.972              4.351
 Vibration     3          0.612              1.924              2.961
 Vibration     4          0.619              1.901              2.657
 Vibration     5          0.637              1.843              2.156
 Vibration     6          0.661              1.769              1.756
 Vibration     7          0.679              1.715              1.549
 Vibration     8          0.699              1.654              1.360
 Vibration     9          0.713              1.615              1.259
 Vibration    10          0.781              1.432              0.901
 Vibration    11          0.798              1.387              0.833
 Vibration    12          0.825              1.322              0.744
 Vibration    13          0.873              1.210              0.615
 Vibration    14          0.876              1.202              0.606
 Vibration    15          0.892              1.169              0.573
 Vibration    16          0.909              1.132              0.537
 Vibration    17          0.933              1.081              0.491
 Vibration    18          0.949              1.051              0.465

 Optimization completed.
    -- Stationary point found.
 Normal termination of Gaussian 16 at Wed Oct 28 01:16:54 2020.
