 Gaussian 16, Revision C.01,
 Gaussian 16:  ES64L-G16RevC.01  3-Jul-2019

 ----------------------------------------------------------------------
 #p opt=addgic freq wb97xd/cc-pvdz nosymm int=ultrafine scrf=(solvent=C
 arbonTetraChloride)
 ----------------------------------------------------------------------

 ------------------------------------------------
 NM 2D-scan of HBT TD-WB97XD pVDZ in CTC Relaxed.
 ------------------------------------------------
 Symbolic Z-matrix:
 Charge =  0 Multiplicity = 1

 SCF Done:  E(RwB97XD) =  -1028.79155981     A.U. after   16 cycles
 SCF Done:  E(RwB97XD) =  -1028.80556972     A.U. after   14 cycles
 SCF Done:  E(RwB97XD) =  -1028.80698876     A.U. after   13 cycles
 SCF Done:  E(RwB97XD) =  -1028.80731923     A.U. after   12 cycles
 SCF Done:  E(RwB97XD) =  -1028.80736342     A.U. after   10 cycles
 SCF Done:  E(RwB97XD) =  -1028.80736950     A.U. after   10 cycles
 SCF Done:  E(RwB97XD) =  -1028.80736997     A.U. after    9 cycles
 Optimization completed.
    -- Stationary point found.
 Normal termination of Gaussian 16 at Wed Oct 28 02:00:26 2020.

 --------------------------------------------------------------------
 #P Geom=AllCheck Guess=TCheck SCRF=Check GenChk RwB97XD/CC-pVDZ Freq
 --------------------------------------------------------------------

 Structure from the checkpoint file:  "config_8_19.chk"
 ------------------------------------------------
 NM 2D-scan of HBT TD-WB97XD pVDZ in CTC Relaxed.
 ------------------------------------------------
 Charge =  0 Multiplicity = 1

                          Input orientation:
 ---------------------------------------------------------------------
 Center     Atomic      Atomic             Coordinates (Angstroms)
 Number     Number       Type             X           Y           Z
 ---------------------------------------------------------------------
      1          6           0        1.508145   -3.265288    0.000259
      2          6           0        0.988238   -1.975194    0.000068
      3          6           0        1.798100   -0.823698   -0.000193
      4          6           0        3.187383   -0.980055   -0.000299
      5          6           0        3.712761   -2.272817   -0.000097
      6          6           0        2.889874   -3.407136    0.000185
      7          1           0        0.846066   -4.131644    0.000452
      8          1           0        3.843479   -0.109253   -0.000516
      9          1           0        4.796206   -2.399752   -0.000164
     10          1           0        3.333662   -4.403273    0.000328
     11          7           0        1.036223    0.355393   -0.000340
     12         16           0       -0.702251   -1.554485    0.000049
     13          6           0       -1.283422    1.126517   -0.000017
     14          6           0       -2.655566    0.732538   -0.000150
     15          6           0       -0.891542    2.522206    0.000213
     16          6           0       -3.652505    1.659834   -0.000175
     17          1           0       -2.913800   -0.329414   -0.000293
     18          6           0       -1.990981    3.461694    0.000280
     19          6           0       -3.294275    3.041447    0.000027
     20          1           0       -4.700116    1.360013   -0.000319
     21          1           0       -1.738197    4.523410    0.000587
     22          1           0       -4.091196    3.789513    0.000059
     23          6           0       -0.286964    0.139048   -0.000101
     24          8           0        0.323370    2.881934    0.000914
     25          1           0        1.231587    1.406478   -0.000650
 ---------------------------------------------------------------------

 SCF Done:  E(RwB97XD) =  -1028.80736997     A.U. after    1 cycles

 Alpha  occ. eigenvalues --  -89.09565 -19.21872 -14.52267 -10.40994 -10.37651
 Alpha  occ. eigenvalues --  -10.36164 -10.35843 -10.33101 -10.32963 -10.32430
 Alpha  occ. eigenvalues --  -10.32255 -10.31237 -10.30903 -10.30330 -10.29295
 Alpha  occ. eigenvalues --  -10.28810  -8.11686  -6.06553  -6.06182  -6.05694
 Alpha  occ. eigenvalues --   -1.12493  -1.09524  -0.98498  -0.95651  -0.93234
 Alpha  occ. eigenvalues --   -0.89172  -0.86753  -0.83655  -0.82086  -0.75556
 Alpha  occ. eigenvalues --   -0.72624  -0.72171  -0.68704  -0.67849  -0.64770
 Alpha  occ. eigenvalues --   -0.60915  -0.59682  -0.56916  -0.55678  -0.55674
 Alpha  occ. eigenvalues --   -0.55015  -0.53980  -0.52947  -0.50062  -0.49729
 Alpha  occ. eigenvalues --   -0.49045  -0.48239  -0.46764  -0.45570  -0.44852
 Alpha  occ. eigenvalues --   -0.44445  -0.42941  -0.41929  -0.40458  -0.36754
 Alpha  occ. eigenvalues --   -0.33486  -0.32256  -0.31558  -0.26622
 Alpha virt. eigenvalues --   -0.01199   0.03886   0.05655   0.07082   0.09064
 Alpha virt. eigenvalues --    0.11175   0.14295   0.14944   0.16472   0.17609
 Alpha virt. eigenvalues --    0.18528   0.20061   0.20676   0.21471   0.22548

 Mulliken charges:
               1
     1  C    0.020337
     2  C   -0.222060
     3  C    0.254962
     4  C   -0.013194
     5  C    0.006890
     6  C    0.005174
     7  H    0.024143
     8  H    0.029848
     9  H    0.026346
    10  H    0.025774
    11  N   -0.179674
    12  S    0.182213
    13  C   -0.090320
    14  C   -0.023008
    15  C    0.104127
    16  C   -0.027142
    17  H    0.017790
    18  C   -0.019859
    19  C    0.026216
    20  H    0.002831
    21  H    0.003981
    22  H    0.014390
    23  C    0.068670
    24  O   -0.401173
    25  H    0.162737
 Sum of Mulliken charges =  -0.00000

 Dipole moment (field-independent basis, Debye):
    X=              1.4886    Y=             -5.2862    Z=             -0.0024  Tot=              5.4918
 Quadrupole moment (field-independent basis, Debye-Ang):
   XX=            -81.6777   YY=            -95.9480   ZZ=           -104.0206
   XY=             -6.8185   XZ=             -0.0024   YZ=             -0.0073

  Exact polarizability:     284.135     -84.817     282.008      -0.000       0.004      62.806
 Approx polarizability:     264.253     -30.394     255.532       0.004       0.003      81.908

                      1                      2                      3
                      A                      A                      A
 Frequencies --     49.9598                70.2707                83.2089
 Red. masses --      6.0912                 4.5209                 5.7507
 Frc consts  --      0.0090                 0.0132                 0.0235
 IR Inten    --      1.3572                 0.4159                 6.1284

                      4                      5                      6
                      A                      A                      A
 Frequencies --    140.7711               198.4370               233.6398
 Red. masses --      5.3362                 6.2458                 6.1510
 Frc consts  --      0.0623                 0.1449                 0.1978
 IR Inten    --      1.8655                 0.0051                 1.0043

                      7                      8                      9
                      A                      A                      A
 Frequencies --    247.4847               298.3081               309.6748
 Red. masses --      6.9984                 6.5336                 5.3823
 Frc consts  --      0.2525                 0.3426                 0.3041
 IR Inten    --     12.5098                 0.5623                 0.3966

                     10                     11                     12
                      A                      A                      A
 Frequencies --    416.4456               428.4712               451.3242
 Red. masses --      9.6913                 3.2173                 3.5198
 Frc consts  --      0.9903                 0.3480                 0.4224
 IR Inten    --      2.4907                 0.0000                10.4832

                     13                     14                     15
                      A                      A                      A
 Frequencies --    514.1045               525.3119               526.2070
 Red. masses --      8.6792                 2.7267                 5.7661
 Frc consts  --      1.3515                 0.4433                 0.9407
 IR Inten    --     11.8163                 5.1241                 3.7352

                     16                     17                     18
                      A                      A                      A
 Frequencies --    551.2498               561.5319               580.1757
 Red. masses --      7.5207                 3.8736                 6.7814
 Frc consts  --      1.3465                 0.7196                 1.3449
 IR Inten    --     12.9190                 0.0625                34.2293

                     19                     20                     21
                      A                      A                      A
 Frequencies --    638.4191               641.5674               728.8292
 Red. masses --      5.8357                 5.6683                 5.6702
 Frc consts  --      1.4014                 1.3746                 1.7746
 IR Inten    --      0.1575                 4.8770                28.0114

                     22                     23                     24
                      A                      A                      A
 Frequencies --    732.4984               750.2612               758.9941
 Red. masses --      8.0151                 2.7537                 1.4275
 Frc consts  --      2.5338                 0.9132                 0.4845
 IR Inten    --     84.3444                 8.2821                58.7332

                     25                     26                     27
                      A                      A                      A
 Frequencies --    774.5437               778.1451               818.5133
 Red. masses --      1.6156                 2.3310                 3.8930
 Frc consts  --      0.5710                 0.8316                 1.5367
 IR Inten    --     30.2286                28.5270                20.5816

                     28                     29                     30
                      A                      A                      A
 Frequencies --    851.7600               876.7297               884.0984
 Red. masses --      5.2275                 1.9121                 1.3729
 Frc consts  --      2.2345                 0.8659                 0.6322
 IR Inten    --     12.0958                 8.1638                 1.3259

                     31                     32                     33
                      A                      A                      A
 Frequencies --    948.9882               960.4797               963.5592
 Red. masses --      1.1109                 4.6874                 1.3263
 Frc consts  --      0.5894                 2.5478                 0.7255
 IR Inten    --     88.7453                29.9643                 0.0001

                     34                     35                     36
                      A                      A                      A
 Frequencies --    970.5993              1013.5463              1018.9991
 Red. masses --      1.3594                 1.3050                 1.3091
 Frc consts  --      0.7545                 0.7899                 0.8009
 IR Inten    --      0.0555                 0.0515                 0.4953

                     37                     38                     39
                      A                      A                      A
 Frequencies --   1034.8183              1054.8724              1080.9146
 Red. masses --      2.2227                 2.0473                 3.3726
 Frc consts  --      1.4023                 1.3423                 2.3216
 IR Inten    --     19.7348                10.7386                31.3012

                     40                     41                     42
                      A                      A                      A
 Frequencies --   1134.8884              1163.6085              1166.8109
 Red. masses --      2.0182                 1.2539                 1.4378
 Frc consts  --      1.5315                 1.0003                 1.1533
 IR Inten    --     45.1761                36.1873                12.5319

                     43                     44                     45
                      A                      A                      A
 Frequencies --   1179.6338              1197.0642              1246.4932
 Red. masses --      1.1770                 1.3345                 1.9778
 Frc consts  --      0.9650                 1.1267                 1.8106
 IR Inten    --     19.8506                10.6504                30.7593

                     46                     47                     48
                      A                      A                      A
 Frequencies --   1285.3864              1313.7776              1349.0390
 Red. masses --      1.7282                 2.4072                 3.5195
 Frc consts  --      1.6824                 2.4480                 3.7738
 IR Inten    --     35.1806                98.3438                24.0165

                     49                     50                     51
                      A                      A                      A
 Frequencies --   1369.2165              1399.3682              1422.0226
 Red. masses --      4.2929                 3.6190                 3.3404
 Frc consts  --      4.7418                 4.1755                 3.9798
 IR Inten    --     53.4309                35.8328                63.5454

                     52                     53                     54
                      A                      A                      A
 Frequencies --   1489.5782              1500.0659              1511.0538
 Red. masses --      2.6018                 2.6796                 3.1137
 Frc consts  --      3.4013                 3.5525                 4.1888
 IR Inten    --     16.1036                50.4310                 8.0722

                     55                     56                     57
                      A                      A                      A
 Frequencies --   1579.5139              1594.1644              1633.7197
 Red. masses --      4.3452                 5.4402                 9.0358
 Frc consts  --      6.3872                 8.1458                14.2092
 IR Inten    --   1840.9960                92.1075               557.2775

                     58                     59                     60
                      A                      A                      A
 Frequencies --   1655.1904              1679.6585              1713.6409
 Red. masses --      6.8644                 6.9484                 6.5223
 Frc consts  --     11.0802                11.5498                11.2846
 IR Inten    --     13.8066                22.8015               304.0185

                     61                     62                     63
                      A                      A                      A
 Frequencies --   2874.7655              3191.4577              3196.4856
 Red. masses --      1.0915                 1.0876                 1.0888
 Frc consts  --      5.3146                 6.5270                 6.5544
 IR Inten    --    366.3920                 1.6680                16.6826

                     64                     65                     66
                      A                      A                      A
 Frequencies --   3213.2395              3221.7696              3222.8025
 Red. masses --      1.0863                 1.0952                 1.0906
 Frc consts  --      6.6082                 6.6976                 6.6739
 IR Inten    --      1.1234                26.2202                 2.9421

                     67                     68                     69
                      A                      A                      A
 Frequencies --   3231.7949              3236.8364              3238.8784
 Red. masses --      1.0960                 1.0977                 1.1000
 Frc consts  --      6.7442                 6.7758                 6.7987
 IR Inten    --      5.1482                16.0806                11.1674

 - Thermochemistry -
 -------------------
 Temperature   298.150 Kelvin.  Pressure   1.00000 Atm.
 Atom     1 has atomic number  6 and mass  12.00000

 Molecular mass:   227.04049 amu.
 Principal axes and moments of inertia in atomic units:
                           1         2         3
     Eigenvalues --  1286.731586313.182897599.91433
           X           -0.70145   0.71272  -0.00003
           Y            0.71272   0.70145  -0.00006
           Z            0.00002   0.00006   1.00000
 This molecule is an asymmetric top.
 Rotational symmetry number  1.
 Warning -- assumption of classical behavior for rotation
           may cause significant error
 Rotational temperatures (Kelvin)      0.06731     0.01372     0.01140
 Rotational constants (GHZ):           1.40258     0.28587     0.23747
 Zero-point vibrational energy     494534.1 (Joules/Mol)
                                  118.19648 (Kcal/Mol)
 Warning -- explicit consideration of  18 degrees of freedom as
           vibrations may cause significant error
 Vibrational temperatures:     71.88   101.10   119.72   202.54   285.51
          (Kelvin)            336.16   356.08   429.20   445.55   599.17
                              616.47   649.35   739.68   755.81   757.09
                              793.13   807.92   834.74   918.54   923.07
                             1048.62  1053.90  1079.46  1092.02  1114.40
                             1119.58  1177.66  1225.49  1261.42  1272.02
                             1365.38  1381.92  1386.35  1396.48  1458.27
                             1466.11  1488.87  1517.73  1555.19  1632.85
                             1674.17  1678.78  1697.23  1722.31  1793.43
                             1849.38  1890.23  1940.97  1970.00  2013.38
                             2045.97  2143.17  2158.26  2174.07  2272.57
                             2293.65  2350.56  2381.45  2416.65  2465.55
                             4136.15  4591.80  4599.03  4623.14  4635.41
                             4636.89  4649.83  4657.09  4660.02

 Zero-point correction=                           0.188358 (Hartree/Particle)
 Thermal correction to Energy=                    0.200261
 Thermal correction to Enthalpy=                  0.201205
 Thermal correction to Gibbs Free Energy=         0.149450
 Sum of electronic and zero-point Energies=          -1028.619012
 Sum of electronic and thermal Energies=             -1028.607109
 Sum of electronic and thermal Enthalpies=           -1028.606165
 Sum of electronic and thermal Free Energies=        -1028.657920

                     E (Thermal)             CV                S
                      KCal/Mol        Cal/Mol-Kelvin    Cal/Mol-Kelvin
 Total                  125.666             48.086            108.928
 Electronic               0.000              0.000              0.000
 Translational            0.889              2.981             42.162
 Rotational               0.889              2.981             32.490
 Vibrational            123.888             42.124             34.276
 Vibration     1          0.595              1.978              4.819
 Vibration     2          0.598              1.968              4.146
 Vibration     3          0.600              1.961              3.814
 Vibration     4          0.615              1.913              2.793
 Vibration     5          0.637              1.842              2.148
 Vibration     6          0.654              1.789              1.851
 Vibration     7          0.661              1.767              1.748
 Vibration     8          0.691              1.677              1.426
 Vibration     9          0.699              1.655              1.364
 Vibration    10          0.780              1.435              0.904
 Vibration    11          0.790              1.408              0.864
 Vibration    12          0.810              1.358              0.792
 Vibration    13          0.869              1.219              0.624
 Vibration    14          0.880              1.194              0.598
 Vibration    15          0.881              1.192              0.596
 Vibration    16          0.907              1.137              0.542
 Vibration    17          0.917              1.115              0.521
 Vibration    18          0.937              1.074              0.485

 Optimization completed.
    -- Stationary point found.
 Normal termination of Gaussian 16 at Wed Oct 28 02:06:46 2020.
