 Gaussian 16, Revision C.01,
 Gaussian 16:  ES64L-G16RevC.01  3-Jul-2019

 ----------------------------------------------------------------------
 #p opt=addgic freq wb97xd/cc-pvdz nosymm int=ultrafine scrf=(solvent=C
 arbonTetraChloride)
 ----------------------------------------------------------------------

 ------------------------------------------------
 NM 2D-scan of HBT TD-WB97XD pVDZ in CTC Relaxed.
 ------------------------------------------------
 Symbolic Z-matrix:
 Charge =  0 Multiplicity = 1

 SCF Done:  E(RwB97XD) =  -1028.71467695     A.U. after   16 cycles
 SCF Done:  E(RwB97XD) =  -1028.78342140     A.U. after   14 cycles
 SCF Done:  E(RwB97XD) =  -1028.80255099     A.U. after   14 cycles
 SCF Done:  E(RwB97XD) =  -1028.80545304     A.U. after   13 cycles
 SCF Done:  E(RwB97XD) =  -1028.80553445     A.U. after   11 cycles
 SCF Done:  E(RwB97XD) =  -1028.80554033     A.U. after   10 cycles
 Optimization completed.
    -- Stationary point found.
 Normal termination of Gaussian 16 at Wed Oct 28 01:10:49 2020.

 --------------------------------------------------------------------
 #P Geom=AllCheck Guess=TCheck SCRF=Check GenChk RwB97XD/CC-pVDZ Freq
 --------------------------------------------------------------------

 Structure from the checkpoint file:  "config_10_19.chk"
 ------------------------------------------------
 NM 2D-scan of HBT TD-WB97XD pVDZ in CTC Relaxed.
 ------------------------------------------------
 Charge =  0 Multiplicity = 1

                          Input orientation:
 ---------------------------------------------------------------------
 Center     Atomic      Atomic             Coordinates (Angstroms)
 Number     Number       Type             X           Y           Z
 ---------------------------------------------------------------------
      1          6           0        1.520348   -3.276313   -0.000038
      2          6           0        0.997437   -1.990122   -0.000028
      3          6           0        1.809773   -0.858064   -0.000015
      4          6           0        3.199319   -0.995108   -0.000012
      5          6           0        3.727972   -2.287436   -0.000020
      6          6           0        2.903244   -3.417853   -0.000033
      7          1           0        0.861252   -4.144502   -0.000048
      8          1           0        3.850410   -0.120324   -0.000001
      9          1           0        4.811434   -2.413325   -0.000016
     10          1           0        3.345282   -4.414571   -0.000039
     11          7           0        1.033403    0.300226   -0.000004
     12         16           0       -0.697100   -1.545606   -0.000028
     13          6           0       -1.298378    1.141704    0.000027
     14          6           0       -2.669127    0.752197    0.000045
     15          6           0       -0.901000    2.543354    0.000016
     16          6           0       -3.673716    1.678013    0.000043
     17          1           0       -2.928080   -0.309978    0.000064
     18          6           0       -2.025091    3.480503    0.000017
     19          6           0       -3.328618    3.061462    0.000024
     20          1           0       -4.718380    1.366750    0.000058
     21          1           0       -1.778283    4.544118    0.000011
     22          1           0       -4.130716    3.804297    0.000018
     23          6           0       -0.306230    0.146017    0.000005
     24          8           0        0.297635    2.882952    0.000044
     25          1           0        1.448995    1.216097    0.000009
 ---------------------------------------------------------------------

 SCF Done:  E(RwB97XD) =  -1028.80554033     A.U. after    1 cycles

 Alpha  occ. eigenvalues --  -89.09596 -19.21241 -14.52598 -10.41411 -10.37394
 Alpha  occ. eigenvalues --  -10.35982 -10.35721 -10.33157 -10.33142 -10.32584
 Alpha  occ. eigenvalues --  -10.32280 -10.31078 -10.30736 -10.30241 -10.29136
 Alpha  occ. eigenvalues --  -10.28643  -8.11714  -6.06592  -6.06205  -6.05717
 Alpha  occ. eigenvalues --   -1.12827  -1.09863  -0.98631  -0.95660  -0.93283
 Alpha  occ. eigenvalues --   -0.89159  -0.86808  -0.83718  -0.81771  -0.75443
 Alpha  occ. eigenvalues --   -0.73746  -0.72155  -0.69211  -0.67896  -0.64770
 Alpha  occ. eigenvalues --   -0.60913  -0.59713  -0.56745  -0.56009  -0.55924
 Alpha  occ. eigenvalues --   -0.55019  -0.53949  -0.52966  -0.49989  -0.49482
 Alpha  occ. eigenvalues --   -0.48968  -0.48294  -0.46780  -0.45672  -0.44780
 Alpha  occ. eigenvalues --   -0.44469  -0.42809  -0.41923  -0.40369  -0.36878
 Alpha  occ. eigenvalues --   -0.33596  -0.31607  -0.31397  -0.26190
 Alpha virt. eigenvalues --   -0.01268   0.03803   0.05719   0.07178   0.09472
 Alpha virt. eigenvalues --    0.11333   0.14214   0.14826   0.16118   0.17215
 Alpha virt. eigenvalues --    0.18005   0.19772   0.20864   0.21530   0.22693

 Mulliken charges:
               1
     1  C    0.018809
     2  C   -0.229295
     3  C    0.227867
     4  C   -0.012249
     5  C    0.008403
     6  C    0.005233
     7  H    0.023490
     8  H    0.029667
     9  H    0.027173
    10  H    0.025883
    11  N   -0.129759
    12  S    0.178820
    13  C   -0.084079
    14  C   -0.022320
    15  C    0.091733
    16  C   -0.031755
    17  H    0.015126
    18  C   -0.036686
    19  C    0.028632
    20  H    0.001954
    21  H    0.002156
    22  H    0.013969
    23  C    0.088117
    24  O   -0.365831
    25  H    0.124942
 Sum of Mulliken charges =  -0.00000

 Dipole moment (field-independent basis, Debye):
    X=              2.0413    Y=             -5.4541    Z=             -0.0001  Tot=              5.8236
 Quadrupole moment (field-independent basis, Debye-Ang):
   XX=            -81.1005   YY=            -96.7072   ZZ=           -103.9733
   XY=             -6.3632   XZ=             -0.0001   YZ=             -0.0002

  Exact polarizability:     288.209     -89.786     287.136      -0.001       0.002      62.833
 Approx polarizability:     265.616     -33.289     254.991      -0.000       0.001      81.839

                      1                      2                      3
                      A                      A                      A
 Frequencies --     42.3138                59.6809               111.0095
 Red. masses --      4.8081                 5.8956                 5.8700
 Frc consts  --      0.0051                 0.0124                 0.0426
 IR Inten    --      1.7067                 0.9083                 1.3542

                      4                      5                      6
                      A                      A                      A
 Frequencies --    126.0708               193.5355               224.8647
 Red. masses --      5.6154                 6.1514                 5.7329
 Frc consts  --      0.0526                 0.1358                 0.1708
 IR Inten    --      1.6224                 0.0212                 0.9714

                      7                      8                      9
                      A                      A                      A
 Frequencies --    265.7118               297.1629               307.6178
 Red. masses --      8.3054                 6.9829                 5.2632
 Frc consts  --      0.3455                 0.3633                 0.2934
 IR Inten    --      6.5885                 1.3799                 1.1323

                     10                     11                     12
                      A                      A                      A
 Frequencies --    401.0983               426.1212               445.6473
 Red. masses --      8.1919                 3.3171                 3.4602
 Frc consts  --      0.7765                 0.3549                 0.4049
 IR Inten    --      3.7023                 0.0494                10.4642

                     13                     14                     15
                      A                      A                      A
 Frequencies --    510.5011               518.9420               531.2180
 Red. masses --      8.3926                 2.6111                 6.9310
 Frc consts  --      1.2887                 0.4143                 1.1524
 IR Inten    --     11.2380                 8.3161                 5.4804

                     16                     17                     18
                      A                      A                      A
 Frequencies --    546.3906               561.5369               581.3830
 Red. masses --      7.3118                 3.7759                 7.3228
 Frc consts  --      1.2861                 0.7015                 1.4583
 IR Inten    --     13.8973                 0.5130                40.1370

                     19                     20                     21
                      A                      A                      A
 Frequencies --    607.0914               651.5065               655.0766
 Red. masses --      1.4903                 2.4622                 6.2183
 Frc consts  --      0.3236                 0.6158                 1.5722
 IR Inten    --     42.1263                38.6167                 2.2321

                     22                     23                     24
                      A                      A                      A
 Frequencies --    721.2264               741.2728               752.3274
 Red. masses --      5.7173                 7.4298                 2.6301
 Frc consts  --      1.7522                 2.4054                 0.8771
 IR Inten    --     67.6938                49.3953                18.0647

                     25                     26                     27
                      A                      A                      A
 Frequencies --    757.1563               774.5641               779.4005
 Red. masses --      1.4231                 1.5569                 2.4706
 Frc consts  --      0.4807                 0.5503                 0.8842
 IR Inten    --     45.2382                46.1354                15.8093

                     28                     29                     30
                      A                      A                      A
 Frequencies --    834.3821               876.5452               879.2824
 Red. masses --      6.3941                 2.1049                 4.8834
 Frc consts  --      2.6228                 0.9529                 2.2245
 IR Inten    --     17.5612                17.9021                 0.7435

                     31                     32                     33
                      A                      A                      A
 Frequencies --    883.6890               962.8739               969.9595
 Red. masses --      1.3691                 1.3257                 1.3602
 Frc consts  --      0.6299                 0.7241                 0.7540
 IR Inten    --      0.5543                 0.0582                 1.5575

                     34                     35                     36
                      A                      A                      A
 Frequencies --    970.4848              1013.0193              1018.7076
 Red. masses --      4.5646                 1.3028                 1.3081
 Frc consts  --      2.5330                 0.7877                 0.7998
 IR Inten    --     29.1473                 0.0090                 0.3642

                     37                     38                     39
                      A                      A                      A
 Frequencies --   1043.5020              1058.2262              1100.0267
 Red. masses --      2.1449                 2.0726                 3.3513
 Frc consts  --      1.3761                 1.3675                 2.3893
 IR Inten    --     16.5818                11.0133                14.5357

                     40                     41                     42
                      A                      A                      A
 Frequencies --   1141.3255              1162.4127              1165.5228
 Red. masses --      1.9281                 1.2213                 1.3558
 Frc consts  --      1.4798                 0.9723                 1.0852
 IR Inten    --     39.0982                60.7164                39.2127

                     43                     44                     45
                      A                      A                      A
 Frequencies --   1180.8021              1210.3668              1247.9669
 Red. masses --      1.1609                 1.3451                 2.1800
 Frc consts  --      0.9536                 1.1610                 2.0004
 IR Inten    --     20.0048                25.7137                14.0668

                     46                     47                     48
                      A                      A                      A
 Frequencies --   1288.3415              1300.1345              1352.2964
 Red. masses --      1.7099                 2.4595                 2.5700
 Frc consts  --      1.6721                 2.4495                 2.7690
 IR Inten    --     15.4424               164.7027                26.4969

                     49                     50                     51
                      A                      A                      A
 Frequencies --   1384.8661              1399.6893              1412.5551
 Red. masses --      5.5709                 4.8854                 2.2052
 Frc consts  --      6.2949                 5.6391                 2.5924
 IR Inten    --    179.7060                75.4926                 5.1930

                     52                     53                     54
                      A                      A                      A
 Frequencies --   1496.9261              1510.3225              1522.3697
 Red. masses --      2.7110                 2.5861                 3.0830
 Frc consts  --      3.5791                 3.4757                 4.2098
 IR Inten    --     39.5656               244.2934                 3.7007

                     55                     56                     57
                      A                      A                      A
 Frequencies --   1554.9099              1602.0842              1657.0311
 Red. masses --      4.7381                 7.0197                 6.7467
 Frc consts  --      6.7495                10.6155                10.9145
 IR Inten    --   2109.6272               103.7310               121.5672

                     58                     59                     60
                      A                      A                      A
 Frequencies --   1679.9160              1681.5171              1724.0378
 Red. masses --      7.3926                 7.1066                 7.9083
 Frc consts  --     12.2920                11.8389                13.8492
 IR Inten    --     26.4043                47.7685               438.8967

                     61                     62                     63
                      A                      A                      A
 Frequencies --   3189.5814              3193.5829              3214.4084
 Red. masses --      1.0867                 1.0889                 1.0864
 Frc consts  --      6.5136                 6.5432                 6.6139
 IR Inten    --      2.1509                15.3894                 1.2065

                     64                     65                     66
                      A                      A                      A
 Frequencies --   3216.6241              3224.1448              3232.2199
 Red. masses --      1.0952                 1.0906                 1.0960
 Frc consts  --      6.6764                 6.6797                 6.7464
 IR Inten    --     33.1773                 1.9359                 5.4571

                     67                     68                     69
                      A                      A                      A
 Frequencies --   3233.5486              3240.5280              3709.9690
 Red. masses --      1.0974                 1.0999                 1.0801
 Frc consts  --      6.7606                 6.8052                 8.7593
 IR Inten    --     16.6332                12.2704               123.0160

 - Thermochemistry -
 -------------------
 Temperature   298.150 Kelvin.  Pressure   1.00000 Atm.
 Atom     1 has atomic number  6 and mass  12.00000

 Molecular mass:   227.04049 amu.
 Principal axes and moments of inertia in atomic units:
                           1         2         3
     Eigenvalues --  1273.601196405.726617679.32780
           X           -0.70265   0.71154   0.00000
           Y            0.71154   0.70265  -0.00001
           Z            0.00001   0.00001   1.00000
 This molecule is an asymmetric top.
 Rotational symmetry number  1.
 Warning -- assumption of classical behavior for rotation
           may cause significant error
 Rotational temperatures (Kelvin)      0.06801     0.01352     0.01128
 Rotational constants (GHZ):           1.41704     0.28174     0.23501
 Zero-point vibrational energy     498430.8 (Joules/Mol)
                                  119.12783 (Kcal/Mol)
 Warning -- explicit consideration of  19 degrees of freedom as
           vibrations may cause significant error
 Vibrational temperatures:     60.88    85.87   159.72   181.39   278.45
          (Kelvin)            323.53   382.30   427.55   442.59   577.09
                              613.09   641.19   734.50   746.64   764.30
                              786.13   807.93   836.48   873.47   937.37
                              942.51  1037.68  1066.53  1082.43  1089.38
                             1114.42  1121.38  1200.49  1261.15  1265.09
                             1271.43  1385.36  1395.56  1396.31  1457.51
                             1465.69  1501.37  1522.55  1582.69  1642.11
                             1672.45  1676.93  1698.91  1741.45  1795.55
                             1853.64  1870.60  1945.65  1992.51  2013.84
                             2032.35  2153.74  2173.02  2190.35  2237.17
                             2305.04  2384.10  2417.02  2419.33  2480.51
                             4589.10  4594.85  4624.82  4628.00  4638.83
                             4650.44  4652.36  4662.40  5337.82

 Zero-point correction=                           0.189842 (Hartree/Particle)
 Thermal correction to Energy=                    0.201863
 Thermal correction to Enthalpy=                  0.202807
 Thermal correction to Gibbs Free Energy=         0.150740
 Sum of electronic and zero-point Energies=          -1028.615698
 Sum of electronic and thermal Energies=             -1028.603677
 Sum of electronic and thermal Enthalpies=           -1028.602733
 Sum of electronic and thermal Free Energies=        -1028.654801

                     E (Thermal)             CV                S
                      KCal/Mol        Cal/Mol-Kelvin    Cal/Mol-Kelvin
 Total                  126.671             48.547            109.585
 Electronic               0.000              0.000              0.000
 Translational            0.889              2.981             42.162
 Rotational               0.889              2.981             32.505
 Vibrational            124.894             42.585             34.918
 Vibration     1          0.595              1.980              5.148
 Vibration     2          0.597              1.974              4.468
 Vibration     3          0.607              1.940              3.251
 Vibration     4          0.611              1.927              3.005
 Vibration     5          0.635              1.849              2.194
 Vibration     6          0.650              1.803              1.920
 Vibration     7          0.672              1.736              1.624
 Vibration     8          0.691              1.679              1.433
 Vibration     9          0.697              1.659              1.375
 Vibration    10          0.767              1.468              0.959
 Vibration    11          0.788              1.413              0.871
 Vibration    12          0.805              1.370              0.809
 Vibration    13          0.866              1.227              0.632
 Vibration    14          0.874              1.208              0.612
 Vibration    15          0.886              1.181              0.584
 Vibration    16          0.902              1.148              0.552
 Vibration    17          0.917              1.115              0.521
 Vibration    18          0.938              1.072              0.483
 Vibration    19          0.966              1.017              0.438

 Optimization completed.
    -- Stationary point found.
 Normal termination of Gaussian 16 at Wed Oct 28 01:16:52 2020.
