 Gaussian 16, Revision C.01,
 Gaussian 16:  ES64L-G16RevC.01  3-Jul-2019

 ----------------------------------------------------------------------
 #p opt=addgic freq wb97xd/cc-pvdz nosymm int=ultrafine scrf=(solvent=C
 arbonTetraChloride)
 ----------------------------------------------------------------------

 ------------------------------------------------
 NM 2D-scan of HBT TD-WB97XD pVDZ in CTC Relaxed.
 ------------------------------------------------
 Symbolic Z-matrix:
 Charge =  0 Multiplicity = 1

 SCF Done:  E(RwB97XD) =  -1028.71668370     A.U. after   16 cycles
 SCF Done:  E(RwB97XD) =  -1028.78893199     A.U. after   14 cycles
 SCF Done:  E(RwB97XD) =  -1028.79967905     A.U. after   14 cycles
 SCF Done:  E(RwB97XD) =  -1028.80249837     A.U. after   13 cycles
 SCF Done:  E(RwB97XD) =  -1028.80293556     A.U. after   11 cycles
 SCF Done:  E(RwB97XD) =  -1028.80300673     A.U. after   10 cycles
 Optimization completed.
    -- Stationary point found.
 Normal termination of Gaussian 16 at Tue Oct 27 22:08:12 2020.

 --------------------------------------------------------------------
 #P Geom=AllCheck Guess=TCheck SCRF=Check GenChk RwB97XD/CC-pVDZ Freq
 --------------------------------------------------------------------

 Structure from the checkpoint file:  "config_11_7.chk"
 ------------------------------------------------
 NM 2D-scan of HBT TD-WB97XD pVDZ in CTC Relaxed.
 ------------------------------------------------
 Charge =  0 Multiplicity = 1

                          Input orientation:
 ---------------------------------------------------------------------
 Center     Atomic      Atomic             Coordinates (Angstroms)
 Number     Number       Type             X           Y           Z
 ---------------------------------------------------------------------
      1          6           0        1.688167   -3.275803   -0.000021
      2          6           0        1.010937   -2.060185   -0.000008
      3          6           0        1.719742   -0.870770   -0.000009
      4          6           0        3.112479   -0.827546   -0.000018
      5          6           0        3.786141   -2.044454   -0.000028
      6          6           0        3.081747   -3.253391   -0.000031
      7          1           0        1.146468   -4.221465   -0.000024
      8          1           0        3.643774    0.124690   -0.000018
      9          1           0        4.876694   -2.053082   -0.000035
     10          1           0        3.629039   -4.196471   -0.000041
     11          7           0        0.858314    0.201862   -0.000009
     12         16           0       -0.735788   -1.722154    0.000008
     13          6           0       -1.396736    1.078807    0.000010
     14          6           0       -2.799806    0.872133   -0.000003
     15          6           0       -0.833139    2.434354    0.000035
     16          6           0       -3.685272    1.924835    0.000016
     17          1           0       -3.183505   -0.152635   -0.000029
     18          6           0       -1.830984    3.499692    0.000060
     19          6           0       -3.178780    3.252258    0.000051
     20          1           0       -4.760078    1.742476    0.000005
     21          1           0       -1.445316    4.521053    0.000085
     22          1           0       -3.881859    4.089252    0.000068
     23          6           0       -0.467797    0.004378    0.000002
     24          8           0        0.393505    2.649298    0.000036
     25          1           0        1.273431    1.107908   -0.000025
 ---------------------------------------------------------------------

 SCF Done:  E(RwB97XD) =  -1028.80300673     A.U. after    1 cycles

 Alpha  occ. eigenvalues --  -89.10115 -19.21347 -14.51554 -10.41651 -10.36865
 Alpha  occ. eigenvalues --  -10.36124 -10.35931 -10.33373 -10.33000 -10.32627
 Alpha  occ. eigenvalues --  -10.32321 -10.31148 -10.30665 -10.30629 -10.29076
 Alpha  occ. eigenvalues --  -10.28532  -8.12112  -6.07004  -6.06610  -6.06115
 Alpha  occ. eigenvalues --   -1.13381  -1.10164  -0.98638  -0.95166  -0.93225
 Alpha  occ. eigenvalues --   -0.89288  -0.86533  -0.84036  -0.81675  -0.75664
 Alpha  occ. eigenvalues --   -0.73806  -0.71726  -0.69427  -0.67852  -0.64571
 Alpha  occ. eigenvalues --   -0.60905  -0.59799  -0.56665  -0.56037  -0.55944
 Alpha  occ. eigenvalues --   -0.55020  -0.53610  -0.52969  -0.50454  -0.49519
 Alpha  occ. eigenvalues --   -0.49037  -0.48220  -0.46711  -0.45637  -0.44750
 Alpha  occ. eigenvalues --   -0.44543  -0.42940  -0.41772  -0.40439  -0.36888
 Alpha  occ. eigenvalues --   -0.33603  -0.31683  -0.31516  -0.26229
 Alpha virt. eigenvalues --   -0.01304   0.03737   0.06073   0.06760   0.09444
 Alpha virt. eigenvalues --    0.11171   0.12860   0.14623   0.15962   0.17119
 Alpha virt. eigenvalues --    0.18671   0.19897   0.21139   0.21633   0.23067

 Mulliken charges:
               1
     1  C    0.011098
     2  C   -0.247951
     3  C    0.239348
     4  C   -0.010928
     5  C    0.012640
     6  C    0.002508
     7  H    0.025141
     8  H    0.032299
     9  H    0.027631
    10  H    0.026105
    11  N   -0.092426
    12  S    0.179432
    13  C   -0.124950
    14  C   -0.006096
    15  C    0.111600
    16  C   -0.034607
    17  H    0.002835
    18  C   -0.032358
    19  C    0.028246
    20  H    0.002580
    21  H    0.001073
    22  H    0.013439
    23  C    0.092322
    24  O   -0.378183
    25  H    0.119200
 Sum of Mulliken charges =  -0.00000

 Dipole moment (field-independent basis, Debye):
    X=              1.9897    Y=             -5.1583    Z=             -0.0001  Tot=              5.5287
 Quadrupole moment (field-independent basis, Debye-Ang):
   XX=            -81.8471   YY=            -94.8454   ZZ=           -104.0265
   XY=             -6.7871   XZ=             -0.0002   YZ=              0.0000

  Exact polarizability:     289.704     -89.257     287.707      -0.001       0.003      62.968
 Approx polarizability:     267.957     -34.935     255.721      -0.001       0.002      81.983

                      1                      2                      3
                      A                      A                      A
 Frequencies --     27.3728                65.4904               109.9006
 Red. masses --      4.8146                 6.5575                 5.6602
 Frc consts  --      0.0021                 0.0166                 0.0403
 IR Inten    --      0.8908                 2.2365                 0.8053

                      4                      5                      6
                      A                      A                      A
 Frequencies --    120.3106               193.1644               230.8464
 Red. masses --      5.1958                 5.8684                 5.8965
 Frc consts  --      0.0443                 0.1290                 0.1851
 IR Inten    --      0.3301                 0.0239                 1.1410

                      7                      8                      9
                      A                      A                      A
 Frequencies --    266.5298               305.7247               316.8940
 Red. masses --      7.4510                 5.1385                 6.7526
 Frc consts  --      0.3119                 0.2830                 0.3995
 IR Inten    --      4.0181                 2.5554                 4.9597

                     10                     11                     12
                      A                      A                      A
 Frequencies --    389.8429               426.9994               444.2158
 Red. masses --      9.0049                 3.2740                 3.5389
 Frc consts  --      0.8063                 0.3517                 0.4114
 IR Inten    --      5.4861                 1.5428                10.8518

                     13                     14                     15
                      A                      A                      A
 Frequencies --    502.8346               524.0996               537.4932
 Red. masses --      7.9818                 2.6175                 8.6039
 Frc consts  --      1.1891                 0.4236                 1.4645
 IR Inten    --      9.2285                13.6059                 9.8334

                     16                     17                     18
                      A                      A                      A
 Frequencies --    552.1211               561.4875               580.7544
 Red. masses --      6.5989                 3.6835                 1.2492
 Frc consts  --      1.1852                 0.6842                 0.2482
 IR Inten    --      2.0500                 0.4586                43.4042

                     19                     20                     21
                      A                      A                      A
 Frequencies --    583.9540               645.4404               659.7929
 Red. masses --      7.2476                 4.1393                 5.9134
 Frc consts  --      1.4561                 1.0160                 1.5167
 IR Inten    --     38.2327                13.6203                 5.9426

                     22                     23                     24
                      A                      A                      A
 Frequencies --    701.7705               739.8063               751.8261
 Red. masses --      5.9943                 7.7794                 2.8075
 Frc consts  --      1.7393                 2.5086                 0.9350
 IR Inten    --     42.4581                50.0437                 7.8057

                     25                     26                     27
                      A                      A                      A
 Frequencies --    760.7570               776.7726               780.5606
 Red. masses --      1.4270                 1.5211                 2.4259
 Frc consts  --      0.4866                 0.5408                 0.8708
 IR Inten    --     47.1703                43.0745                34.2357

                     28                     29                     30
                      A                      A                      A
 Frequencies --    830.4449               877.0655               883.1710
 Red. masses --      6.1970                 1.9887                 1.3714
 Frc consts  --      2.5180                 0.9013                 0.6302
 IR Inten    --     23.1282                15.2150                 1.1195

                     31                     32                     33
                      A                      A                      A
 Frequencies --    897.1106               961.2176               969.1299
 Red. masses --      4.8409                 4.0195                 1.3212
 Frc consts  --      2.2955                 2.1881                 0.7311
 IR Inten    --      1.0483                39.1581                 0.1932

                     34                     35                     36
                      A                      A                      A
 Frequencies --    972.4891              1015.3916              1016.3593
 Red. masses --      1.3561                 1.3013                 1.3047
 Frc consts  --      0.7556                 0.7905                 0.7941
 IR Inten    --      1.4509                 0.0097                 0.3518

                     37                     38                     39
                      A                      A                      A
 Frequencies --   1043.7685              1058.0657              1084.5849
 Red. masses --      2.1309                 2.1224                 3.1713
 Frc consts  --      1.3678                 1.3999                 2.1980
 IR Inten    --      8.9755                12.3065                35.2736

                     40                     41                     42
                      A                      A                      A
 Frequencies --   1108.9910              1155.8491              1157.9441
 Red. masses --      2.2498                 1.3348                 1.2150
 Frc consts  --      1.6303                 1.0507                 0.9598
 IR Inten    --     72.7092                 2.2011                63.8035

                     43                     44                     45
                      A                      A                      A
 Frequencies --   1182.6866              1190.9889              1242.2954
 Red. masses --      1.1473                 1.1888                 2.0781
 Frc consts  --      0.9455                 0.9935                 1.8896
 IR Inten    --     25.3528                 9.0441                13.9907

                     46                     47                     48
                      A                      A                      A
 Frequencies --   1289.2481              1298.9212              1366.9263
 Red. masses --      1.9845                 1.9005                 2.5858
 Frc consts  --      1.9434                 1.8892                 2.8467
 IR Inten    --     86.2649               121.3524                56.2631

                     49                     50                     51
                      A                      A                      A
 Frequencies --   1383.0149              1393.7783              1416.0121
 Red. masses --      7.2916                 6.1227                 2.2423
 Frc consts  --      8.2173                 7.0077                 2.6490
 IR Inten    --     28.3198               110.1579                12.1456

                     52                     53                     54
                      A                      A                      A
 Frequencies --   1489.9232              1505.4039              1531.6011
 Red. masses --      2.8487                 3.0356                 2.9985
 Frc consts  --      3.7259                 4.0532                 4.1443
 IR Inten    --    196.8210               707.8615               260.8697

                     55                     56                     57
                      A                      A                      A
 Frequencies --   1549.7626              1595.9736              1647.4036
 Red. masses --      4.6500                 6.7514                 6.5648
 Frc consts  --      6.5801                10.1321                10.4971
 IR Inten    --   1105.8506               122.4437                80.6130

                     58                     59                     60
                      A                      A                      A
 Frequencies --   1681.9760              1696.1568              1724.8757
 Red. masses --      7.1945                 7.7956                 8.0555
 Frc consts  --     11.9920                13.2138                14.1207
 IR Inten    --     67.2954                75.1046               380.0779

                     61                     62                     63
                      A                      A                      A
 Frequencies --   3178.3061              3191.2641              3217.4311
 Red. masses --      1.0893                 1.0878                 1.0944
 Frc consts  --      6.4835                 6.5272                 6.6749
 IR Inten    --      5.2472                14.6718                27.4979

                     64                     65                     66
                      A                      A                      A
 Frequencies --   3217.6845              3228.4686              3232.0532
 Red. masses --      1.0867                 1.0908                 1.0967
 Frc consts  --      6.6291                 6.6986                 6.7499
 IR Inten    --      2.3045                 1.9532                19.3774

                     67                     68                     69
                      A                      A                      A
 Frequencies --   3236.5733              3244.2075              3750.3666
 Red. masses --      1.0966                 1.0997                 1.0810
 Frc consts  --      6.7679                 6.8191                 8.9586
 IR Inten    --      3.9303                12.1107               150.9156

 - Thermochemistry -
 -------------------
 Temperature   298.150 Kelvin.  Pressure   1.00000 Atm.
 Atom     1 has atomic number  6 and mass  12.00000

 Molecular mass:   227.04049 amu.
 Principal axes and moments of inertia in atomic units:
                           1         2         3
     Eigenvalues --  1296.634366371.368727668.00308
           X           -0.70585   0.70837   0.00000
           Y            0.70837   0.70585  -0.00001
           Z            0.00001   0.00000   1.00000
 This molecule is an asymmetric top.
 Rotational symmetry number  1.
 Warning -- assumption of classical behavior for rotation
           may cause significant error
 Rotational temperatures (Kelvin)      0.06680     0.01359     0.01130
 Rotational constants (GHZ):           1.39187     0.28326     0.23536
 Zero-point vibrational energy     498075.1 (Joules/Mol)
                                  119.04280 (Kcal/Mol)
 Warning -- explicit consideration of  19 degrees of freedom as
           vibrations may cause significant error
 Vibrational temperatures:     39.38    94.23   158.12   173.10   277.92
          (Kelvin)            332.14   383.48   439.87   455.94   560.90
                              614.36   639.13   723.47   754.06   773.33
                              794.38   807.86   835.58   840.18   928.64
                              949.29  1009.69  1064.42  1081.71  1094.56
                             1117.60  1123.05  1194.82  1261.90  1270.69
                             1290.74  1382.98  1394.36  1399.19  1460.92
                             1462.31  1501.75  1522.32  1560.48  1595.59
                             1663.01  1666.02  1701.62  1713.57  1787.39
                             1854.94  1868.86  1966.70  1989.85  2005.34
                             2037.33  2143.67  2165.94  2203.63  2229.76
                             2296.25  2370.25  2419.99  2440.39  2481.71
                             4572.87  4591.52  4629.17  4629.53  4645.05
                             4650.20  4656.71  4667.69  5395.94

 Zero-point correction=                           0.189707 (Hartree/Particle)
 Thermal correction to Energy=                    0.201759
 Thermal correction to Enthalpy=                  0.202703
 Thermal correction to Gibbs Free Energy=         0.150278
 Sum of electronic and zero-point Energies=          -1028.613300
 Sum of electronic and thermal Energies=             -1028.601248
 Sum of electronic and thermal Enthalpies=           -1028.600304
 Sum of electronic and thermal Free Energies=        -1028.652728

                     E (Thermal)             CV                S
                      KCal/Mol        Cal/Mol-Kelvin    Cal/Mol-Kelvin
 Total                  126.606             48.640            110.337
 Electronic               0.000              0.000              0.000
 Translational            0.889              2.981             42.162
 Rotational               0.889              2.981             32.516
 Vibrational            124.828             42.679             35.660
 Vibration     1          0.593              1.984              6.011
 Vibration     2          0.597              1.971              4.285
 Vibration     3          0.606              1.941              3.271
 Vibration     4          0.609              1.932              3.095
 Vibration     5          0.635              1.849              2.197
 Vibration     6          0.653              1.794              1.872
 Vibration     7          0.672              1.735              1.619
 Vibration     8          0.696              1.663              1.385
 Vibration     9          0.704              1.641              1.326
 Vibration    10          0.758              1.492              1.001
 Vibration    11          0.789              1.411              0.869
 Vibration    12          0.804              1.374              0.813
 Vibration    13          0.858              1.244              0.651
 Vibration    14          0.879              1.197              0.601
 Vibration    15          0.893              1.167              0.571
 Vibration    16          0.907              1.135              0.540
 Vibration    17          0.917              1.115              0.521
 Vibration    18          0.937              1.073              0.484
 Vibration    19          0.941              1.066              0.478

                           ! Non-Optimized Parameters !
 Normal termination of Gaussian 16 at Tue Oct 27 22:14:20 2020.
