 Gaussian 16, Revision C.01,
 Gaussian 16:  ES64L-G16RevC.01  3-Jul-2019

 ----------------------------------------------------------------------
 #p opt=addgic freq wb97xd/cc-pvdz nosymm int=ultrafine scrf=(solvent=C
 arbonTetraChloride)
 ----------------------------------------------------------------------

 ------------------------------------------------
 NM 2D-scan of HBT TD-WB97XD pVDZ in CTC Relaxed.
 ------------------------------------------------
 Symbolic Z-matrix:
 Charge =  0 Multiplicity = 1

 SCF Done:  E(RwB97XD) =  -1028.66280455     A.U. after   16 cycles
 SCF Done:  E(RwB97XD) =  -1028.77001201     A.U. after   13 cycles
 SCF Done:  E(RwB97XD) =  -1028.78732337     A.U. after   14 cycles
 SCF Done:  E(RwB97XD) =  -1028.80261269     A.U. after   14 cycles
 SCF Done:  E(RwB97XD) =  -1028.80283570     A.U. after   11 cycles
 SCF Done:  E(RwB97XD) =  -1028.80285221     A.U. after   10 cycles
 SCF Done:  E(RwB97XD) =  -1028.80285372     A.U. after    8 cycles
 Optimization completed.
    -- Stationary point found.
 Normal termination of Gaussian 16 at Tue Oct 27 23:47:12 2020.

 --------------------------------------------------------------------
 #P Geom=AllCheck Guess=TCheck SCRF=Check GenChk RwB97XD/CC-pVDZ Freq
 --------------------------------------------------------------------

 Structure from the checkpoint file:  "config_11_13.chk"
 ------------------------------------------------
 NM 2D-scan of HBT TD-WB97XD pVDZ in CTC Relaxed.
 ------------------------------------------------
 Charge =  0 Multiplicity = 1

                          Input orientation:
 ---------------------------------------------------------------------
 Center     Atomic      Atomic             Coordinates (Angstroms)
 Number     Number       Type             X           Y           Z
 ---------------------------------------------------------------------
      1          6           0        1.605196   -3.279267   -0.000025
      2          6           0        1.004730   -2.026614   -0.000015
      3          6           0        1.766901   -0.869411   -0.000012
      4          6           0        3.160600   -0.913148   -0.000016
      5          6           0        3.762744   -2.170194   -0.000024
      6          6           0        2.996089   -3.339885   -0.000030
      7          1           0        1.003687   -4.188058   -0.000029
      8          1           0        3.753561    0.002203   -0.000013
      9          1           0        4.851320   -2.237619   -0.000027
     10          1           0        3.490903   -4.311437   -0.000037
     11          7           0        0.945588    0.245126   -0.000009
     12         16           0       -0.716965   -1.627634   -0.000004
     13          6           0       -1.354263    1.112167    0.000016
     14          6           0       -2.741614    0.812361    0.000014
     15          6           0       -0.866747    2.490243    0.000037
     16          6           0       -3.689174    1.805611    0.000030
     17          1           0       -3.062119   -0.233768   -0.000001
     18          6           0       -1.932559    3.496188    0.000044
     19          6           0       -3.261988    3.162601    0.000043
     20          1           0       -4.751100    1.558840    0.000029
     21          1           0       -1.617634    4.541712    0.000051
     22          1           0       -4.016511    3.953745    0.000051
     23          6           0       -0.390922    0.079297    0.000001
     24          8           0        0.347437    2.749513    0.000027
     25          1           0        1.413797    1.121310   -0.000014
 ---------------------------------------------------------------------

 SCF Done:  E(RwB97XD) =  -1028.80285372     A.U. after    1 cycles

 Alpha  occ. eigenvalues --  -89.09860 -19.21177 -14.52126 -10.41590 -10.37044
 Alpha  occ. eigenvalues --  -10.35991 -10.35792 -10.33271 -10.33105 -10.32635
 Alpha  occ. eigenvalues --  -10.32298 -10.31099 -10.30665 -10.30357 -10.29084
 Alpha  occ. eigenvalues --  -10.28578  -8.11922  -6.06808  -6.06415  -6.05926
 Alpha  occ. eigenvalues --   -1.13131  -1.10081  -0.98641  -0.95451  -0.93286
 Alpha  occ. eigenvalues --   -0.89201  -0.86667  -0.83915  -0.81658  -0.75528
 Alpha  occ. eigenvalues --   -0.74020  -0.71908  -0.69396  -0.67854  -0.64568
 Alpha  occ. eigenvalues --   -0.60916  -0.59767  -0.56649  -0.56009  -0.55988
 Alpha  occ. eigenvalues --   -0.55024  -0.53723  -0.52987  -0.50204  -0.49422
 Alpha  occ. eigenvalues --   -0.49004  -0.48284  -0.46739  -0.45652  -0.44728
 Alpha  occ. eigenvalues --   -0.44525  -0.42905  -0.41840  -0.40389  -0.36904
 Alpha  occ. eigenvalues --   -0.33599  -0.31669  -0.31315  -0.26132
 Alpha virt. eigenvalues --   -0.01294   0.03760   0.05915   0.06960   0.09539
 Alpha virt. eigenvalues --    0.11295   0.13690   0.14651   0.15992   0.16964
 Alpha virt. eigenvalues --    0.18235   0.19811   0.21028   0.21604   0.22947

 Mulliken charges:
               1
     1  C    0.014648
     2  C   -0.239395
     3  C    0.223522
     4  C   -0.011752
     5  C    0.010746
     6  C    0.003965
     7  H    0.024055
     8  H    0.030750
     9  H    0.027536
    10  H    0.025995
    11  N   -0.103039
    12  S    0.179197
    13  C   -0.101107
    14  C   -0.014242
    15  C    0.101498
    16  C   -0.034066
    17  H    0.007869
    18  C   -0.039741
    19  C    0.028580
    20  H    0.002086
    21  H    0.001298
    22  H    0.013741
    23  C    0.096132
    24  O   -0.366660
    25  H    0.118382
 Sum of Mulliken charges =  -0.00000

 Dipole moment (field-independent basis, Debye):
    X=              2.1139    Y=             -5.3237    Z=             -0.0001  Tot=              5.7280
 Quadrupole moment (field-independent basis, Debye-Ang):
   XX=            -81.3673   YY=            -95.7318   ZZ=           -103.9859
   XY=             -6.5402   XZ=             -0.0001   YZ=              0.0000

  Exact polarizability:     289.945     -90.607     288.091      -0.002       0.002      62.900
 Approx polarizability:     267.320     -34.867     254.959      -0.001       0.002      81.898

                      1                      2                      3
                      A                      A                      A
 Frequencies --     26.5227                63.8075               107.8096
 Red. masses --      4.5815                 6.4598                 5.6957
 Frc consts  --      0.0019                 0.0155                 0.0390
 IR Inten    --      1.8209                 1.5858                 1.0011

                      4                      5                      6
                      A                      A                      A
 Frequencies --    115.7544               191.6286               226.2113
 Red. masses --      5.3796                 5.8864                 5.7978
 Frc consts  --      0.0425                 0.1274                 0.1748
 IR Inten    --      0.2665                 0.0926                 1.7573

                      7                      8                      9
                      A                      A                      A
 Frequencies --    267.3664               299.6654               304.4496
 Red. masses --      7.7545                 7.1049                 4.7410
 Frc consts  --      0.3266                 0.3759                 0.2589
 IR Inten    --      4.6855                 3.3264                 3.8204

                     10                     11                     12
                      A                      A                      A
 Frequencies --    391.1654               422.9174               443.3544
 Red. masses --      8.0697                 3.1092                 3.4860
 Frc consts  --      0.7275                 0.3277                 0.4037
 IR Inten    --      4.7508                 4.5139                11.3349

                     13                     14                     15
                      A                      A                      A
 Frequencies --    493.4154               504.0966               524.8057
 Red. masses --      1.1998                 8.0402                 2.3624
 Frc consts  --      0.1721                 1.2038                 0.3833
 IR Inten    --     71.4411                 9.9919                 0.1907

                     16                     17                     18
                      A                      A                      A
 Frequencies --    534.5306               547.1088               562.3988
 Red. masses --      7.6327                 6.9592                 3.8164
 Frc consts  --      1.2849                 1.2273                 0.7112
 IR Inten    --      7.9046                 7.8469                 0.0194

                     19                     20                     21
                      A                      A                      A
 Frequencies --    581.0636               634.8266               658.1870
 Red. masses --      7.3286                 6.6960                 6.1428
 Frc consts  --      1.4579                 1.5899                 1.5679
 IR Inten    --     38.4817                 3.2829                 2.9082

                     22                     23                     24
                      A                      A                      A
 Frequencies --    709.1892               740.6370               751.2293
 Red. masses --      5.6619                 7.3977                 2.6248
 Frc consts  --      1.6778                 2.3909                 0.8728
 IR Inten    --     54.9017                48.5395                12.6595

                     25                     26                     27
                      A                      A                      A
 Frequencies --    759.1241               774.8136               779.6854
 Red. masses --      1.4266                 1.5691                 2.4413
 Frc consts  --      0.4844                 0.5550                 0.8744
 IR Inten    --     47.8827                47.4827                22.0004

                     28                     29                     30
                      A                      A                      A
 Frequencies --    831.2248               876.1109               881.2298
 Red. masses --      6.2594                 2.0487                 1.3769
 Frc consts  --      2.5481                 0.9265                 0.6300
 IR Inten    --     21.8706                15.5093                 0.9862

                     31                     32                     33
                      A                      A                      A
 Frequencies --    892.6604               966.2847               967.3172
 Red. masses --      5.1224                 1.3224                 4.0784
 Frc consts  --      2.4049                 0.7275                 2.2484
 IR Inten    --      0.6400                 0.1218                30.8803

                     34                     35                     36
                      A                      A                      A
 Frequencies --    969.7694              1013.5513              1017.4627
 Red. masses --      1.3601                 1.3029                 1.3067
 Frc consts  --      0.7536                 0.7886                 0.7970
 IR Inten    --      1.5348                 0.0087                 0.3362

                     37                     38                     39
                      A                      A                      A
 Frequencies --   1043.1748              1057.1558              1093.1610
 Red. masses --      2.1221                 2.0775                 3.3433
 Frc consts  --      1.3606                 1.3679                 2.3540
 IR Inten    --     10.9878                12.8818                19.1912

                     40                     41                     42
                      A                      A                      A
 Frequencies --   1114.8658              1157.0897              1161.0925
 Red. masses --      2.0094                 1.3625                 1.2077
 Frc consts  --      1.4715                 1.0748                 0.9593
 IR Inten    --     49.2236                 0.5884                68.7254

                     43                     44                     45
                      A                      A                      A
 Frequencies --   1181.3925              1193.4757              1236.5669
 Red. masses --      1.1502                 1.2059                 2.2078
 Frc consts  --      0.9459                 1.0120                 1.9890
 IR Inten    --     26.6766                11.9138                23.6263

                     46                     47                     48
                      A                      A                      A
 Frequencies --   1283.5476              1299.8217              1357.7260
 Red. masses --      2.1342                 1.8516                 2.6183
 Frc consts  --      2.0716                 1.8431                 2.8438
 IR Inten    --     92.4102               114.5532                35.7007

                     49                     50                     51
                      A                      A                      A
 Frequencies --   1388.4955              1394.7858              1412.9916
 Red. masses --      6.7577                 5.5520                 2.1523
 Frc consts  --      7.6761                 6.3638                 2.5318
 IR Inten    --    147.9302                38.6414                 5.1074

                     52                     53                     54
                      A                      A                      A
 Frequencies --   1491.6952              1506.4750              1529.7394
 Red. masses --      2.8972                 2.9927                 3.0545
 Frc consts  --      3.7983                 4.0017                 4.2114
 IR Inten    --    108.6050               655.2759               112.5649

                     55                     56                     57
                      A                      A                      A
 Frequencies --   1542.3426              1595.5997              1653.4311
 Red. masses --      4.6717                 7.0041                 6.2438
 Frc consts  --      6.5477                10.5063                10.0570
 IR Inten    --   1619.8140                76.1202                68.8194

                     58                     59                     60
                      A                      A                      A
 Frequencies --   1680.8573              1694.8839              1731.8941
 Red. masses --      7.1919                 7.7348                 8.8410
 Frc consts  --     11.9717                13.0913                15.6240
 IR Inten    --     51.6634                32.7916               452.8535

                     61                     62                     63
                      A                      A                      A
 Frequencies --   3181.6403              3193.6992              3217.8088
 Red. masses --      1.0890                 1.0877                 1.0864
 Frc consts  --      6.4947                 6.5364                 6.6276
 IR Inten    --      3.7315                14.3193                 1.4909

                     64                     65                     66
                      A                      A                      A
 Frequencies --   3218.3195              3227.9603              3230.8216
 Red. masses --      1.0943                 1.0908                 1.0973
 Frc consts  --      6.6781                 6.6963                 6.7486
 IR Inten    --     31.4593                 2.2262                20.2160

                     67                     68                     69
                      A                      A                      A
 Frequencies --   3236.2431              3243.7103              3844.3185
 Red. masses --      1.0961                 1.0997                 1.0796
 Frc consts  --      6.7637                 6.8172                 9.4001
 IR Inten    --      4.3535                11.8667               123.5662

 - Thermochemistry -
 -------------------
 Temperature   298.150 Kelvin.  Pressure   1.00000 Atm.
 Atom     1 has atomic number  6 and mass  12.00000

 Molecular mass:   227.04049 amu.
 Principal axes and moments of inertia in atomic units:
                           1         2         3
     Eigenvalues --  1278.039256403.844577681.88381
           X           -0.70537   0.70884   0.00000
           Y            0.70884   0.70537  -0.00001
           Z            0.00001   0.00000   1.00000
 This molecule is an asymmetric top.
 Rotational symmetry number  1.
 Warning -- assumption of classical behavior for rotation
           may cause significant error
 Rotational temperatures (Kelvin)      0.06777     0.01353     0.01128
 Rotational constants (GHZ):           1.41212     0.28182     0.23493
 Zero-point vibrational energy     497814.9 (Joules/Mol)
                                  118.98063 (Kcal/Mol)
 Warning -- explicit consideration of  19 degrees of freedom as
           vibrations may cause significant error
 Vibrational temperatures:     38.16    91.80   155.11   166.54   275.71
          (Kelvin)            325.47   384.68   431.15   438.04   562.80
                              608.48   637.89   709.91   725.28   755.08
                              769.07   787.17   809.17   836.02   913.37
                              946.98  1020.37  1065.61  1080.85  1092.21
                             1114.78  1121.79  1195.95  1260.53  1267.89
                             1284.34  1390.27  1391.75  1395.28  1458.27
                             1463.90  1500.90  1521.01  1572.81  1604.04
                             1664.79  1670.55  1699.76  1717.15  1779.14
                             1846.74  1870.15  1953.46  1997.74  2006.79
                             2032.98  2146.22  2167.48  2200.95  2219.09
                             2295.71  2378.92  2418.38  2438.56  2491.81
                             4577.67  4595.02  4629.71  4630.44  4644.31
                             4648.43  4656.23  4666.98  5531.12

 Zero-point correction=                           0.189608 (Hartree/Particle)
 Thermal correction to Energy=                    0.201779
 Thermal correction to Enthalpy=                  0.202723
 Thermal correction to Gibbs Free Energy=         0.150015
 Sum of electronic and zero-point Energies=          -1028.613246
 Sum of electronic and thermal Energies=             -1028.601074
 Sum of electronic and thermal Enthalpies=           -1028.600130
 Sum of electronic and thermal Free Energies=        -1028.652838

                     E (Thermal)             CV                S
                      KCal/Mol        Cal/Mol-Kelvin    Cal/Mol-Kelvin
 Total                  126.618             48.928            110.933
 Electronic               0.000              0.000              0.000
 Translational            0.889              2.981             42.162
 Rotational               0.889              2.981             32.508
 Vibrational            124.841             42.966             36.263
 Vibration     1          0.593              1.984              6.074
 Vibration     2          0.597              1.972              4.336
 Vibration     3          0.606              1.943              3.308
 Vibration     4          0.608              1.936              3.170
 Vibration     5          0.634              1.851              2.212
 Vibration     6          0.650              1.801              1.909
 Vibration     7          0.672              1.733              1.613
 Vibration     8          0.692              1.674              1.419
 Vibration     9          0.695              1.665              1.392
 Vibration    10          0.759              1.489              0.996
 Vibration    11          0.785              1.420              0.882
 Vibration    12          0.803              1.376              0.816
 Vibration    13          0.849              1.265              0.675
 Vibration    14          0.859              1.241              0.648
 Vibration    15          0.880              1.195              0.599
 Vibration    16          0.890              1.174              0.577
 Vibration    17          0.902              1.146              0.550
 Vibration    18          0.918              1.113              0.519
 Vibration    19          0.938              1.072              0.483

 Optimization completed.
    -- Stationary point found.
 Normal termination of Gaussian 16 at Tue Oct 27 23:53:04 2020.
