 Gaussian 16, Revision C.01,
 Gaussian 16:  ES64L-G16RevC.01  3-Jul-2019

 ----------------------------------------------------------------------
 #p opt=addgic freq wb97xd/cc-pvdz nosymm int=ultrafine scrf=(solvent=C
 arbonTetraChloride)
 ----------------------------------------------------------------------

 ------------------------------------------------
 NM 2D-scan of HBT TD-WB97XD pVDZ in CTC Relaxed.
 ------------------------------------------------
 Symbolic Z-matrix:
 Charge =  0 Multiplicity = 1

 SCF Done:  E(RwB97XD) =  -1028.73047665     A.U. after   16 cycles
 SCF Done:  E(RwB97XD) =  -1028.79090056     A.U. after   14 cycles
 SCF Done:  E(RwB97XD) =  -1028.80557031     A.U. after   14 cycles
 SCF Done:  E(RwB97XD) =  -1028.80726274     A.U. after   12 cycles
 SCF Done:  E(RwB97XD) =  -1028.80731990     A.U. after   11 cycles
 SCF Done:  E(RwB97XD) =  -1028.80732470     A.U. after   10 cycles
 Optimization completed.
    -- Stationary point found.
 Normal termination of Gaussian 16 at Wed Oct 28 00:40:30 2020.

 --------------------------------------------------------------------
 #P Geom=AllCheck Guess=TCheck SCRF=Check GenChk RwB97XD/CC-pVDZ Freq
 --------------------------------------------------------------------

 Structure from the checkpoint file:  "config_10_17.chk"
 ------------------------------------------------
 NM 2D-scan of HBT TD-WB97XD pVDZ in CTC Relaxed.
 ------------------------------------------------
 Charge =  0 Multiplicity = 1

                          Input orientation:
 ---------------------------------------------------------------------
 Center     Atomic      Atomic             Coordinates (Angstroms)
 Number     Number       Type             X           Y           Z
 ---------------------------------------------------------------------
      1          6           0        1.546623   -3.275374   -0.000029
      2          6           0        0.998461   -1.999178   -0.000022
      3          6           0        1.794333   -0.855600   -0.000015
      4          6           0        3.185839   -0.965060   -0.000017
      5          6           0        3.738172   -2.246394   -0.000022
      6          6           0        2.932463   -3.390516   -0.000029
      7          1           0        0.905769   -4.157150   -0.000034
      8          1           0        3.818821   -0.077177   -0.000012
      9          1           0        4.823631   -2.353474   -0.000022
     10          1           0        3.392100   -4.379261   -0.000033
     11          7           0        1.003999    0.289504   -0.000008
     12         16           0       -0.705190   -1.574932   -0.000017
     13          6           0       -1.314110    1.129102    0.000020
     14          6           0       -2.691357    0.768551    0.000031
     15          6           0       -0.887431    2.522909    0.000014
     16          6           0       -3.675875    1.717348    0.000034
     17          1           0       -2.970656   -0.288749    0.000039
     18          6           0       -1.988957    3.483504    0.000029
     19          6           0       -3.301450    3.092497    0.000030
     20          1           0       -4.727177    1.429310    0.000042
     21          1           0       -1.718140    4.541218    0.000037
     22          1           0       -4.087352    3.852386    0.000033
     23          6           0       -0.332100    0.121824    0.000003
     24          8           0        0.318597    2.840572    0.000054
     25          1           0        1.399577    1.215680   -0.000006
 ---------------------------------------------------------------------

 SCF Done:  E(RwB97XD) =  -1028.80732470     A.U. after    1 cycles

 Alpha  occ. eigenvalues --  -89.09689 -19.21293 -14.52401 -10.41384 -10.37328
 Alpha  occ. eigenvalues --  -10.36007 -10.35770 -10.33183 -10.33097 -10.32575
 Alpha  occ. eigenvalues --  -10.32277 -10.31105 -10.30731 -10.30278 -10.29134
 Alpha  occ. eigenvalues --  -10.28634  -8.11788  -6.06667  -6.06281  -6.05792
 Alpha  occ. eigenvalues --   -1.12899  -1.09881  -0.98619  -0.95576  -0.93280
 Alpha  occ. eigenvalues --   -0.89179  -0.86763  -0.83767  -0.81786  -0.75487
 Alpha  occ. eigenvalues --   -0.73643  -0.72113  -0.69195  -0.67910  -0.64763
 Alpha  occ. eigenvalues --   -0.60917  -0.59725  -0.56724  -0.55972  -0.55934
 Alpha  occ. eigenvalues --   -0.55022  -0.53892  -0.52980  -0.50070  -0.49501
 Alpha  occ. eigenvalues --   -0.48986  -0.48308  -0.46771  -0.45653  -0.44771
 Alpha  occ. eigenvalues --   -0.44487  -0.42874  -0.41906  -0.40387  -0.36868
 Alpha  occ. eigenvalues --   -0.33582  -0.31623  -0.31476  -0.26224
 Alpha virt. eigenvalues --   -0.01257   0.03803   0.05777   0.07083   0.09441
 Alpha virt. eigenvalues --    0.11307   0.14136   0.14786   0.16122   0.17223
 Alpha virt. eigenvalues --    0.18164   0.19826   0.20916   0.21548   0.22795

 Mulliken charges:
               1
     1  C    0.017932
     2  C   -0.232486
     3  C    0.232950
     4  C   -0.011640
     5  C    0.009020
     6  C    0.004726
     7  H    0.023754
     8  H    0.029953
     9  H    0.027171
    10  H    0.025873
    11  N   -0.125533
    12  S    0.179880
    13  C   -0.090151
    14  C   -0.019755
    15  C    0.096301
    16  C   -0.031882
    17  H    0.012767
    18  C   -0.034865
    19  C    0.028247
    20  H    0.002030
    21  H    0.002054
    22  H    0.013907
    23  C    0.086157
    24  O   -0.371466
    25  H    0.125057
 Sum of Mulliken charges =  -0.00000

 Dipole moment (field-independent basis, Debye):
    X=              1.9852    Y=             -5.3927    Z=             -0.0001  Tot=              5.7465
 Quadrupole moment (field-independent basis, Debye-Ang):
   XX=            -81.3067   YY=            -96.2942   ZZ=           -103.9779
   XY=             -6.4843   XZ=             -0.0002   YZ=             -0.0002

  Exact polarizability:     288.099     -89.266     286.663      -0.001       0.002      62.847
 Approx polarizability:     265.819     -33.316     254.933      -0.000       0.001      81.859

                      1                      2                      3
                      A                      A                      A
 Frequencies --     49.4035                59.5046               107.8011
 Red. masses --      4.7039                 6.1126                 5.7644
 Frc consts  --      0.0068                 0.0128                 0.0395
 IR Inten    --      1.4678                 1.1568                 1.5034

                      4                      5                      6
                      A                      A                      A
 Frequencies --    126.8324               193.9829               225.5583
 Red. masses --      5.5614                 6.1526                 5.7758
 Frc consts  --      0.0527                 0.1364                 0.1731
 IR Inten    --      1.4524                 0.0175                 0.9182

                      7                      8                      9
                      A                      A                      A
 Frequencies --    265.1943               296.0971               307.4940
 Red. masses --      8.0083                 6.9096                 5.2660
 Frc consts  --      0.3318                 0.3569                 0.2934
 IR Inten    --      6.3155                 1.7345                 1.1892

                     10                     11                     12
                      A                      A                      A
 Frequencies --    400.2651               426.5907               445.8257
 Red. masses --      8.4172                 3.3064                 3.4856
 Frc consts  --      0.7945                 0.3545                 0.4082
 IR Inten    --      3.9827                 0.0700                10.2204

                     13                     14                     15
                      A                      A                      A
 Frequencies --    509.4100               520.3560               533.0758
 Red. masses --      8.3172                 2.6455                 7.0072
 Frc consts  --      1.2716                 0.4221                 1.1732
 IR Inten    --     10.6952                 7.7222                 5.8577

                     16                     17                     18
                      A                      A                      A
 Frequencies --    546.8336               561.5889               581.9258
 Red. masses --      7.2444                 3.8041                 7.2860
 Frc consts  --      1.2763                 0.7069                 1.4537
 IR Inten    --     11.8511                 0.2893                38.5189

                     19                     20                     21
                      A                      A                      A
 Frequencies --    613.6115               655.5309               661.2082
 Red. masses --      1.8347                 6.1254                 1.8739
 Frc consts  --      0.4070                 1.5508                 0.4827
 IR Inten    --     28.4193                 2.9451                49.1961

                     22                     23                     24
                      A                      A                      A
 Frequencies --    719.2788               741.5457               752.0794
 Red. masses --      5.7148                 7.5115                 2.5904
 Frc consts  --      1.7420                 2.4336                 0.8633
 IR Inten    --     59.3614                55.9675                18.3496

                     25                     26                     27
                      A                      A                      A
 Frequencies --    758.3799               774.6319               780.0446
 Red. masses --      1.4192                 1.5724                 2.4838
 Frc consts  --      0.4809                 0.5559                 0.8904
 IR Inten    --     44.8285                45.5497                18.9752

                     28                     29                     30
                      A                      A                      A
 Frequencies --    834.2417               876.7681               879.9503
 Red. masses --      6.1818                 2.0644                 4.6581
 Frc consts  --      2.5348                 0.9350                 2.1251
 IR Inten    --     18.4115                17.3521                 1.3386

                     31                     32                     33
                      A                      A                      A
 Frequencies --    883.2997               964.1512               968.2615
 Red. masses --      1.3718                 1.3239                 4.3813
 Frc consts  --      0.6306                 0.7251                 2.4201
 IR Inten    --      0.6681                 0.0813                31.0475

                     34                     35                     36
                      A                      A                      A
 Frequencies --    970.0702              1013.0655              1018.5755
 Red. masses --      1.3603                 1.3032                 1.3075
 Frc consts  --      0.7542                 0.7880                 0.7992
 IR Inten    --      1.5993                 0.0098                 0.3583

                     37                     38                     39
                      A                      A                      A
 Frequencies --   1038.2525              1058.6306              1096.1514
 Red. masses --      2.1185                 2.0930                 3.3692
 Frc consts  --      1.3455                 1.3820                 2.3851
 IR Inten    --     13.9968                12.0358                17.9847

                     40                     41                     42
                      A                      A                      A
 Frequencies --   1133.2709              1162.0924              1164.3955
 Red. masses --      1.8867                 1.2610                 1.3135
 Frc consts  --      1.4276                 1.0033                 1.0492
 IR Inten    --     57.4294                36.6747                47.8241

                     43                     44                     45
                      A                      A                      A
 Frequencies --   1179.6480              1195.1583              1242.6234
 Red. masses --      1.1414                 1.2384                 1.9901
 Frc consts  --      0.9358                 1.0422                 1.8105
 IR Inten    --     18.4417                22.5478                10.2306

                     46                     47                     48
                      A                      A                      A
 Frequencies --   1283.0415              1296.8625              1352.6706
 Red. masses --      2.3306                 1.9524                 2.7356
 Frc consts  --      2.2605                 1.9347                 2.9490
 IR Inten    --     83.4586                95.6233                16.1002

                     49                     50                     51
                      A                      A                      A
 Frequencies --   1385.1951              1399.4778              1414.0520
 Red. masses --      5.8646                 5.1244                 2.2414
 Frc consts  --      6.6300                 5.9132                 2.6406
 IR Inten    --    154.4060                51.1840                 5.5668

                     52                     53                     54
                      A                      A                      A
 Frequencies --   1490.3489              1505.7895              1523.1369
 Red. masses --      2.7529                 2.9720                 3.1035
 Frc consts  --      3.6026                 3.9704                 4.2421
 IR Inten    --     15.4787               353.0296                 8.0491

                     55                     56                     57
                      A                      A                      A
 Frequencies --   1555.1824              1602.1345              1652.4258
 Red. masses --      4.7306                 6.9550                 6.9842
 Frc consts  --      6.7410                10.5183                11.2360
 IR Inten    --   2008.4077               116.4867               120.6016

                     58                     59                     60
                      A                      A                      A
 Frequencies --   1680.1525              1681.9997              1721.6345
 Red. masses --      7.4246                 7.1287                 8.0140
 Frc consts  --     12.3487                11.8826                13.9953
 IR Inten    --     13.6837                79.0021               430.7224

                     61                     62                     63
                      A                      A                      A
 Frequencies --   3184.8995              3193.9378              3214.9928
 Red. masses --      1.0885                 1.0877                 1.0863
 Frc consts  --      6.5052                 6.5376                 6.6157
 IR Inten    --      2.7710                13.8689                 1.2262

                     64                     65                     66
                      A                      A                      A
 Frequencies --   3216.9729              3224.8196              3232.5936
 Red. masses --      1.0951                 1.0906                 1.0974
 Frc consts  --      6.6776                 6.6824                 6.7562
 IR Inten    --     32.4277                 2.2676                18.1762

                     67                     68                     69
                      A                      A                      A
 Frequencies --   3233.2002              3240.6647              3679.9977
 Red. masses --      1.0961                 1.1000                 1.0804
 Frc consts  --      6.7507                 6.8062                 8.6203
 IR Inten    --      4.8690                11.8141               133.9754

 - Thermochemistry -
 -------------------
 Temperature   298.150 Kelvin.  Pressure   1.00000 Atm.
 Atom     1 has atomic number  6 and mass  12.00000

 Molecular mass:   227.04049 amu.
 Principal axes and moments of inertia in atomic units:
                           1         2         3
     Eigenvalues --  1277.280896390.903937668.18482
           X           -0.70341   0.71078   0.00000
           Y            0.71078   0.70341  -0.00001
           Z            0.00001   0.00001   1.00000
 This molecule is an asymmetric top.
 Rotational symmetry number  1.
 Warning -- assumption of classical behavior for rotation
           may cause significant error
 Rotational temperatures (Kelvin)      0.06781     0.01355     0.01130
 Rotational constants (GHZ):           1.41296     0.28239     0.23535
 Zero-point vibrational energy     497998.5 (Joules/Mol)
                                  119.02449 (Kcal/Mol)
 Warning -- explicit consideration of  19 degrees of freedom as
           vibrations may cause significant error
 Vibrational temperatures:     71.08    85.61   155.10   182.48   279.10
          (Kelvin)            324.53   381.56   426.02   442.42   575.89
                              613.77   641.44   732.93   748.68   766.98
                              786.77   808.00   837.26   882.85   943.16
                              951.33  1034.88  1066.92  1082.07  1091.14
                             1114.52  1122.31  1200.29  1261.47  1266.05
                             1270.87  1387.20  1393.11  1395.71  1457.58
                             1465.50  1493.81  1523.13  1577.12  1630.52
                             1671.99  1675.31  1697.25  1719.57  1787.86
                             1846.01  1865.90  1946.19  1992.99  2013.54
                             2034.51  2144.28  2166.50  2191.45  2237.56
                             2305.11  2377.47  2417.36  2420.02  2477.05
                             4582.36  4595.36  4625.66  4628.51  4639.80
                             4650.98  4651.85  4662.59  5294.70

 Zero-point correction=                           0.189678 (Hartree/Particle)
 Thermal correction to Energy=                    0.201683
 Thermal correction to Enthalpy=                  0.202627
 Thermal correction to Gibbs Free Energy=         0.150691
 Sum of electronic and zero-point Energies=          -1028.617647
 Sum of electronic and thermal Energies=             -1028.605642
 Sum of electronic and thermal Enthalpies=           -1028.604698
 Sum of electronic and thermal Free Energies=        -1028.656634

                     E (Thermal)             CV                S
                      KCal/Mol        Cal/Mol-Kelvin    Cal/Mol-Kelvin
 Total                  126.558             48.544            109.309
 Electronic               0.000              0.000              0.000
 Translational            0.889              2.981             42.162
 Rotational               0.889              2.981             32.504
 Vibrational            124.780             42.582             34.643
 Vibration     1          0.595              1.978              4.841
 Vibration     2          0.597              1.974              4.474
 Vibration     3          0.606              1.943              3.308
 Vibration     4          0.611              1.926              2.994
 Vibration     5          0.635              1.848              2.189
 Vibration     6          0.650              1.802              1.914
 Vibration     7          0.671              1.737              1.627
 Vibration     8          0.690              1.681              1.439
 Vibration     9          0.697              1.659              1.376
 Vibration    10          0.766              1.470              0.962
 Vibration    11          0.788              1.412              0.870
 Vibration    12          0.805              1.370              0.808
 Vibration    13          0.865              1.229              0.635
 Vibration    14          0.875              1.205              0.609
 Vibration    15          0.888              1.177              0.580
 Vibration    16          0.902              1.147              0.551
 Vibration    17          0.917              1.114              0.521
 Vibration    18          0.939              1.070              0.482
 Vibration    19          0.973              1.003              0.427

 Optimization completed.
    -- Stationary point found.
 Normal termination of Gaussian 16 at Wed Oct 28 00:46:28 2020.
