 Gaussian 16, Revision C.01,
 Gaussian 16:  ES64L-G16RevC.01  3-Jul-2019

 ----------------------------------------------------------------------
 #p opt=addgic freq wb97xd/cc-pvdz nosymm int=ultrafine scrf=(solvent=C
 arbonTetraChloride)
 ----------------------------------------------------------------------

 ------------------------------------------------
 NM 2D-scan of HBT TD-WB97XD pVDZ in CTC Relaxed.
 ------------------------------------------------
 Symbolic Z-matrix:
 Charge =  0 Multiplicity = 1

 SCF Done:  E(RwB97XD) =  -1028.81030118     A.U. after   15 cycles
 SCF Done:  E(RwB97XD) =  -1028.82809388     A.U. after   13 cycles
 SCF Done:  E(RwB97XD) =  -1028.82948100     A.U. after   12 cycles
 SCF Done:  E(RwB97XD) =  -1028.82958851     A.U. after   11 cycles
 SCF Done:  E(RwB97XD) =  -1028.82960676     A.U. after   10 cycles
 SCF Done:  E(RwB97XD) =  -1028.82961086     A.U. after    9 cycles
 Optimization completed.
    -- Stationary point found.
 Normal termination of Gaussian 16 at Wed Oct 28 00:51:48 2020.

 --------------------------------------------------------------------
 #P Geom=AllCheck Guess=TCheck SCRF=Check GenChk RwB97XD/CC-pVDZ Freq
 --------------------------------------------------------------------

 Structure from the checkpoint file:  "config_3_15.chk"
 ------------------------------------------------
 NM 2D-scan of HBT TD-WB97XD pVDZ in CTC Relaxed.
 ------------------------------------------------
 Charge =  0 Multiplicity = 1

                          Input orientation:
 ---------------------------------------------------------------------
 Center     Atomic      Atomic             Coordinates (Angstroms)
 Number     Number       Type             X           Y           Z
 ---------------------------------------------------------------------
      1          6           0        1.568967   -3.281260   -0.000040
      2          6           0        0.989536   -2.013231   -0.000021
      3          6           0        1.755339   -0.833912   -0.000005
      4          6           0        3.153913   -0.930928   -0.000009
      5          6           0        3.736265   -2.193497   -0.000027
      6          6           0        2.954416   -3.359926   -0.000043
      7          1           0        0.951436   -4.179862   -0.000052
      8          1           0        3.762875   -0.026238    0.000004
      9          1           0        4.823889   -2.279626   -0.000030
     10          1           0        3.439059   -4.337253   -0.000057
     11          7           0        0.994878    0.329352    0.000016
     12         16           0       -0.708579   -1.619060   -0.000011
     13          6           0       -1.315588    1.111849    0.000033
     14          6           0       -2.679002    0.781650    0.000042
     15          6           0       -0.915631    2.469003    0.000028
     16          6           0       -3.653969    1.764662    0.000036
     17          1           0       -2.977693   -0.269163    0.000050
     18          6           0       -1.915314    3.459812    0.000017
     19          6           0       -3.258726    3.108232    0.000021
     20          1           0       -4.709758    1.493947    0.000042
     21          1           0       -1.605622    4.505625    0.000009
     22          1           0       -4.015164    3.895495    0.000013
     23          6           0       -0.288525    0.078177    0.000020
     24          8           0        0.369405    2.813312    0.000034
     25          1           0        0.907712    1.963787    0.000046
 ---------------------------------------------------------------------

 SCF Done:  E(RwB97XD) =  -1028.82961086     A.U. after    1 cycles

 Alpha  occ. eigenvalues --  -89.08543 -19.27915 -14.47138 -10.39357 -10.37356
 Alpha  occ. eigenvalues --  -10.35096 -10.34686 -10.32260 -10.32078 -10.31854
 Alpha  occ. eigenvalues --  -10.31758 -10.31588 -10.31502 -10.31469 -10.30262
 Alpha  occ. eigenvalues --  -10.30229  -8.10643  -6.05488  -6.05131  -6.04695
 Alpha  occ. eigenvalues --   -1.16369  -1.08919  -0.97324  -0.96267  -0.91816
 Alpha  occ. eigenvalues --   -0.88604  -0.85489  -0.84593  -0.82923  -0.75495
 Alpha  occ. eigenvalues --   -0.71530  -0.70631  -0.69421  -0.68129  -0.63272
 Alpha  occ. eigenvalues --   -0.60586  -0.58869  -0.58453  -0.56461  -0.54545
 Alpha  occ. eigenvalues --   -0.54139  -0.53262  -0.52899  -0.50833  -0.50369
 Alpha  occ. eigenvalues --   -0.49282  -0.47497  -0.45964  -0.45458  -0.45040
 Alpha  occ. eigenvalues --   -0.44024  -0.42970  -0.42575  -0.39804  -0.37199
 Alpha  occ. eigenvalues --   -0.36224  -0.32100  -0.31729  -0.29132
 Alpha virt. eigenvalues --   -0.00474   0.04837   0.06789   0.07163   0.07955
 Alpha virt. eigenvalues --    0.11399   0.14457   0.15217   0.16909   0.18056
 Alpha virt. eigenvalues --    0.18928   0.21020   0.21628   0.22568   0.22733

 Mulliken charges:
               1
     1  C    0.014016
     2  C   -0.212720
     3  C    0.220728
     4  C   -0.017092
     5  C    0.004194
     6  C    0.001840
     7  H    0.018356
     8  H    0.019219
     9  H    0.020097
    10  H    0.021434
    11  N   -0.354516
    12  S    0.148171
    13  C   -0.049142
    14  C   -0.029758
    15  C    0.069128
    16  C   -0.005935
    17  H    0.018837
    18  C    0.004208
    19  C    0.021093
    20  H    0.009655
    21  H    0.016634
    22  H    0.018909
    23  C    0.086632
    24  O   -0.211900
    25  H    0.167914
 Sum of Mulliken charges =  -0.00000

 Dipole moment (field-independent basis, Debye):
    X=             -0.1378    Y=             -2.6380    Z=             -0.0000  Tot=              2.6416
 Quadrupole moment (field-independent basis, Debye-Ang):
   XX=            -82.7190   YY=            -90.2119   ZZ=           -104.0486
   XY=             -7.2425   XZ=             -0.0001   YZ=              0.0001

  Exact polarizability:     273.631     -67.403     254.416      -0.001       0.001      62.885
 Approx polarizability:     261.695     -23.085     241.944      -0.001       0.001      82.145

                      1                      2                      3
                      A                      A                      A
 Frequencies --     33.1936                63.0287               129.0847
 Red. masses --      5.5330                 5.7461                 5.6759
 Frc consts  --      0.0036                 0.0134                 0.0557
 IR Inten    --      0.0670                 1.1769                 1.6130

                      4                      5                      6
                      A                      A                      A
 Frequencies --    152.0563               197.6691               245.4095
 Red. masses --      5.0321                 6.0406                 5.6161
 Frc consts  --      0.0686                 0.1391                 0.1993
 IR Inten    --      0.0623                 0.7453                 0.0236

                      7                      8                      9
                      A                      A                      A
 Frequencies --    278.4212               318.7290               329.5346
 Red. masses --      7.6639                 6.3940                 5.0977
 Frc consts  --      0.3500                 0.3827                 0.3262
 IR Inten    --      1.1150                 7.6660                 0.0932

                     10                     11                     12
                      A                      A                      A
 Frequencies --    416.6052               437.5099               466.2783
 Red. masses --      9.8912                 3.1131                 3.6423
 Frc consts  --      1.0115                 0.3511                 0.4666
 IR Inten    --      0.1596                 1.8498                 8.0191

                     13                     14                     15
                      A                      A                      A
 Frequencies --    517.0758               525.3485               537.4272
 Red. masses --      8.5670                 5.4122                 3.4639
 Frc consts  --      1.3495                 0.8801                 0.5895
 IR Inten    --      0.0943                10.3429                 3.5582

                     16                     17                     18
                      A                      A                      A
 Frequencies --    553.8312               576.2118               591.7380
 Red. masses --      7.6150                 3.7382                 7.6699
 Frc consts  --      1.3762                 0.7313                 1.5823
 IR Inten    --      2.4602                 0.0286                 4.8376

                     19                     20                     21
                      A                      A                      A
 Frequencies --    647.3855               681.2782               728.2396
 Red. masses --      6.1580                 6.5928                 6.6188
 Frc consts  --      1.5206                 1.8029                 2.0681
 IR Inten    --      0.0040                 4.1167                21.2159

                     22                     23                     24
                      A                      A                      A
 Frequencies --    747.9569               756.2193               765.7639
 Red. masses --     10.1804                 1.9397                 3.3030
 Frc consts  --      3.3556                 0.6535                 1.1412
 IR Inten    --     16.1762                30.3377                 0.5961

                     25                     26                     27
                      A                      A                      A
 Frequencies --    775.3081               786.5271               851.4933
 Red. masses --      1.3247                 1.9702                 6.0327
 Frc consts  --      0.4692                 0.7181                 2.5771
 IR Inten    --     61.7332                37.6100                16.9581

                     28                     29                     30
                      A                      A                      A
 Frequencies --    882.9860               886.9014               894.4246
 Red. masses --      1.5697                 1.3974                 6.6065
 Frc consts  --      0.7211                 0.6476                 3.1139
 IR Inten    --      7.8145                 0.5053                 3.6143

                     31                     32                     33
                      A                      A                      A
 Frequencies --    900.2884               968.6568               975.6980
 Red. masses --      1.0933                 1.3625                 1.3661
 Frc consts  --      0.5221                 0.7532                 0.7662
 IR Inten    --     75.1405                 0.9277                 1.8191

                     34                     35                     36
                      A                      A                      A
 Frequencies --   1002.0524              1011.3224              1015.3710
 Red. masses --      7.7100                 1.3035                 1.3053
 Frc consts  --      4.5613                 0.7855                 0.7929
 IR Inten    --     50.7195                 0.4639                 0.0272

                     37                     38                     39
                      A                      A                      A
 Frequencies --   1051.9765              1073.0340              1104.9888
 Red. masses --      1.9974                 1.9256                 3.6386
 Frc consts  --      1.3023                 1.3063                 2.6176
 IR Inten    --      8.7552                 8.1664                 6.1513

                     40                     41                     42
                      A                      A                      A
 Frequencies --   1155.6983              1156.8179              1179.2877
 Red. masses --      1.4283                 1.3652                 1.1713
 Frc consts  --      1.1240                 1.0764                 0.9598
 IR Inten    --      5.8553                 3.6656                37.0026

                     43                     44                     45
                      A                      A                      A
 Frequencies --   1184.6249              1261.9075              1284.9720
 Red. masses --      1.2451                 2.0862                 1.9249
 Frc consts  --      1.0295                 1.9573                 1.8726
 IR Inten    --      2.1269               117.4817                37.9866

                     46                     47                     48
                      A                      A                      A
 Frequencies --   1298.8460              1327.9164              1352.1164
 Red. masses --      2.0565                 2.6787                 3.9312
 Frc consts  --      2.0441                 2.7830                 4.2346
 IR Inten    --    104.7515                25.4283                18.6000

                     49                     50                     51
                      A                      A                      A
 Frequencies --   1373.6913              1379.5704              1480.8175
 Red. masses --      7.3609                 4.6347                 2.3739
 Frc consts  --      8.1838                 5.1971                 3.0670
 IR Inten    --     13.3321                14.9077                11.2547

                     52                     53                     54
                      A                      A                      A
 Frequencies --   1489.3002              1505.2189              1535.0630
 Red. masses --      2.5388                 2.8923                 3.5577
 Frc consts  --      3.3177                 3.8610                 4.9394
 IR Inten    --     48.4422                16.3474               107.6234

                     55                     56                     57
                      A                      A                      A
 Frequencies --   1571.1828              1591.7919              1648.6865
 Red. masses --      2.6517                 3.7167                 6.8629
 Frc consts  --      3.8568                 5.5485                10.9909
 IR Inten    --    229.2211                87.6986                 5.4037

                     58                     59                     60
                      A                      A                      A
 Frequencies --   1678.2119              1680.5903              1711.0687
 Red. masses --      5.4511                 3.9868                 4.3051
 Frc consts  --      9.0455                 6.6344                 7.4263
 IR Inten    --     49.7781               128.1057               144.2927

                     61                     62                     63
                      A                      A                      A
 Frequencies --   3048.5721              3203.4502              3210.7218
 Red. masses --      1.0712                 1.0878                 1.0860
 Frc consts  --      5.8657                 6.5770                 6.5963
 IR Inten    --   1073.6987                 5.4926                 1.3407

                     64                     65                     66
                      A                      A                      A
 Frequencies --   3211.6907              3221.3918              3229.8150
 Red. masses --      1.0891                 1.0905                 1.0941
 Frc consts  --      6.6190                 6.6673                 6.7243
 IR Inten    --      6.0905                 3.5591                12.2500

                     67                     68                     69
                      A                      A                      A
 Frequencies --   3231.5024              3237.6635              3238.1180
 Red. masses --      1.0960                 1.0997                 1.0993
 Frc consts  --      6.7430                 6.7917                 6.7916
 IR Inten    --      9.4494                20.2373                 9.7771

 - Thermochemistry -
 -------------------
 Temperature   298.150 Kelvin.  Pressure   1.00000 Atm.
 Atom     1 has atomic number  6 and mass  12.00000

 Molecular mass:   227.04049 amu.
 Principal axes and moments of inertia in atomic units:
                           1         2         3
     Eigenvalues --  1289.229196320.508547609.73773
           X           -0.70088   0.71327   0.00000
           Y            0.71327   0.70088  -0.00001
           Z            0.00001   0.00000   1.00000
 This molecule is an asymmetric top.
 Rotational symmetry number  1.
 Warning -- assumption of classical behavior for rotation
           may cause significant error
 Rotational temperatures (Kelvin)      0.06718     0.01370     0.01138
 Rotational constants (GHZ):           1.39986     0.28554     0.23716
 Zero-point vibrational energy     499783.8 (Joules/Mol)
                                  119.45120 (Kcal/Mol)
 Warning -- explicit consideration of  18 degrees of freedom as
           vibrations may cause significant error
 Vibrational temperatures:     47.76    90.68   185.72   218.78   284.40
          (Kelvin)            353.09   400.59   458.58   474.13   599.40
                              629.48   670.87   743.96   755.86   773.24
                              796.84   829.04   851.38   931.44   980.21
                             1047.77  1076.14  1088.03  1101.76  1115.50
                             1131.64  1225.11  1270.42  1276.05  1286.88
                             1295.31  1393.68  1403.81  1441.73  1455.07
                             1460.89  1513.56  1543.86  1589.83  1662.79
                             1664.40  1696.73  1704.41  1815.60  1848.79
                             1868.75  1910.58  1945.39  1976.44  1984.89
                             2130.57  2142.77  2165.67  2208.61  2260.58
                             2290.23  2372.09  2414.57  2417.99  2461.85
                             4386.22  4609.05  4619.51  4620.91  4634.86
                             4646.98  4649.41  4658.28  4658.93

 Zero-point correction=                           0.190358 (Hartree/Particle)
 Thermal correction to Energy=                    0.201979
 Thermal correction to Enthalpy=                  0.202924
 Thermal correction to Gibbs Free Energy=         0.151562
 Sum of electronic and zero-point Energies=          -1028.639253
 Sum of electronic and thermal Energies=             -1028.627631
 Sum of electronic and thermal Enthalpies=           -1028.626687
 Sum of electronic and thermal Free Energies=        -1028.678049

                     E (Thermal)             CV                S
                      KCal/Mol        Cal/Mol-Kelvin    Cal/Mol-Kelvin
 Total                  126.744             47.296            108.100
 Electronic               0.000              0.000              0.000
 Translational            0.889              2.981             42.162
 Rotational               0.889              2.981             32.494
 Vibrational            124.967             41.334             33.443
 Vibration     1          0.594              1.983              5.629
 Vibration     2          0.597              1.972              4.360
 Vibration     3          0.612              1.924              2.960
 Vibration     4          0.619              1.900              2.646
 Vibration     5          0.637              1.843              2.155
 Vibration     6          0.660              1.770              1.763
 Vibration     7          0.679              1.713              1.543
 Vibration     8          0.705              1.638              1.317
 Vibration     9          0.712              1.617              1.262
 Vibration    10          0.780              1.434              0.904
 Vibration    11          0.798              1.388              0.834
 Vibration    12          0.824              1.325              0.748
 Vibration    13          0.872              1.212              0.617
 Vibration    14          0.880              1.194              0.598
 Vibration    15          0.892              1.167              0.571
 Vibration    16          0.909              1.131              0.536
 Vibration    17          0.933              1.083              0.492
 Vibration    18          0.949              1.049              0.464

 Optimization completed.
    -- Stationary point found.
 Normal termination of Gaussian 16 at Wed Oct 28 00:58:27 2020.
