 Gaussian 16, Revision C.01,
 Gaussian 16:  ES64L-G16RevC.01  3-Jul-2019

 ----------------------------------------------------------------------
 #p opt=addgic freq wb97xd/cc-pvdz nosymm int=ultrafine scrf=(solvent=C
 arbonTetraChloride)
 ----------------------------------------------------------------------

 ------------------------------------------------
 NM 2D-scan of HBT TD-WB97XD pVDZ in CTC Relaxed.
 ------------------------------------------------
 Symbolic Z-matrix:
 Charge =  0 Multiplicity = 1

 SCF Done:  E(RwB97XD) =  -1028.39466237     A.U. after   16 cycles
 SCF Done:  E(RwB97XD) =  -1028.66630639     A.U. after   14 cycles
 SCF Done:  E(RwB97XD) =  -1028.77290983     A.U. after   15 cycles
 SCF Done:  E(RwB97XD) =  -1028.78818686     A.U. after   14 cycles
 SCF Done:  E(RwB97XD) =  -1028.79073684     A.U. after   13 cycles
 SCF Done:  E(RwB97XD) =  -1028.79111246     A.U. after   12 cycles
 SCF Done:  E(RwB97XD) =  -1028.79116242     A.U. after   11 cycles
 SCF Done:  E(RwB97XD) =  -1028.79116453     A.U. after    9 cycles
 Optimization completed.
    -- Stationary point found.
 Normal termination of Gaussian 16 at Wed Oct 28 01:18:44 2020.

 --------------------------------------------------------------------
 #P Geom=AllCheck Guess=TCheck SCRF=Check GenChk RwB97XD/CC-pVDZ Freq
 --------------------------------------------------------------------

 Structure from the checkpoint file:  "config_12_16.chk"
 ------------------------------------------------
 NM 2D-scan of HBT TD-WB97XD pVDZ in CTC Relaxed.
 ------------------------------------------------
 Charge =  0 Multiplicity = 1

                          Input orientation:
 ---------------------------------------------------------------------
 Center     Atomic      Atomic             Coordinates (Angstroms)
 Number     Number       Type             X           Y           Z
 ---------------------------------------------------------------------
      1          6           0        1.569293   -3.284013   -0.000016
      2          6           0        1.004446   -2.016724   -0.000011
      3          6           0        1.792319   -0.884890   -0.000015
      4          6           0        3.184949   -0.962270   -0.000018
      5          6           0        3.754238   -2.236405   -0.000019
      6          6           0        2.957494   -3.384464   -0.000020
      7          1           0        0.941614   -4.174674   -0.000017
      8          1           0        3.805134   -0.064416   -0.000019
      9          1           0        4.840828   -2.330913   -0.000020
     10          1           0        3.426115   -4.368789   -0.000024
     11          7           0        0.990560    0.251768   -0.000024
     12         16           0       -0.703357   -1.572702    0.000001
     13          6           0       -1.343029    1.135130    0.000002
     14          6           0       -2.718312    0.790978    0.000007
     15          6           0       -0.890398    2.522004    0.000010
     16          6           0       -3.699161    1.753640    0.000027
     17          1           0       -3.008303   -0.263899   -0.000004
     18          6           0       -1.996422    3.498211    0.000050
     19          6           0       -3.316475    3.123051    0.000050
     20          1           0       -4.752013    1.469950    0.000029
     21          1           0       -1.721147    4.555052    0.000076
     22          1           0       -4.097187    3.888586    0.000070
     23          6           0       -0.356666    0.123836   -0.000010
     24          8           0        0.315425    2.783603    0.000036
     25          1           0        1.589558    1.034887   -0.000050
 ---------------------------------------------------------------------

 SCF Done:  E(RwB97XD) =  -1028.79116453     A.U. after    1 cycles

 Alpha  occ. eigenvalues --  -89.09714 -19.20953 -14.52442 -10.41818 -10.36978
 Alpha  occ. eigenvalues --  -10.35869 -10.35651 -10.33255 -10.33253 -10.32715
 Alpha  occ. eigenvalues --  -10.32320 -10.31038 -10.30659 -10.30212 -10.29060
 Alpha  occ. eigenvalues --  -10.28612  -8.11811  -6.06698  -6.06297  -6.05813
 Alpha  occ. eigenvalues --   -1.13043  -1.10207  -0.98670  -0.95686  -0.93322
 Alpha  occ. eigenvalues --   -0.89144  -0.86701  -0.83912  -0.81538  -0.75571
 Alpha  occ. eigenvalues --   -0.74477  -0.71855  -0.69541  -0.67783  -0.64267
 Alpha  occ. eigenvalues --   -0.60900  -0.59764  -0.56644  -0.56017  -0.56000
 Alpha  occ. eigenvalues --   -0.55013  -0.53692  -0.52945  -0.50055  -0.49298
 Alpha  occ. eigenvalues --   -0.49001  -0.48249  -0.46723  -0.45683  -0.44730
 Alpha  occ. eigenvalues --   -0.44493  -0.42818  -0.41834  -0.40349  -0.36956
 Alpha  occ. eigenvalues --   -0.33627  -0.31682  -0.31022  -0.25981
 Alpha virt. eigenvalues --   -0.01353   0.03724   0.05852   0.07106   0.09693
 Alpha virt. eigenvalues --    0.11363   0.13855   0.14572   0.15848   0.16549
 Alpha virt. eigenvalues --    0.17896   0.19697   0.20991   0.21602   0.22813

 Mulliken charges:
               1
     1  C    0.014350
     2  C   -0.232966
     3  C    0.194726
     4  C   -0.015009
     5  C    0.009850
     6  C    0.005215
     7  H    0.023315
     8  H    0.030796
     9  H    0.027877
    10  H    0.026072
    11  N   -0.100173
    12  S    0.176629
    13  C   -0.087333
    14  C   -0.018916
    15  C    0.094620
    16  C   -0.034998
    17  H    0.010690
    18  C   -0.050899
    19  C    0.029484
    20  H    0.001780
    21  H    0.001280
    22  H    0.013982
    23  C    0.110199
    24  O   -0.348345
    25  H    0.117775
 Sum of Mulliken charges =  -0.00000

 Dipole moment (field-independent basis, Debye):
    X=              2.3734    Y=             -5.4495    Z=             -0.0001  Tot=              5.9439
 Quadrupole moment (field-independent basis, Debye-Ang):
   XX=            -80.7089   YY=            -96.2834   ZZ=           -103.9690
   XY=             -6.3478   XZ=             -0.0003   YZ=             -0.0001

  Exact polarizability:     291.941     -93.260     289.846      -0.002       0.002      62.887
 Approx polarizability:     268.315     -36.062     254.600      -0.001       0.001      81.880

 ******    1 imaginary frequencies (negative Signs) ******

                      1                      2                      3
                      A                      A                      A
 Frequencies --   -110.8294                53.0867                68.3398
 Red. masses --      2.2445                 5.5813                 6.1262
 Frc consts  --      0.0162                 0.0093                 0.0169
 IR Inten    --     24.6820                 0.0043                 1.5854

                      4                      5                      6
                      A                      A                      A
 Frequencies --    110.4563               183.7776               197.9718
 Red. masses --      5.7582                 3.9123                 4.3133
 Frc consts  --      0.0414                 0.0779                 0.0996
 IR Inten    --      0.9964                 8.9306                18.3617

                      7                      8                      9
                      A                      A                      A
 Frequencies --    258.7359               265.8447               291.3323
 Red. masses --      2.3127                 8.1717                 7.2350
 Frc consts  --      0.0912                 0.3403                 0.3618
 IR Inten    --     24.9594                 4.4158                 2.6301

                     10                     11                     12
                      A                      A                      A
 Frequencies --    328.1762               390.2348               430.7371
 Red. masses --      3.6797                 7.6215                 2.9678
 Frc consts  --      0.2335                 0.6838                 0.3244
 IR Inten    --     11.5314                 3.2499                 4.0328

                     13                     14                     15
                      A                      A                      A
 Frequencies --    441.2713               504.6498               518.4360
 Red. masses --      3.4591                 8.0426                 2.6270
 Frc consts  --      0.3968                 1.2068                 0.4160
 IR Inten    --      7.2011                 9.8769                 3.4384

                     16                     17                     18
                      A                      A                      A
 Frequencies --    529.8004               545.0861               563.6024
 Red. masses --      6.6699                 7.7937                 3.8073
 Frc consts  --      1.1031                 1.3643                 0.7126
 IR Inten    --      2.9792                15.3091                 0.0012

                     19                     20                     21
                      A                      A                      A
 Frequencies --    578.9692               627.1384               657.5695
 Red. masses --      7.4743                 6.8409                 6.5135
 Frc consts  --      1.4762                 1.5852                 1.6594
 IR Inten    --     40.4765                 0.6965                 0.0593

                     22                     23                     24
                      A                      A                      A
 Frequencies --    707.7124               742.5730               749.9792
 Red. masses --      5.4386                 7.1529                 2.5293
 Frc consts  --      1.6049                 2.3239                 0.8382
 IR Inten    --     56.2636                40.1211                14.3121

                     25                     26                     27
                      A                      A                      A
 Frequencies --    757.2234               773.7804               778.6942
 Red. masses --      1.4186                 1.6025                 2.4284
 Frc consts  --      0.4792                 0.5653                 0.8676
 IR Inten    --     48.1022                52.7167                15.0952

                     28                     29                     30
                      A                      A                      A
 Frequencies --    827.9367               874.7544               879.1424
 Red. masses --      6.2340                 2.1057                 1.3772
 Frc consts  --      2.5177                 0.9493                 0.6272
 IR Inten    --     25.7748                15.6475                 0.8709

                     31                     32                     33
                      A                      A                      A
 Frequencies --    894.6823               963.9172               968.7068
 Red. masses --      5.9930                 1.3253                 1.3606
 Frc consts  --      2.8264                 0.7255                 0.7522
 IR Inten    --      1.7298                 0.0769                 1.5849

                     34                     35                     36
                      A                      A                      A
 Frequencies --    980.1554              1012.4380              1017.3088
 Red. masses --      4.7571                 1.3029                 1.3067
 Frc consts  --      2.6927                 0.7868                 0.7968
 IR Inten    --     20.3307                 0.0012                 0.3302

                     37                     38                     39
                      A                      A                      A
 Frequencies --   1044.5171              1058.8279              1100.0074
 Red. masses --      2.0872                 2.0795                 3.7589
 Frc consts  --      1.3416                 1.3736                 2.6798
 IR Inten    --      9.7056                12.7421                 1.0740

                     40                     41                     42
                      A                      A                      A
 Frequencies --   1122.1583              1157.1371              1161.8515
 Red. masses --      1.7967                 1.3714                 1.1839
 Frc consts  --      1.3330                 1.0819                 0.9416
 IR Inten    --     37.4510                 2.5564                72.4863

                     43                     44                     45
                      A                      A                      A
 Frequencies --   1180.4926              1193.2960              1221.7834
 Red. masses --      1.1547                 1.1865                 2.5121
 Frc consts  --      0.9481                 0.9955                 2.2094
 IR Inten    --     28.6340                14.6711                59.2261

                     46                     47                     48
                      A                      A                      A
 Frequencies --   1271.5951              1306.0123              1348.2328
 Red. masses --      2.1768                 1.7387                 2.6362
 Frc consts  --      2.0738                 1.7473                 2.8233
 IR Inten    --     81.6982               131.0279                24.4957

                     49                     50                     51
                      A                      A                      A
 Frequencies --   1384.1881              1397.7314              1410.5944
 Red. masses --      4.1709                 6.2433                 2.2125
 Frc consts  --      4.7084                 7.1864                 2.5938
 IR Inten    --    208.1473                42.9018                21.6631

                     52                     53                     54
                      A                      A                      A
 Frequencies --   1490.5400              1503.4107              1528.4096
 Red. masses --      3.1850                 3.1365                 4.2964
 Frc consts  --      4.1692                 4.1769                 5.9133
 IR Inten    --    230.2484               938.7195              1499.7412

                     55                     56                     57
                      A                      A                      A
 Frequencies --   1536.9918              1590.2804              1655.0846
 Red. masses --      2.9901                 6.8420                 5.8117
 Frc consts  --      4.1617                10.1948                 9.3798
 IR Inten    --     11.0167                26.3294                75.4339

                     58                     59                     60
                      A                      A                      A
 Frequencies --   1679.2823              1710.0717              1751.8348
 Red. masses --      7.0872                 7.8856                10.2365
 Frc consts  --     11.7754                13.5867                18.5092
 IR Inten    --     22.6212                12.6498               467.3668

                     61                     62                     63
                      A                      A                      A
 Frequencies --   3181.6877              3192.0970              3213.1867
 Red. masses --      1.0887                 1.0877                 1.0880
 Frc consts  --      6.4937                 6.5298                 6.6182
 IR Inten    --      3.2730                13.5434                 1.2325

                     64                     65                     66
                      A                      A                      A
 Frequencies --   3215.7561              3222.7904              3229.3515
 Red. masses --      1.0942                 1.0909                 1.0973
 Frc consts  --      6.6665                 6.6758                 6.7422
 IR Inten    --     34.6670                 1.3096                20.1476

                     67                     68                     69
                      A                      A                      A
 Frequencies --   3232.5955              3242.8039              3971.5573
 Red. masses --      1.0951                 1.0993                 1.0783
 Frc consts  --      6.7425                 6.8111                10.0214
 IR Inten    --      5.2665                12.3861               136.0622

 - Thermochemistry -
 -------------------
 Temperature   298.150 Kelvin.  Pressure   1.00000 Atm.
 Atom     1 has atomic number  6 and mass  12.00000

 Molecular mass:   227.04049 amu.
 Principal axes and moments of inertia in atomic units:
                           1         2         3
     Eigenvalues --  1261.663216451.507687713.17089
           X           -0.70604   0.70817   0.00000
           Y            0.70817   0.70604  -0.00001
           Z            0.00001   0.00000   1.00000
 This molecule is an asymmetric top.
 Rotational symmetry number  1.
 Warning -- assumption of classical behavior for rotation
           may cause significant error
 Rotational temperatures (Kelvin)      0.06865     0.01343     0.01123
 Rotational constants (GHZ):           1.43045     0.27974     0.23398
    1 imaginary frequencies ignored.
 Zero-point vibrational energy     496332.9 (Joules/Mol)
                                  118.62641 (Kcal/Mol)
 Warning -- explicit consideration of  18 degrees of freedom as
           vibrations may cause significant error
 Vibrational temperatures:     76.38    98.33   158.92   264.41   284.84
          (Kelvin)            372.26   382.49   419.16   472.17   561.46
                              619.73   634.89   726.08   745.91   762.26
                              784.26   810.90   833.01   902.31   946.10
                             1018.24  1068.40  1079.05  1089.48  1113.30
                             1120.37  1191.22  1258.58  1264.89  1287.25
                             1386.86  1393.75  1410.23  1456.67  1463.68
                             1502.83  1523.42  1582.67  1614.54  1664.86
                             1671.65  1698.47  1716.89  1757.87  1829.54
                             1879.06  1939.81  1991.54  2011.02  2029.53
                             2144.55  2163.07  2199.04  2211.39  2288.06
                             2381.30  2416.11  2460.41  2520.50  4577.74
                             4592.72  4623.06  4626.76  4636.88  4646.32
                             4650.98  4665.67  5714.19

 Zero-point correction=                           0.189043 (Hartree/Particle)
 Thermal correction to Energy=                    0.200734
 Thermal correction to Enthalpy=                  0.201679
 Thermal correction to Gibbs Free Energy=         0.150609
 Sum of electronic and zero-point Energies=          -1028.602121
 Sum of electronic and thermal Energies=             -1028.590430
 Sum of electronic and thermal Enthalpies=           -1028.589486
 Sum of electronic and thermal Free Energies=        -1028.640556

                     E (Thermal)             CV                S
                      KCal/Mol        Cal/Mol-Kelvin    Cal/Mol-Kelvin
 Total                  125.963             47.531            107.486
 Electronic               0.000              0.000              0.000
 Translational            0.889              2.981             42.162
 Rotational               0.889              2.981             32.507
 Vibrational            124.185             41.569             32.817
 Vibration     1          0.596              1.976              4.699
 Vibration     2          0.598              1.969              4.201
 Vibration     3          0.606              1.941              3.261
 Vibration     4          0.631              1.862              2.290
 Vibration     5          0.637              1.843              2.152
 Vibration     6          0.668              1.748              1.670
 Vibration     7          0.672              1.736              1.623
 Vibration     8          0.687              1.690              1.466
 Vibration     9          0.711              1.619              1.269
 Vibration    10          0.758              1.491              0.999
 Vibration    11          0.792              1.403              0.856
 Vibration    12          0.801              1.380              0.823
 Vibration    13          0.860              1.240              0.647
 Vibration    14          0.873              1.209              0.614
 Vibration    15          0.885              1.184              0.588
 Vibration    16          0.900              1.150              0.554
 Vibration    17          0.919              1.110              0.517
 Vibration    18          0.936              1.077              0.487

 Optimization completed.
    -- Stationary point found.
 Normal termination of Gaussian 16 at Wed Oct 28 01:25:03 2020.
