 Gaussian 16, Revision C.01,
 Gaussian 16:  ES64L-G16RevC.01  3-Jul-2019

 ----------------------------------------------------------------------
 #p opt=addgic freq wb97xd/cc-pvdz nosymm int=ultrafine scrf=(solvent=C
 arbonTetraChloride)
 ----------------------------------------------------------------------

 ------------------------------------------------
 NM 2D-scan of HBT TD-WB97XD pVDZ in CTC Relaxed.
 ------------------------------------------------
 Symbolic Z-matrix:
 Charge =  0 Multiplicity = 1

 SCF Done:  E(RwB97XD) =  -1028.81727809     A.U. after   15 cycles
 SCF Done:  E(RwB97XD) =  -1028.82418459     A.U. after   13 cycles
 SCF Done:  E(RwB97XD) =  -1028.82477770     A.U. after   12 cycles
 SCF Done:  E(RwB97XD) =  -1028.82555504     A.U. after   11 cycles
 SCF Done:  E(RwB97XD) =  -1028.82557673     A.U. after   10 cycles
 SCF Done:  E(RwB97XD) =  -1028.82557839     A.U. after    9 cycles
 SCF Done:  E(RwB97XD) =  -1028.82557834     A.U. after    8 cycles
 SCF Done:  E(RwB97XD) =  -1028.82557854     A.U. after    7 cycles
 Optimization completed.
    -- Stationary point found.
 Normal termination of Gaussian 16 at Tue Oct 27 21:55:56 2020.

 --------------------------------------------------------------------
 #P Geom=AllCheck Guess=TCheck SCRF=Check GenChk RwB97XD/CC-pVDZ Freq
 --------------------------------------------------------------------

 Structure from the checkpoint file:  "config_5_5.chk"
 ------------------------------------------------
 NM 2D-scan of HBT TD-WB97XD pVDZ in CTC Relaxed.
 ------------------------------------------------
 Charge =  0 Multiplicity = 1

                          Input orientation:
 ---------------------------------------------------------------------
 Center     Atomic      Atomic             Coordinates (Angstroms)
 Number     Number       Type             X           Y           Z
 ---------------------------------------------------------------------
      1          6           0        1.707309   -3.278882   -0.000044
      2          6           0        0.995022   -2.076171   -0.000036
      3          6           0        1.674176   -0.849848   -0.000003
      4          6           0        3.071549   -0.793700    0.000026
      5          6           0        3.776202   -1.986577    0.000019
      6          6           0        3.097915   -3.216384   -0.000016
      7          1           0        1.193967   -4.240709   -0.000069
      8          1           0        3.573268    0.174358    0.000052
      9          1           0        4.866943   -1.972144    0.000040
     10          1           0        3.670434   -4.145058   -0.000022
     11          7           0        0.846455    0.244817   -0.000004
     12         16           0       -0.743253   -1.777987   -0.000063
     13          6           0       -1.395359    1.060621   -0.000021
     14          6           0       -2.788470    0.881365   -0.000003
     15          6           0       -0.866963    2.388716   -0.000003
     16          6           0       -3.656148    1.964725    0.000054
     17          1           0       -3.193759   -0.133816   -0.000021
     18          6           0       -1.764114    3.473370    0.000064
     19          6           0       -3.132270    3.264820    0.000094
     20          1           0       -4.734160    1.802741    0.000073
     21          1           0       -1.339771    4.478082    0.000081
     22          1           0       -3.806662    4.123481    0.000142
     23          6           0       -0.427639   -0.039183   -0.000040
     24          8           0        0.430578    2.647589   -0.000066
     25          1           0        0.900408    1.738457   -0.000140
 ---------------------------------------------------------------------

 SCF Done:  E(RwB97XD) =  -1028.82557854     A.U. after    1 cycles

 Alpha  occ. eigenvalues --  -89.09108 -19.26814 -14.46974 -10.39786 -10.37117
 Alpha  occ. eigenvalues --  -10.35098 -10.35016 -10.32579 -10.32256 -10.31790
 Alpha  occ. eigenvalues --  -10.31779 -10.31755 -10.31646 -10.31221 -10.30028
 Alpha  occ. eigenvalues --  -10.29780  -8.11078  -6.05943  -6.05580  -6.05121
 Alpha  occ. eigenvalues --   -1.15868  -1.09335  -0.97362  -0.95941  -0.91643
 Alpha  occ. eigenvalues --   -0.88641  -0.85374  -0.84308  -0.83064  -0.75576
 Alpha  occ. eigenvalues --   -0.71371  -0.70484  -0.69345  -0.68352  -0.63120
 Alpha  occ. eigenvalues --   -0.60680  -0.58917  -0.58196  -0.56209  -0.54478
 Alpha  occ. eigenvalues --   -0.54327  -0.53338  -0.52479  -0.51070  -0.50102
 Alpha  occ. eigenvalues --   -0.49605  -0.47528  -0.46034  -0.45323  -0.45026
 Alpha  occ. eigenvalues --   -0.43820  -0.42863  -0.42663  -0.39936  -0.36415
 Alpha  occ. eigenvalues --   -0.36222  -0.32396  -0.31583  -0.28767
 Alpha virt. eigenvalues --   -0.00539   0.04653   0.06911   0.07414   0.07480
 Alpha virt. eigenvalues --    0.11280   0.13564   0.15074   0.16109   0.17865
 Alpha virt. eigenvalues --    0.19041   0.20801   0.21761   0.22596   0.22614

 Mulliken charges:
               1
     1  C    0.006721
     2  C   -0.227620
     3  C    0.255105
     4  C   -0.012224
     5  C    0.007797
     6  C    0.000252
     7  H    0.020703
     8  H    0.021079
     9  H    0.021087
    10  H    0.022436
    11  N   -0.337485
    12  S    0.152654
    13  C   -0.084674
    14  C   -0.016684
    15  C    0.082954
    16  C   -0.012479
    17  H    0.008368
    18  C    0.004458
    19  C    0.021261
    20  H    0.008913
    21  H    0.013728
    22  H    0.017406
    23  C    0.083005
    24  O   -0.228538
    25  H    0.171777
 Sum of Mulliken charges =  -0.00000

 Dipole moment (field-independent basis, Debye):
    X=              0.3185    Y=             -2.8219    Z=             -0.0000  Tot=              2.8398
 Quadrupole moment (field-independent basis, Debye-Ang):
   XX=            -82.7378   YY=            -90.3307   ZZ=           -104.1104
   XY=             -7.1654   XZ=             -0.0002   YZ=              0.0004

  Exact polarizability:     276.012     -67.663     257.490      -0.001       0.003      63.004
 Approx polarizability:     263.516     -23.678     243.501      -0.000       0.003      82.234

                      1                      2                      3
                      A                      A                      A
 Frequencies --     26.5122                61.0546               123.0482
 Red. masses --      5.5139                 5.9863                 5.6409
 Frc consts  --      0.0023                 0.0131                 0.0503
 IR Inten    --      0.0247                 1.3983                 1.5215

                      4                      5                      6
                      A                      A                      A
 Frequencies --    152.3751               198.2980               244.7649
 Red. masses --      4.9586                 5.8206                 5.7730
 Frc consts  --      0.0678                 0.1349                 0.2038
 IR Inten    --      0.0815                 0.4827                 0.0864

                      7                      8                      9
                      A                      A                      A
 Frequencies --    271.0482               326.3262               335.5803
 Red. masses --      7.3783                 5.1398                 6.3403
 Frc consts  --      0.3194                 0.3225                 0.4207
 IR Inten    --      0.7833                 0.3480                 8.7108

                     10                     11                     12
                      A                      A                      A
 Frequencies --    407.9888               437.4294               463.9115
 Red. masses --     10.0164                 3.1374                 3.6693
 Frc consts  --      0.9823                 0.3537                 0.4653
 IR Inten    --      0.1847                 2.0773                 8.3369

                     13                     14                     15
                      A                      A                      A
 Frequencies --    515.4903               529.2276               539.4103
 Red. masses --      8.6487                 5.2410                 3.4688
 Frc consts  --      1.3541                 0.8649                 0.5947
 IR Inten    --      0.0658                16.8755                 3.6829

                     16                     17                     18
                      A                      A                      A
 Frequencies --    552.8767               574.0188               593.6858
 Red. masses --      7.6286                 3.6862                 7.6385
 Frc consts  --      1.3739                 0.7156                 1.5862
 IR Inten    --      4.5539                 0.0746                 4.1966

                     19                     20                     21
                      A                      A                      A
 Frequencies --    648.0837               685.2522               712.1364
 Red. masses --      6.3041                 6.3564                 6.8036
 Frc consts  --      1.5600                 1.7586                 2.0329
 IR Inten    --      0.0036                11.5354                24.5383

                     22                     23                     24
                      A                      A                      A
 Frequencies --    747.3050               755.0180               766.9088
 Red. masses --     10.2313                 2.0622                 3.0715
 Frc consts  --      3.3665                 0.6926                 1.0644
 IR Inten    --     12.6405                24.3650                 1.6364

                     25                     26                     27
                      A                      A                      A
 Frequencies --    775.7169               785.5628               847.4555
 Red. masses --      1.3701                 1.8567                 5.9276
 Frc consts  --      0.4857                 0.6751                 2.5082
 IR Inten    --     64.4430                35.9916                18.3275

                     28                     29                     30
                      A                      A                      A
 Frequencies --    883.5298               886.3283               908.5924
 Red. masses --      1.5665                 1.4158                 6.6519
 Frc consts  --      0.7205                 0.6553                 3.2355
 IR Inten    --      5.2779                 0.1088                 0.5348

                     31                     32                     33
                      A                      A                      A
 Frequencies --    969.9914               975.2459               985.8803
 Red. masses --      1.3561                 1.3399                 1.0910
 Frc consts  --      0.7518                 0.7508                 0.6248
 IR Inten    --      2.2418                 0.6733                72.8041

                     34                     35                     36
                      A                      A                      A
 Frequencies --    995.5797              1010.7989              1015.9956
 Red. masses --      7.4551                 1.3002                 1.3045
 Frc consts  --      4.3536                 0.7827                 0.7934
 IR Inten    --     59.8045                 0.7954                 0.1680

                     37                     38                     39
                      A                      A                      A
 Frequencies --   1052.9221              1065.8650              1096.3027
 Red. masses --      2.0285                 1.9414                 4.2602
 Frc consts  --      1.3250                 1.2994                 3.0167
 IR Inten    --      8.4188                10.5000                 5.1913

                     40                     41                     42
                      A                      A                      A
 Frequencies --   1146.3160              1152.5736              1172.2689
 Red. masses --      1.4854                 1.2899                 1.1180
 Frc consts  --      1.1500                 1.0096                 0.9052
 IR Inten    --     13.4576                 3.4850                46.1078

                     43                     44                     45
                      A                      A                      A
 Frequencies --   1184.6619              1254.5733              1286.5361
 Red. masses --      1.1813                 1.8627                 1.5541
 Frc consts  --      0.9768                 1.7273                 1.5156
 IR Inten    --      0.3922               107.3028                 6.6293

                     46                     47                     48
                      A                      A                      A
 Frequencies --   1296.7112              1341.2704              1348.6928
 Red. masses --      2.6737                 5.4592                 3.6485
 Frc consts  --      2.6488                 5.7865                 3.9101
 IR Inten    --    177.0915                14.5139                14.7042

                     49                     50                     51
                      A                      A                      A
 Frequencies --   1377.2023              1381.2306              1482.7540
 Red. masses --      7.2647                 3.0260                 2.3562
 Frc consts  --      8.1183                 3.4014                 3.0521
 IR Inten    --     12.4044                18.1662                 7.5026

                     52                     53                     54
                      A                      A                      A
 Frequencies --   1492.2223              1496.7676              1523.9283
 Red. masses --      2.9548                 2.8181                 4.1230
 Frc consts  --      3.8765                 3.7198                 5.6415
 IR Inten    --      1.1004                43.9946               107.8538

                     55                     56                     57
                      A                      A                      A
 Frequencies --   1580.0621              1593.5552              1653.2363
 Red. masses --      4.2486                 3.2827                 6.7335
 Frc consts  --      6.2495                 4.9115                10.8433
 IR Inten    --    229.9614                78.1561                 8.4779

                     58                     59                     60
                      A                      A                      A
 Frequencies --   1677.5631              1687.7491              1708.9302
 Red. masses --      5.1283                 3.1233                 3.8194
 Frc consts  --      8.5033                 5.2418                 6.5720
 IR Inten    --     94.0443               188.7071               192.0979

                     61                     62                     63
                      A                      A                      A
 Frequencies --   2676.7969              3190.9727              3205.0427
 Red. masses --      1.0787                 1.0897                 1.0884
 Frc consts  --      4.5539                 6.5375                 6.5870
 IR Inten    --   1464.4659                 4.4915                 5.5870

                     64                     65                     66
                      A                      A                      A
 Frequencies --   3212.9208              3223.8797              3226.7261
 Red. masses --      1.0862                 1.0906                 1.0938
 Frc consts  --      6.6065                 6.6781                 6.7101
 IR Inten    --      1.7518                 3.5469                11.9778

                     67                     68                     69
                      A                      A                      A
 Frequencies --   3234.0496              3234.8472              3240.0425
 Red. masses --      1.0960                 1.0986                 1.0998
 Frc consts  --      6.7540                 6.7733                 6.8024
 IR Inten    --      9.3197                18.2623                13.7020

 - Thermochemistry -
 -------------------
 Temperature   298.150 Kelvin.  Pressure   1.00000 Atm.
 Atom     1 has atomic number  6 and mass  12.00000

 Molecular mass:   227.04049 amu.
 Principal axes and moments of inertia in atomic units:
                           1         2         3
     Eigenvalues --  1317.804516294.837467612.64197
           X           -0.70201   0.71216  -0.00000
           Y            0.71216   0.70201  -0.00001
           Z            0.00001   0.00001   1.00000
 This molecule is an asymmetric top.
 Rotational symmetry number  1.
 Warning -- assumption of classical behavior for rotation
           may cause significant error
 Rotational temperatures (Kelvin)      0.06573     0.01376     0.01138
 Rotational constants (GHZ):           1.36951     0.28670     0.23707
 Zero-point vibrational energy     497692.0 (Joules/Mol)
                                  118.95124 (Kcal/Mol)
 Warning -- explicit consideration of  18 degrees of freedom as
           vibrations may cause significant error
 Vibrational temperatures:     38.15    87.84   177.04   219.23   285.31
          (Kelvin)            352.16   389.98   469.51   482.83   587.00
                              629.36   667.47   741.68   761.44   776.09
                              795.47   825.89   854.18   932.45   985.93
                             1024.61  1075.21  1086.30  1103.41  1116.08
                             1130.25  1219.30  1271.20  1275.23  1307.26
                             1395.60  1403.16  1418.46  1432.42  1454.31
                             1461.79  1514.92  1533.54  1577.34  1649.29
                             1658.30  1686.63  1704.46  1805.05  1851.04
                             1865.68  1929.79  1940.47  1981.49  1987.28
                             2133.35  2146.98  2153.51  2192.59  2273.36
                             2292.77  2378.64  2413.64  2428.29  2458.77
                             3851.31  4591.10  4611.34  4622.68  4638.44
                             4642.54  4653.08  4654.22  4661.70

 Zero-point correction=                           0.189561 (Hartree/Particle)
 Thermal correction to Energy=                    0.201205
 Thermal correction to Enthalpy=                  0.202149
 Thermal correction to Gibbs Free Energy=         0.150502
 Sum of electronic and zero-point Energies=          -1028.636018
 Sum of electronic and thermal Energies=             -1028.624374
 Sum of electronic and thermal Enthalpies=           -1028.623430
 Sum of electronic and thermal Free Energies=        -1028.675077

                     E (Thermal)             CV                S
                      KCal/Mol        Cal/Mol-Kelvin    Cal/Mol-Kelvin
 Total                  126.258             47.243            108.700
 Electronic               0.000              0.000              0.000
 Translational            0.889              2.981             42.162
 Rotational               0.889              2.981             32.513
 Vibrational            124.480             41.281             34.025
 Vibration     1          0.593              1.984              6.075
 Vibration     2          0.597              1.973              4.423
 Vibration     3          0.610              1.930              3.052
 Vibration     4          0.619              1.900              2.642
 Vibration     5          0.637              1.842              2.149
 Vibration     6          0.660              1.771              1.768
 Vibration     7          0.675              1.727              1.590
 Vibration     8          0.710              1.623              1.278
 Vibration     9          0.717              1.604              1.233
 Vibration    10          0.773              1.453              0.934
 Vibration    11          0.798              1.389              0.835
 Vibration    12          0.821              1.330              0.755
 Vibration    13          0.871              1.216              0.621
 Vibration    14          0.884              1.185              0.589
 Vibration    15          0.894              1.163              0.567
 Vibration    16          0.908              1.133              0.538
 Vibration    17          0.930              1.087              0.497
 Vibration    18          0.951              1.045              0.461

 Optimization completed.
    -- Stationary point found.
 Normal termination of Gaussian 16 at Tue Oct 27 22:02:30 2020.
