 Gaussian 16, Revision C.01,
 Gaussian 16:  ES64L-G16RevC.01  3-Jul-2019

 ----------------------------------------------------------------------
 #p opt=addgic freq wb97xd/cc-pvdz nosymm int=ultrafine scrf=(solvent=C
 arbonTetraChloride)
 ----------------------------------------------------------------------

 ------------------------------------------------
 NM 2D-scan of HBT TD-WB97XD pVDZ in CTC Relaxed.
 ------------------------------------------------
 Symbolic Z-matrix:
 Charge =  0 Multiplicity = 1

 SCF Done:  E(RwB97XD) =  -1028.55239736     A.U. after   16 cycles
 SCF Done:  E(RwB97XD) =  -1028.73066354     A.U. after   14 cycles
 SCF Done:  E(RwB97XD) =  -1028.77683829     A.U. after   15 cycles
 SCF Done:  E(RwB97XD) =  -1028.79149873     A.U. after   13 cycles
 SCF Done:  E(RwB97XD) =  -1028.79265102     A.U. after   12 cycles
 SCF Done:  E(RwB97XD) =  -1028.79296485     A.U. after   12 cycles
 SCF Done:  E(RwB97XD) =  -1028.79299514     A.U. after   10 cycles
 SCF Done:  E(RwB97XD) =  -1028.79299776     A.U. after    9 cycles
 Optimization completed.
    -- Stationary point found.
 Normal termination of Gaussian 16 at Tue Oct 27 23:05:17 2020.

 --------------------------------------------------------------------
 #P Geom=AllCheck Guess=TCheck SCRF=Check GenChk RwB97XD/CC-pVDZ Freq
 --------------------------------------------------------------------

 Structure from the checkpoint file:  "config_12_9.chk"
 ------------------------------------------------
 NM 2D-scan of HBT TD-WB97XD pVDZ in CTC Relaxed.
 ------------------------------------------------
 Charge =  0 Multiplicity = 1

                          Input orientation:
 ---------------------------------------------------------------------
 Center     Atomic      Atomic             Coordinates (Angstroms)
 Number     Number       Type             X           Y           Z
 ---------------------------------------------------------------------
      1          6           0        1.665614   -3.282362    0.000079
      2          6           0        1.012299   -2.055484    0.000039
      3          6           0        1.739222   -0.884708   -0.000051
      4          6           0        3.132458   -0.862289   -0.000084
      5          6           0        3.784625   -2.092377   -0.000035
      6          6           0        3.059242   -3.287336    0.000041
      7          1           0        1.105396   -4.216910    0.000134
      8          1           0        3.684418    0.078757   -0.000147
      9          1           0        4.874907   -2.118898   -0.000060
     10          1           0        3.589418   -4.240000    0.000069
     11          7           0        0.888144    0.202671   -0.000115
     12         16           0       -0.727070   -1.681483    0.000065
     13          6           0       -1.394214    1.095875   -0.000053
     14          6           0       -2.790035    0.858709   -0.000105
     15          6           0       -0.848273    2.457179    0.000064
     16          6           0       -3.699721    1.893363   -0.000034
     17          1           0       -3.152917   -0.173746   -0.000212
     18          6           0       -1.877122    3.505906    0.000172
     19          6           0       -3.220982    3.230251    0.000120
     20          1           0       -4.770273    1.686793   -0.000084
     21          1           0       -1.519592    4.537688    0.000291
     22          1           0       -3.942610    4.051602    0.000197
     23          6           0       -0.448672    0.037218   -0.000060
     24          8           0        0.371437    2.660009    0.000090
     25          1           0        1.427626    1.025795   -0.000244
 ---------------------------------------------------------------------

 SCF Done:  E(RwB97XD) =  -1028.79299776     A.U. after    1 cycles

 Alpha  occ. eigenvalues --  -89.10008 -19.21063 -14.51879 -10.41837 -10.36803
 Alpha  occ. eigenvalues --  -10.35978 -10.35825 -10.33373 -10.33133 -10.32703
 Alpha  occ. eigenvalues --  -10.32337 -10.31082 -10.30600 -10.30472 -10.29035
 Alpha  occ. eigenvalues --  -10.28524  -8.12030  -6.06924  -6.06523  -6.06032
 Alpha  occ. eigenvalues --   -1.13314  -1.10250  -0.98674  -0.95325  -0.93279
 Alpha  occ. eigenvalues --   -0.89229  -0.86570  -0.84045  -0.81525  -0.75635
 Alpha  occ. eigenvalues --   -0.74338  -0.71646  -0.69538  -0.67758  -0.64322
 Alpha  occ. eigenvalues --   -0.60903  -0.59809  -0.56612  -0.56042  -0.55988
 Alpha  occ. eigenvalues --   -0.55028  -0.53563  -0.52900  -0.50312  -0.49340
 Alpha  occ. eigenvalues --   -0.49015  -0.48216  -0.46690  -0.45652  -0.44695
 Alpha  occ. eigenvalues --   -0.44537  -0.42882  -0.41751  -0.40380  -0.36939
 Alpha  occ. eigenvalues --   -0.33630  -0.31704  -0.31136  -0.26046
 Alpha virt. eigenvalues --   -0.01341   0.03702   0.06022   0.06853   0.09651
 Alpha virt. eigenvalues --    0.11261   0.12982   0.14568   0.15907   0.16759
 Alpha virt. eigenvalues --    0.18260   0.19785   0.21078   0.21634   0.23027

 Mulliken charges:
               1
     1  C    0.010686
     2  C   -0.245554
     3  C    0.215214
     4  C   -0.014068
     5  C    0.012048
     6  C    0.003450
     7  H    0.024684
     8  H    0.032601
     9  H    0.027947
    10  H    0.026189
    11  N   -0.082719
    12  S    0.177603
    13  C   -0.113434
    14  C   -0.008990
    15  C    0.107117
    16  C   -0.035998
    17  H    0.003915
    18  C   -0.044334
    19  C    0.028867
    20  H    0.002256
    21  H    0.000644
    22  H    0.013540
    23  C    0.105176
    24  O   -0.361382
    25  H    0.114542
 Sum of Mulliken charges =   0.00000

 Dipole moment (field-independent basis, Debye):
    X=              2.2511    Y=             -5.2562    Z=             -0.0004  Tot=              5.7179
 Quadrupole moment (field-independent basis, Debye-Ang):
   XX=            -81.3503   YY=            -95.2191   ZZ=           -104.0157
   XY=             -6.6038   XZ=             -0.0008   YZ=             -0.0007

  Exact polarizability:     291.873     -91.949     289.714      -0.002       0.003      62.955
 Approx polarizability:     268.948     -36.413     255.330      -0.002       0.001      81.956

 ******    1 imaginary frequencies (negative Signs) ******

                      1                      2                      3
                      A                      A                      A
 Frequencies --    -75.3789                53.5471                72.7764
 Red. masses --      2.9710                 5.6277                 5.8702
 Frc consts  --      0.0099                 0.0095                 0.0183
 IR Inten    --     10.3024                 0.0164                 2.7286

                      4                      5                      6
                      A                      A                      A
 Frequencies --    109.9342               185.9862               214.6031
 Red. masses --      5.6628                 4.7307                 4.6173
 Frc consts  --      0.0403                 0.0964                 0.1253
 IR Inten    --      0.7303                 2.8286                13.2956

                      7                      8                      9
                      A                      A                      A
 Frequencies --    266.6382               276.7896               310.3445
 Red. masses --      7.5082                 2.3881                 7.4682
 Frc consts  --      0.3145                 0.1078                 0.4238
 IR Inten    --      3.6656                26.3218                 4.7565

                     10                     11                     12
                      A                      A                      A
 Frequencies --    345.2552               382.9309               433.1784
 Red. masses --      2.2955                 7.7926                 2.9098
 Frc consts  --      0.1612                 0.6732                 0.3217
 IR Inten    --     28.2664                 5.0412                 5.1207

                     13                     14                     15
                      A                      A                      A
 Frequencies --    441.7867               500.9049               522.9878
 Red. masses --      3.4855                 7.8146                 2.6890
 Frc consts  --      0.4008                 1.1552                 0.4333
 IR Inten    --      5.9023                 8.9928                 2.9653

                     16                     17                     18
                      A                      A                      A
 Frequencies --    535.4096               545.5543               562.4860
 Red. masses --      7.8578                 6.9486                 3.7753
 Frc consts  --      1.3272                 1.2185                 0.7038
 IR Inten    --      7.7508                 6.4488                 0.0200

                     19                     20                     21
                      A                      A                      A
 Frequencies --    581.5400               630.3725               661.5009
 Red. masses --      7.4177                 6.9503                 6.2359
 Frc consts  --      1.4780                 1.6272                 1.6077
 IR Inten    --     40.1950                 1.0763                 1.8157

                     22                     23                     24
                      A                      A                      A
 Frequencies --    697.1825               738.4763               750.6846
 Red. masses --      5.6294                 7.3014                 2.7290
 Frc consts  --      1.6122                 2.3460                 0.9061
 IR Inten    --     51.5675                36.7052                 9.0109

                     25                     26                     27
                      A                      A                      A
 Frequencies --    759.1389               775.7140               779.3244
 Red. masses --      1.4278                 1.5362                 2.4171
 Frc consts  --      0.4848                 0.5446                 0.8649
 IR Inten    --     47.4266                52.4698                22.3131

                     28                     29                     30
                      A                      A                      A
 Frequencies --    826.6836               875.3703               880.3135
 Red. masses --      6.2122                 2.0332                 1.3733
 Frc consts  --      2.5014                 0.9179                 0.6270
 IR Inten    --     27.2875                14.7070                 0.9847

                     31                     32                     33
                      A                      A                      A
 Frequencies --    902.4938               967.8076               970.9096
 Red. masses --      5.9473                 1.3226                 1.3572
 Frc consts  --      2.8540                 0.7299                 0.7538
 IR Inten    --      3.2116                 0.1439                 1.4363

                     34                     35                     36
                      A                      A                      A
 Frequencies --    971.3908              1014.5979              1016.2684
 Red. masses --      4.0751                 1.3016                 1.3051
 Frc consts  --      2.2656                 0.7894                 0.7942
 IR Inten    --     25.7229                 0.0044                 0.3361

                     37                     38                     39
                      A                      A                      A
 Frequencies --   1045.7087              1060.5606              1091.8857
 Red. masses --      2.0991                 2.1573                 2.5992
 Frc consts  --      1.3524                 1.4297                 1.8258
 IR Inten    --      7.1201                12.2981                30.9639

                     40                     41                     42
                      A                      A                      A
 Frequencies --   1097.8393              1156.2947              1158.3784
 Red. masses --      2.3228                 1.2621                 1.3499
 Frc consts  --      1.6495                 0.9942                 1.0672
 IR Inten    --     34.5071                39.9941                 6.1395

                     43                     44                     45
                      A                      A                      A
 Frequencies --   1181.5140              1189.4949              1223.7398
 Red. masses --      1.1694                 1.1566                 2.3242
 Frc consts  --      0.9618                 0.9642                 2.0507
 IR Inten    --     59.1313                 4.6809                61.9442

                     46                     47                     48
                      A                      A                      A
 Frequencies --   1282.3478              1305.6065              1362.2500
 Red. masses --      2.1386                 1.7075                 2.5136
 Frc consts  --      2.0720                 1.7149                 2.7483
 IR Inten    --    100.9404               125.3889                61.1152

                     49                     50                     51
                      A                      A                      A
 Frequencies --   1380.8316              1397.4096              1412.3725
 Red. masses --      5.8225                 6.0786                 2.2167
 Frc consts  --      6.5410                 6.9936                 2.6052
 IR Inten    --     39.7050               106.0467                 5.3886

                     52                     53                     54
                      A                      A                      A
 Frequencies --   1485.5416              1504.5084              1531.3063
 Red. masses --      3.2244                 3.1035                 3.5194
 Frc consts  --      4.1925                 4.1390                 4.8624
 IR Inten    --    655.2510               869.1250               948.7442

                     55                     56                     57
                      A                      A                      A
 Frequencies --   1542.0451              1588.0535              1653.0506
 Red. masses --      3.4145                 6.6668                 5.9700
 Frc consts  --      4.7838                 9.9060                 9.6116
 IR Inten    --     90.5803                44.3104                60.0445

                     58                     59                     60
                      A                      A                      A
 Frequencies --   1679.4380              1711.5233              1744.4675
 Red. masses --      7.0941                 7.9996                 9.5791
 Frc consts  --     11.7889                13.8066                17.1751
 IR Inten    --     37.7380                29.5142               446.6279

                     61                     62                     63
                      A                      A                      A
 Frequencies --   3178.4544              3190.7970              3216.5529
 Red. masses --      1.0892                 1.0878                 1.0942
 Frc consts  --      6.4833                 6.5250                 6.6701
 IR Inten    --      5.5284                14.6058                31.3176

                     64                     65                     66
                      A                      A                      A
 Frequencies --   3217.7922              3228.2681              3230.9954
 Red. masses --      1.0868                 1.0911                 1.0967
 Frc consts  --      6.6298                 6.6998                 6.7458
 IR Inten    --      2.2716                 1.3746                19.8403

                     67                     68                     69
                      A                      A                      A
 Frequencies --   3236.1178              3245.5452              3975.3366
 Red. masses --      1.0963                 1.0992                 1.0779
 Frc consts  --      6.7644                 6.8216                10.0363
 IR Inten    --      3.8580                12.3620               124.2749

 - Thermochemistry -
 -------------------
 Temperature   298.150 Kelvin.  Pressure   1.00000 Atm.
 Atom     1 has atomic number  6 and mass  12.00000

 Molecular mass:   227.04049 amu.
 Principal axes and moments of inertia in atomic units:
                           1         2         3
     Eigenvalues --  1280.467606417.220357697.68794
           X           -0.70703   0.70719   0.00000
           Y            0.70719   0.70703  -0.00001
           Z            0.00001   0.00000   1.00000
 This molecule is an asymmetric top.
 Rotational symmetry number  1.
 Warning -- assumption of classical behavior for rotation
           may cause significant error
 Rotational temperatures (Kelvin)      0.06764     0.01350     0.01125
 Rotational constants (GHZ):           1.40944     0.28123     0.23445
    1 imaginary frequencies ignored.
 Zero-point vibrational energy     496850.5 (Joules/Mol)
                                  118.75011 (Kcal/Mol)
 Warning -- explicit consideration of  18 degrees of freedom as
           vibrations may cause significant error
 Vibrational temperatures:     77.04   104.71   158.17   267.59   308.77
          (Kelvin)            383.63   398.24   446.52   496.75   550.95
                              623.25   635.63   720.69   752.46   770.34
                              784.93   809.29   836.71   906.97   951.75
                             1003.09  1062.50  1080.07  1092.23  1116.08
                             1121.27  1189.41  1259.46  1266.57  1298.49
                             1392.46  1396.92  1397.61  1459.78  1462.18
                             1504.54  1525.91  1570.98  1579.55  1663.65
                             1666.65  1699.94  1711.42  1760.69  1845.01
                             1878.48  1959.97  1986.71  2010.56  2032.09
                             2137.36  2164.65  2203.21  2218.66  2284.85
                             2378.37  2416.34  2462.50  2509.90  4573.09
                             4590.85  4627.90  4629.69  4644.76  4648.68
                             4656.05  4669.62  5719.62

 Zero-point correction=                           0.189240 (Hartree/Particle)
 Thermal correction to Energy=                    0.200825
 Thermal correction to Enthalpy=                  0.201770
 Thermal correction to Gibbs Free Energy=         0.150984
 Sum of electronic and zero-point Energies=          -1028.603757
 Sum of electronic and thermal Energies=             -1028.592172
 Sum of electronic and thermal Enthalpies=           -1028.591228
 Sum of electronic and thermal Free Energies=        -1028.642014

                     E (Thermal)             CV                S
                      KCal/Mol        Cal/Mol-Kelvin    Cal/Mol-Kelvin
 Total                  126.020             47.402            106.887
 Electronic               0.000              0.000              0.000
 Translational            0.889              2.981             42.162
 Rotational               0.889              2.981             32.514
 Vibrational            124.242             41.441             32.211
 Vibration     1          0.596              1.976              4.682
 Vibration     2          0.599              1.967              4.077
 Vibration     3          0.606              1.941              3.270
 Vibration     4          0.632              1.859              2.267
 Vibration     5          0.645              1.819              2.004
 Vibration     6          0.672              1.734              1.618
 Vibration     7          0.678              1.716              1.553
 Vibration     8          0.699              1.654              1.360
 Vibration     9          0.724              1.585              1.188
 Vibration    10          0.752              1.507              1.028
 Vibration    11          0.794              1.398              0.848
 Vibration    12          0.802              1.379              0.821
 Vibration    13          0.856              1.248              0.656
 Vibration    14          0.878              1.199              0.603
 Vibration    15          0.890              1.172              0.575
 Vibration    16          0.901              1.149              0.553
 Vibration    17          0.918              1.112              0.519
 Vibration    18          0.938              1.071              0.483

 Optimization completed.
    -- Stationary point found.
 Normal termination of Gaussian 16 at Tue Oct 27 23:11:18 2020.
