 Gaussian 16, Revision C.01,
 Gaussian 16:  ES64L-G16RevC.01  3-Jul-2019

 ----------------------------------------------------------------------
 #p opt=addgic freq wb97xd/cc-pvdz nosymm int=ultrafine scrf=(solvent=C
 arbonTetraChloride)
 ----------------------------------------------------------------------

 ------------------------------------------------
 NM 2D-scan of HBT TD-WB97XD pVDZ in CTC Relaxed.
 ------------------------------------------------
 Symbolic Z-matrix:
 Charge =  0 Multiplicity = 1

 SCF Done:  E(RwB97XD) =  -1028.80308268     A.U. after   16 cycles
 SCF Done:  E(RwB97XD) =  -1028.80909838     A.U. after   13 cycles
 SCF Done:  E(RwB97XD) =  -1028.80948464     A.U. after   12 cycles
 SCF Done:  E(RwB97XD) =  -1028.80963972     A.U. after   12 cycles
 SCF Done:  E(RwB97XD) =  -1028.80975496     A.U. after   11 cycles
 SCF Done:  E(RwB97XD) =  -1028.80960439     A.U. after   12 cycles
 SCF Done:  E(RwB97XD) =  -1028.80976455     A.U. after   12 cycles
 SCF Done:  E(RwB97XD) =  -1028.80977398     A.U. after   10 cycles
 Optimization completed.
    -- Stationary point found.
 Normal termination of Gaussian 16 at Wed Oct 28 01:11:23 2020.

 --------------------------------------------------------------------
 #P Geom=AllCheck Guess=TCheck SCRF=Check GenChk RwB97XD/CC-pVDZ Freq
 --------------------------------------------------------------------

 Structure from the checkpoint file:  "config_7_16.chk"
 ------------------------------------------------
 NM 2D-scan of HBT TD-WB97XD pVDZ in CTC Relaxed.
 ------------------------------------------------
 Charge =  0 Multiplicity = 1

                          Input orientation:
 ---------------------------------------------------------------------
 Center     Atomic      Atomic             Coordinates (Angstroms)
 Number     Number       Type             X           Y           Z
 ---------------------------------------------------------------------
      1          6           0        1.541218   -3.239445   -0.000050
      2          6           0        1.003775   -1.957669   -0.000042
      3          6           0        1.784794   -0.789497   -0.000030
      4          6           0        3.179501   -0.925814   -0.000023
      5          6           0        3.724876   -2.211300   -0.000026
      6          6           0        2.922394   -3.360713   -0.000041
      7          1           0        0.890422   -4.114316   -0.000062
      8          1           0        3.824383   -0.046591   -0.000008
      9          1           0        4.810413   -2.320597   -0.000017
     10          1           0        3.382887   -4.349289   -0.000046
     11          7           0        0.985350    0.364295   -0.000012
     12         16           0       -0.696034   -1.581611   -0.000043
     13          6           0       -1.322852    1.101423    0.000068
     14          6           0       -2.686086    0.749361    0.000062
     15          6           0       -0.873224    2.456936    0.000089
     16          6           0       -3.657076    1.722570    0.000040
     17          1           0       -2.973433   -0.305159    0.000061
     18          6           0       -1.912694    3.442681    0.000038
     19          6           0       -3.246685    3.073800    0.000016
     20          1           0       -4.714968    1.460726    0.000027
     21          1           0       -1.625605    4.495500    0.000026
     22          1           0       -4.009116    3.856555   -0.000013
     23          6           0       -0.313460    0.097023    0.000017
     24          8           0        0.392668    2.714395    0.000114
     25          1           0        1.014285    1.562098   -0.000037
 ---------------------------------------------------------------------

 SCF Done:  E(RwB97XD) =  -1028.80977398     A.U. after    1 cycles

 Alpha  occ. eigenvalues --  -89.09341 -19.23513 -14.49977 -10.40293 -10.36830
 Alpha  occ. eigenvalues --  -10.36451 -10.35417 -10.32811 -10.32696 -10.32206
 Alpha  occ. eigenvalues --  -10.32079 -10.31441 -10.31081 -10.30674 -10.29529
 Alpha  occ. eigenvalues --  -10.29335  -8.11511  -6.06359  -6.05993  -6.05547
 Alpha  occ. eigenvalues --   -1.13061  -1.09719  -0.98065  -0.95833  -0.92985
 Alpha  occ. eigenvalues --   -0.88981  -0.86351  -0.83793  -0.82627  -0.75662
 Alpha  occ. eigenvalues --   -0.71895  -0.71443  -0.68787  -0.67847  -0.63860
 Alpha  occ. eigenvalues --   -0.60938  -0.59568  -0.57342  -0.55809  -0.55262
 Alpha  occ. eigenvalues --   -0.54708  -0.53677  -0.52762  -0.50800  -0.49670
 Alpha  occ. eigenvalues --   -0.49450  -0.47378  -0.46566  -0.45345  -0.45018
 Alpha  occ. eigenvalues --   -0.44463  -0.43179  -0.41960  -0.40580  -0.36495
 Alpha  occ. eigenvalues --   -0.34104  -0.33014  -0.31550  -0.27587
 Alpha virt. eigenvalues --   -0.00935   0.04188   0.06152   0.07399   0.08330
 Alpha virt. eigenvalues --    0.11065   0.14768   0.14939   0.16933   0.17761
 Alpha virt. eigenvalues --    0.19051   0.20607   0.21403   0.21853   0.22921

 Mulliken charges:
               1
     1  C    0.020953
     2  C   -0.222507
     3  C    0.259950
     4  C   -0.015201
     5  C    0.005045
     6  C    0.005839
     7  H    0.022402
     8  H    0.028337
     9  H    0.025048
    10  H    0.024676
    11  N   -0.271795
    12  S    0.178425
    13  C   -0.086651
    14  C   -0.025784
    15  C    0.120233
    16  C   -0.020915
    17  H    0.016122
    18  C   -0.020035
    19  C    0.023495
    20  H    0.004431
    21  H    0.007491
    22  H    0.015712
    23  C    0.075437
    24  O   -0.387007
    25  H    0.216300
 Sum of Mulliken charges =  -0.00000

 Dipole moment (field-independent basis, Debye):
    X=              0.8713    Y=             -4.5598    Z=             -0.0003  Tot=              4.6424
 Quadrupole moment (field-independent basis, Debye-Ang):
   XX=            -82.4050   YY=            -93.3499   ZZ=           -103.9422
   XY=             -7.0803   XZ=             -0.0001   YZ=             -0.0005

  Exact polarizability:     279.699     -77.113     268.186      -0.001       0.002      62.794
 Approx polarizability:     263.992     -27.473     249.752       0.000       0.002      82.069

 ******    1 imaginary frequencies (negative Signs) ******

                      1                      2                      3
                      A                      A                      A
 Frequencies --  -1250.2340                55.8823                61.1276
 Red. masses --      1.1165                 4.6264                 6.4456
 Frc consts  --      1.0282                 0.0085                 0.0142
 IR Inten    --   1360.8713                 0.0299                 1.3731

                      4                      5                      6
                      A                      A                      A
 Frequencies --    148.8004               152.0887               202.4207
 Red. masses --      5.5522                 5.1298                 6.4155
 Frc consts  --      0.0724                 0.0699                 0.1549
 IR Inten    --      0.5772                 1.0605                 0.1334

                      7                      8                      9
                      A                      A                      A
 Frequencies --    243.8314               285.7187               322.2095
 Red. masses --      6.0323                 7.1050                 5.2767
 Frc consts  --      0.2113                 0.3417                 0.3228
 IR Inten    --      0.4226                 3.8649                 0.2427

                     10                     11                     12
                      A                      A                      A
 Frequencies --    380.1828               430.2139               433.1780
 Red. masses --      6.1961                11.6145                 3.1260
 Frc consts  --      0.5277                 1.2665                 0.3456
 IR Inten    --      0.8199                 1.1271                 0.6826

                     13                     14                     15
                      A                      A                      A
 Frequencies --    457.6278               517.4777               535.8041
 Red. masses --      3.5407                 8.7263                 3.1440
 Frc consts  --      0.4369                 1.3768                 0.5318
 IR Inten    --      9.9884                 6.0558                 3.9236

                     16                     17                     18
                      A                      A                      A
 Frequencies --    556.5940               570.1174               574.6558
 Red. masses --      8.8300                 3.7240                 7.2372
 Frc consts  --      1.6117                 0.7132                 1.4081
 IR Inten    --      5.7497                 0.1098                 8.3126

                     19                     20                     21
                      A                      A                      A
 Frequencies --    611.0976               648.2065               692.7054
 Red. masses --      7.2716                 6.4496                 6.3073
 Frc consts  --      1.5999                 1.5966                 1.7832
 IR Inten    --     16.4970                 0.0026                 2.1741

                     22                     23                     24
                      A                      A                      A
 Frequencies --    738.7473               753.5533               765.7358
 Red. masses --      6.5237                 2.3655                 1.4771
 Frc consts  --      2.0977                 0.7914                 0.5103
 IR Inten    --     10.6412                18.3960                46.3730

                     25                     26                     27
                      A                      A                      A
 Frequencies --    773.3970               776.1842               779.8026
 Red. masses --      8.0043                 2.5300                 1.7349
 Frc consts  --      2.8208                 0.8981                 0.6216
 IR Inten    --     45.5425                 6.9626                55.5966

                     28                     29                     30
                      A                      A                      A
 Frequencies --    858.4830               876.9949               885.6083
 Red. masses --      6.2429                 1.7114                 1.3810
 Frc consts  --      2.7108                 0.7755                 0.6381
 IR Inten    --     14.7151                 8.5738                 0.4866

                     31                     32                     33
                      A                      A                      A
 Frequencies --    925.8782               963.0152               973.2883
 Red. masses --      7.0396                 1.3464                 1.3630
 Frc consts  --      3.5556                 0.7357                 0.7607
 IR Inten    --      2.6124                 0.5548                 1.7378

                     34                     35                     36
                      A                      A                      A
 Frequencies --   1013.1232              1015.1813              1019.3339
 Red. masses --      1.3071                 1.3058                 7.5561
 Frc consts  --      0.7904                 0.7929                 4.6257
 IR Inten    --      0.3104                 0.0013                 9.3034

                     37                     38                     39
                      A                      A                      A
 Frequencies --   1052.8596              1054.5748              1110.8708
 Red. masses --      2.0125                 1.9348                 3.0435
 Frc consts  --      1.3144                 1.2678                 2.2129
 IR Inten    --      6.4865                10.5464                 1.8031

                     40                     41                     42
                      A                      A                      A
 Frequencies --   1161.1598              1164.7446              1165.9560
 Red. masses --      1.3585                 1.4331                 1.0567
 Frc consts  --      1.0791                 1.1455                 0.8464
 IR Inten    --     10.0704                 2.2480                73.3573

                     43                     44                     45
                      A                      A                      A
 Frequencies --   1174.8262              1183.8818              1251.6569
 Red. masses --      1.0992                 1.2458                 2.0135
 Frc consts  --      0.8939                 1.0288                 1.8585
 IR Inten    --     81.3059                 1.8446                31.4078

                     46                     47                     48
                      A                      A                      A
 Frequencies --   1288.1791              1322.6384              1326.7013
 Red. masses --      1.6201                 4.5064                 2.4761
 Frc consts  --      1.5840                 4.6447                 2.5678
 IR Inten    --     10.5812               217.8183               175.7783

                     49                     50                     51
                      A                      A                      A
 Frequencies --   1371.3357              1397.2119              1408.7399
 Red. masses --      6.4801                 2.3232                 9.0547
 Frc consts  --      7.1799                 2.6722                10.5873
 IR Inten    --     30.0720                 9.5085                49.5630

                     52                     53                     54
                      A                      A                      A
 Frequencies --   1485.4521              1498.0793              1508.4426
 Red. masses --      2.7940                 2.8220                 3.0210
 Frc consts  --      3.6324                 3.7314                 4.0500
 IR Inten    --     27.3171                15.0975                30.7303

                     55                     56                     57
                      A                      A                      A
 Frequencies --   1565.9795              1580.8106              1617.2174
 Red. masses --      5.5061                 6.0590                 6.4807
 Frc consts  --      7.9554                 8.9209                 9.9865
 IR Inten    --   1158.4130               529.5696                84.3157

                     58                     59                     60
                      A                      A                      A
 Frequencies --   1654.5152              1678.8910              1703.2142
 Red. masses --      6.8848                 6.7602                 6.8140
 Frc consts  --     11.1041                11.2268                11.6464
 IR Inten    --      2.3807                 3.9646               241.0030

                     61                     62                     63
                      A                      A                      A
 Frequencies --   1993.5091              3193.2389              3201.1381
 Red. masses --      1.0982                 1.0886                 1.0886
 Frc consts  --      2.5715                 6.5399                 6.5725
 IR Inten    --    270.1849                 3.1579                11.5657

                     64                     65                     66
                      A                      A                      A
 Frequencies --   3211.8856              3221.4451              3224.2855
 Red. masses --      1.0863                 1.0907                 1.0940
 Frc consts  --      6.6026                 6.6692                 6.7010
 IR Inten    --      1.5129                 2.4578                21.0947

                     67                     68                     69
                      A                      A                      A
 Frequencies --   3231.1489              3235.8137              3237.9935
 Red. masses --      1.0958                 1.0981                 1.1000
 Frc consts  --      6.7408                 6.7740                 6.7949
 IR Inten    --      5.8270                17.6332                12.0844

 - Thermochemistry -
 -------------------
 Temperature   298.150 Kelvin.  Pressure   1.00000 Atm.
 Atom     1 has atomic number  6 and mass  12.00000

 Molecular mass:   227.04049 amu.
 Principal axes and moments of inertia in atomic units:
                           1         2         3
     Eigenvalues --  1271.516956232.418877503.93582
           X            0.70731   0.70690  -0.00000
           Y           -0.70690   0.70731  -0.00002
           Z           -0.00001   0.00002   1.00000
 This molecule is an asymmetric top.
 Rotational symmetry number  1.
 Warning -- assumption of classical behavior for rotation
           may cause significant error
 Rotational temperatures (Kelvin)      0.06812     0.01390     0.01154
 Rotational constants (GHZ):           1.41936     0.28957     0.24051
    1 imaginary frequencies ignored.
 Zero-point vibrational energy     487338.7 (Joules/Mol)
                                  116.47674 (Kcal/Mol)
 Warning -- explicit consideration of  18 degrees of freedom as
           vibrations may cause significant error
 Vibrational temperatures:     80.40    87.95   214.09   218.82   291.24
          (Kelvin)            350.82   411.09   463.59   547.00   618.98
                              623.25   658.42   744.54   770.90   800.81
                              820.27   826.80   879.23   932.62   996.65
                             1062.89  1084.20  1101.72  1112.75  1116.76
                             1121.96  1235.17  1261.80  1274.19  1332.13
                             1385.56  1400.34  1457.66  1460.62  1466.59
                             1514.83  1517.30  1598.30  1670.65  1675.81
                             1677.55  1690.31  1703.34  1800.86  1853.40
                             1902.98  1908.83  1973.05  2010.28  2026.86
                             2137.23  2155.40  2170.31  2253.10  2274.43
                             2326.82  2380.48  2415.55  2450.55  2868.22
                             4594.36  4605.72  4621.19  4634.94  4639.03
                             4648.90  4655.61  4658.75

 Zero-point correction=                           0.185617 (Hartree/Particle)
 Thermal correction to Energy=                    0.196983
 Thermal correction to Enthalpy=                  0.197927
 Thermal correction to Gibbs Free Energy=         0.147470
 Sum of electronic and zero-point Energies=          -1028.624156
 Sum of electronic and thermal Energies=             -1028.612791
 Sum of electronic and thermal Enthalpies=           -1028.611847
 Sum of electronic and thermal Free Energies=        -1028.662304

                     E (Thermal)             CV                S
                      KCal/Mol        Cal/Mol-Kelvin    Cal/Mol-Kelvin
 Total                  123.608             46.529            106.196
 Electronic               0.000              0.000              0.000
 Translational            0.889              2.981             42.162
 Rotational               0.889              2.981             32.453
 Vibrational            121.831             40.567             31.581
 Vibration     1          0.596              1.975              4.598
 Vibration     2          0.597              1.973              4.420
 Vibration     3          0.618              1.904              2.688
 Vibration     4          0.619              1.900              2.646
 Vibration     5          0.639              1.836              2.111
 Vibration     6          0.659              1.773              1.775
 Vibration     7          0.684              1.700              1.499
 Vibration     8          0.707              1.631              1.299
 Vibration     9          0.750              1.512              1.038
 Vibration    10          0.791              1.404              0.858
 Vibration    11          0.794              1.398              0.848
 Vibration    12          0.816              1.344              0.773
 Vibration    13          0.872              1.211              0.616
 Vibration    14          0.891              1.171              0.574
 Vibration    15          0.912              1.125              0.531
 Vibration    16          0.926              1.096              0.504
 Vibration    17          0.931              1.086              0.495
 Vibration    18          0.970              1.008              0.431

                           ! Non-Optimized Parameters !
 Normal termination of Gaussian 16 at Wed Oct 28 01:17:45 2020.
