 Gaussian 16, Revision C.01,
 Gaussian 16:  ES64L-G16RevC.01  3-Jul-2019

 ----------------------------------------------------------------------
 #p opt=addgic freq wb97xd/cc-pvdz nosymm int=ultrafine scrf=(solvent=C
 arbonTetraChloride)
 ----------------------------------------------------------------------

 ------------------------------------------------
 NM 2D-scan of HBT TD-WB97XD pVDZ in CTC Relaxed.
 ------------------------------------------------
 Symbolic Z-matrix:
 Charge =  0 Multiplicity = 1

 SCF Done:  E(RwB97XD) =  -1028.80745731     A.U. after   15 cycles
 SCF Done:  E(RwB97XD) =  -1028.81338705     A.U. after   13 cycles
 SCF Done:  E(RwB97XD) =  -1028.81369337     A.U. after   12 cycles
 SCF Done:  E(RwB97XD) =  -1028.81390779     A.U. after   12 cycles
 SCF Done:  E(RwB97XD) =  -1028.81400660     A.U. after   11 cycles
 SCF Done:  E(RwB97XD) =  -1028.81400536     A.U. after   10 cycles
 SCF Done:  E(RwB97XD) =  -1028.81400751     A.U. after   10 cycles
 SCF Done:  E(RwB97XD) =  -1028.81400907     A.U. after    9 cycles
 Optimization completed.
    -- Stationary point found.
 Normal termination of Gaussian 16 at Tue Oct 27 23:26:36 2020.

 --------------------------------------------------------------------
 #P Geom=AllCheck Guess=TCheck SCRF=Check GenChk RwB97XD/CC-pVDZ Freq
 --------------------------------------------------------------------

 Structure from the checkpoint file:  "config_8_10.chk"
 ------------------------------------------------
 NM 2D-scan of HBT TD-WB97XD pVDZ in CTC Relaxed.
 ------------------------------------------------
 Charge =  0 Multiplicity = 1

                          Input orientation:
 ---------------------------------------------------------------------
 Center     Atomic      Atomic             Coordinates (Angstroms)
 Number     Number       Type             X           Y           Z
 ---------------------------------------------------------------------
      1          6           0        1.628645   -3.257534   -0.000049
      2          6           0        0.997007   -2.016161   -0.000027
      3          6           0        1.728586   -0.818602   -0.000000
      4          6           0        3.125179   -0.848029    0.000006
      5          6           0        3.755896   -2.087897   -0.000016
      6          6           0        3.019099   -3.280680   -0.000044
      7          1           0        1.049857   -4.181450   -0.000069
      8          1           0        3.695936    0.080781    0.000028
      9          1           0        4.845818   -2.130785   -0.000012
     10          1           0        3.540052   -4.238821   -0.000060
     11          7           0        0.904649    0.296658    0.000019
     12         16           0       -0.728398   -1.683121   -0.000019
     13          6           0       -1.360056    1.074988    0.000013
     14          6           0       -2.751407    0.815209    0.000026
     15          6           0       -0.846153    2.426116    0.000000
     16          6           0       -3.658793    1.845407    0.000041
     17          1           0       -3.102898   -0.220443    0.000031
     18          6           0       -1.832984    3.466610    0.000023
     19          6           0       -3.177539    3.178838    0.000041
     20          1           0       -4.730097    1.645198    0.000055
     21          1           0       -1.472580    4.496503    0.000018
     22          1           0       -3.896907    4.001414    0.000052
     23          6           0       -0.396480    0.029179    0.000004
     24          8           0        0.409811    2.676229   -0.000025
     25          1           0        1.028663    1.415149    0.000056
 ---------------------------------------------------------------------

 SCF Done:  E(RwB97XD) =  -1028.81400907     A.U. after    1 cycles

 Alpha  occ. eigenvalues --  -89.09812 -19.22652 -14.50454 -10.40798 -10.36847
 Alpha  occ. eigenvalues --  -10.36328 -10.35789 -10.33080 -10.32646 -10.32296
 Alpha  occ. eigenvalues --  -10.32168 -10.31381 -10.30893 -10.30795 -10.29349
 Alpha  occ. eigenvalues --  -10.28922  -8.11862  -6.06729  -6.06359  -6.05886
 Alpha  occ. eigenvalues --   -1.13021  -1.09856  -0.98227  -0.95436  -0.92989
 Alpha  occ. eigenvalues --   -0.89127  -0.86335  -0.83868  -0.82319  -0.75729
 Alpha  occ. eigenvalues --   -0.72044  -0.71612  -0.68766  -0.68107  -0.64233
 Alpha  occ. eigenvalues --   -0.60877  -0.59621  -0.57035  -0.55678  -0.55517
 Alpha  occ. eigenvalues --   -0.54808  -0.53632  -0.52795  -0.50650  -0.49929
 Alpha  occ. eigenvalues --   -0.49258  -0.47864  -0.46612  -0.45417  -0.44919
 Alpha  occ. eigenvalues --   -0.44402  -0.43177  -0.41823  -0.40594  -0.36604
 Alpha  occ. eigenvalues --   -0.33246  -0.33243  -0.31572  -0.27093
 Alpha virt. eigenvalues --   -0.01081   0.04021   0.06178   0.06927   0.08669
 Alpha virt. eigenvalues --    0.11029   0.14083   0.14806   0.16305   0.17597
 Alpha virt. eigenvalues --    0.19068   0.20452   0.21345   0.21759   0.23026

 Mulliken charges:
               1
     1  C    0.015778
     2  C   -0.233595
     3  C    0.269220
     4  C   -0.010403
     5  C    0.009005
     6  C    0.003149
     7  H    0.023815
     8  H    0.029361
     9  H    0.025607
    10  H    0.025236
    11  N   -0.211019
    12  S    0.182215
    13  C   -0.111736
    14  C   -0.014020
    15  C    0.117190
    16  C   -0.025789
    17  H    0.008343
    18  C   -0.013833
    19  C    0.024693
    20  H    0.003683
    21  H    0.004975
    22  H    0.014542
    23  C    0.071107
    24  O   -0.399157
    25  H    0.191632
 Sum of Mulliken charges =  -0.00000

 Dipole moment (field-independent basis, Debye):
    X=              1.1872    Y=             -4.7346    Z=              0.0001  Tot=              4.8812
 Quadrupole moment (field-independent basis, Debye-Ang):
   XX=            -82.4723   YY=            -93.6826   ZZ=           -104.0038
   XY=             -7.0671   XZ=              0.0000   YZ=              0.0005

  Exact polarizability:     282.798     -80.364     275.684      -0.001       0.002      62.885
 Approx polarizability:     265.263     -29.424     253.314      -0.001       0.002      82.057

 ******    1 imaginary frequencies (negative Signs) ******

                      1                      2                      3
                      A                      A                      A
 Frequencies --   -592.8104                57.2280                77.1813
 Red. masses --      1.4881                 5.6419                 4.9580
 Frc consts  --      0.3081                 0.0109                 0.0174
 IR Inten    --    379.0734                 0.9874                 0.8134

                      4                      5                      6
                      A                      A                      A
 Frequencies --    149.0719               149.2162               201.9052
 Red. masses --      5.4817                 5.2498                 6.2349
 Frc consts  --      0.0718                 0.0689                 0.1498
 IR Inten    --      1.4743                 1.1408                 0.0736

                      7                      8                      9
                      A                      A                      A
 Frequencies --    241.1828               283.0310               315.8299
 Red. masses --      6.2870                 7.0243                 5.3448
 Frc consts  --      0.2155                 0.3315                 0.3141
 IR Inten    --      0.6372                 1.5850                 0.5848

                     10                     11                     12
                      A                      A                      A
 Frequencies --    403.7994               420.5621               432.0817
 Red. masses --      5.3949                 9.8997                 3.1692
 Frc consts  --      0.5183                 1.0317                 0.3486
 IR Inten    --      2.9467                 1.3880                 0.7444

                     13                     14                     15
                      A                      A                      A
 Frequencies --    454.9912               514.3979               535.3626
 Red. masses --      3.6060                 8.8322                 3.0177
 Frc consts  --      0.4398                 1.3769                 0.5096
 IR Inten    --     10.0986                 8.1589                 4.5053

                     16                     17                     18
                      A                      A                      A
 Frequencies --    551.3537               565.9768               576.7355
 Red. masses --      8.8869                 3.7155                 7.0410
 Frc consts  --      1.5917                 0.7012                 1.3799
 IR Inten    --      7.8509                 0.0645                15.5031

                     19                     20                     21
                      A                      A                      A
 Frequencies --    610.6221               646.1538               701.7296
 Red. masses --      6.9548                 6.3966                 5.9779
 Frc consts  --      1.5278                 1.5735                 1.7344
 IR Inten    --     11.0209                 0.0082                16.3419

                     22                     23                     24
                      A                      A                      A
 Frequencies --    724.5659               752.6274               764.6309
 Red. masses --      6.6164                 2.5244                 1.4893
 Frc consts  --      2.0466                 0.8425                 0.5130
 IR Inten    --     25.0058                13.0729                48.3460

                     25                     26                     27
                      A                      A                      A
 Frequencies --    775.5240               778.2457               779.1787
 Red. masses --      6.0168                 2.1203                 1.8082
 Frc consts  --      2.1321                 0.7566                 0.6468
 IR Inten    --     40.8455                 0.1055                63.2042

                     28                     29                     30
                      A                      A                      A
 Frequencies --    852.4973               878.5275               884.5445
 Red. masses --      6.2645                 1.7793                 1.3846
 Frc consts  --      2.6824                 0.8091                 0.6383
 IR Inten    --     15.5574                 9.0504                 0.5110

                     31                     32                     33
                      A                      A                      A
 Frequencies --    940.1892               967.8679               972.6504
 Red. masses --      6.2005                 1.3315                 1.3612
 Frc consts  --      3.2293                 0.7349                 0.7587
 IR Inten    --     14.2137                 0.4257                 1.4810

                     34                     35                     36
                      A                      A                      A
 Frequencies --   1014.8288              1015.5843              1025.4950
 Red. masses --      1.3061                 1.3050                 6.3896
 Frc consts  --      0.7925                 0.7931                 3.9591
 IR Inten    --      0.2264                 0.0023                 5.1804

                     37                     38                     39
                      A                      A                      A
 Frequencies --   1051.0802              1054.8603              1105.9873
 Red. masses --      2.0410                 2.0201                 1.0660
 Frc consts  --      1.3285                 1.3244                 0.7682
 IR Inten    --      4.1845                10.4351                73.5387

                     40                     41                     42
                      A                      A                      A
 Frequencies --   1108.7591              1159.3977              1160.3729
 Red. masses --      3.4155                 1.3949                 1.2882
 Frc consts  --      2.4738                 1.1047                 1.0220
 IR Inten    --      4.4679                 4.6028                16.9441

                     43                     44                     45
                      A                      A                      A
 Frequencies --   1180.5619              1188.1830              1258.2014
 Red. masses --      1.1410                 1.2067                 1.8902
 Frc consts  --      0.9369                 1.0037                 1.7630
 IR Inten    --     55.9546                 5.1175                27.3717

                     46                     47                     48
                      A                      A                      A
 Frequencies --   1289.9076              1330.3280              1360.4398
 Red. masses --      1.5377                 2.9653                 3.6560
 Frc consts  --      1.5075                 3.0919                 3.9867
 IR Inten    --     18.6897               253.3851                14.8418

                     49                     50                     51
                      A                      A                      A
 Frequencies --   1375.6861              1395.5873              1413.3715
 Red. masses --      5.0011                 5.0407                 3.0242
 Frc consts  --      5.5764                 5.7843                 3.5593
 IR Inten    --     20.5566                 4.6702                31.2206

                     52                     53                     54
                      A                      A                      A
 Frequencies --   1493.9374              1503.3728              1517.9778
 Red. masses --      2.6751                 2.7896                 3.2757
 Frc consts  --      3.5177                 3.7148                 4.4472
 IR Inten    --     20.1617                22.1381                21.6726

                     55                     56                     57
                      A                      A                      A
 Frequencies --   1574.6515              1590.9593              1608.3146
 Red. masses --      5.5320                 4.5938                 7.4978
 Frc consts  --      8.0816                 6.8509                11.4269
 IR Inten    --   2023.2190               167.2308               172.3870

                     58                     59                     60
                      A                      A                      A
 Frequencies --   1658.9215              1680.5252              1710.2901
 Red. masses --      6.9885                 6.8320                 6.4007
 Frc consts  --     11.3315                11.3681                11.0310
 IR Inten    --     12.6322                16.5560               205.9230

                     61                     62                     63
                      A                      A                      A
 Frequencies --   2202.2024              3187.8719              3197.5761
 Red. masses --      1.1224                 1.0891                 1.0884
 Frc consts  --      3.2072                 6.5212                 6.5569
 IR Inten    --    509.3113                 3.8447                13.3566

                     64                     65                     66
                      A                      A                      A
 Frequencies --   3216.3527              3224.8570              3226.6510
 Red. masses --      1.0864                 1.0943                 1.0909
 Frc consts  --      6.6215                 6.7053                 6.6920
 IR Inten    --      1.5754                20.8108                 3.2465

                     67                     68                     69
                      A                      A                      A
 Frequencies --   3236.0394              3236.8270              3242.7750
 Red. masses --      1.0974                 1.0961                 1.0997
 Frc consts  --      6.7708                 6.7661                 6.8131
 IR Inten    --     18.3677                 6.7297                 9.9579

 - Thermochemistry -
 -------------------
 Temperature   298.150 Kelvin.  Pressure   1.00000 Atm.
 Atom     1 has atomic number  6 and mass  12.00000

 Molecular mass:   227.04049 amu.
 Principal axes and moments of inertia in atomic units:
                           1         2         3
     Eigenvalues --  1296.821956256.922037553.74399
           X           -0.70536   0.70885   0.00000
           Y            0.70885   0.70536  -0.00001
           Z            0.00001   0.00000   1.00000
 This molecule is an asymmetric top.
 Rotational symmetry number  1.
 Warning -- assumption of classical behavior for rotation
           may cause significant error
 Rotational temperatures (Kelvin)      0.06679     0.01384     0.01147
 Rotational constants (GHZ):           1.39166     0.28844     0.23892
    1 imaginary frequencies ignored.
 Zero-point vibrational energy     489022.6 (Joules/Mol)
                                  116.87921 (Kcal/Mol)
 Warning -- explicit consideration of  18 degrees of freedom as
           vibrations may cause significant error
 Vibrational temperatures:     82.34   111.05   214.48   214.69   290.50
          (Kelvin)            347.01   407.22   454.41   580.98   605.10
                              621.67   654.63   740.10   770.27   793.28
                              814.31   829.79   878.55   929.67  1009.63
                             1042.49  1082.86  1100.13  1115.81  1119.72
                             1121.06  1226.55  1264.01  1272.66  1352.72
                             1392.55  1399.43  1460.11  1461.20  1475.46
                             1512.27  1517.71  1591.27  1595.26  1668.11
                             1669.52  1698.57  1709.53  1810.27  1855.89
                             1914.05  1957.37  1979.31  2007.94  2033.53
                             2149.44  2163.02  2184.03  2265.57  2289.04
                             2314.01  2386.82  2417.90  2460.73  3168.48
                             4586.64  4600.60  4627.61  4639.85  4642.43
                             4655.94  4657.07  4665.63

 Zero-point correction=                           0.186259 (Hartree/Particle)
 Thermal correction to Energy=                    0.197606
 Thermal correction to Enthalpy=                  0.198550
 Thermal correction to Gibbs Free Energy=         0.148278
 Sum of electronic and zero-point Energies=          -1028.627750
 Sum of electronic and thermal Energies=             -1028.616403
 Sum of electronic and thermal Enthalpies=           -1028.615459
 Sum of electronic and thermal Free Energies=        -1028.665731

                     E (Thermal)             CV                S
                      KCal/Mol        Cal/Mol-Kelvin    Cal/Mol-Kelvin
 Total                  123.999             46.541            105.806
 Electronic               0.000              0.000              0.000
 Translational            0.889              2.981             42.162
 Rotational               0.889              2.981             32.483
 Vibrational            122.222             40.579             31.161
 Vibration     1          0.596              1.975              4.551
 Vibration     2          0.599              1.964              3.961
 Vibration     3          0.618              1.904              2.684
 Vibration     4          0.618              1.904              2.682
 Vibration     5          0.639              1.837              2.116
 Vibration     6          0.658              1.777              1.794
 Vibration     7          0.682              1.705              1.515
 Vibration     8          0.703              1.643              1.332
 Vibration     9          0.769              1.462              0.949
 Vibration    10          0.783              1.426              0.890
 Vibration    11          0.793              1.400              0.852
 Vibration    12          0.813              1.350              0.781
 Vibration    13          0.869              1.218              0.623
 Vibration    14          0.890              1.172              0.575
 Vibration    15          0.907              1.137              0.541
 Vibration    16          0.922              1.105              0.512
 Vibration    17          0.933              1.082              0.491
 Vibration    18          0.970              1.009              0.432

 Optimization completed.
    -- Stationary point found.
 Normal termination of Gaussian 16 at Tue Oct 27 23:32:42 2020.
