 Gaussian 16, Revision C.01,
 Gaussian 16:  ES64L-G16RevC.01  3-Jul-2019

 ----------------------------------------------------------------------
 #p opt=addgic freq wb97xd/cc-pvdz nosymm int=ultrafine scrf=(solvent=C
 arbonTetraChloride)
 ----------------------------------------------------------------------

 ------------------------------------------------
 NM 2D-scan of HBT TD-WB97XD pVDZ in CTC Relaxed.
 ------------------------------------------------
 Symbolic Z-matrix:
 Charge =  0 Multiplicity = 1

 SCF Done:  E(RwB97XD) =  -1028.78077199     A.U. after   15 cycles
 SCF Done:  E(RwB97XD) =  -1028.82530051     A.U. after   13 cycles
 SCF Done:  E(RwB97XD) =  -1028.82873165     A.U. after   13 cycles
 SCF Done:  E(RwB97XD) =  -1028.82957705     A.U. after   12 cycles
 SCF Done:  E(RwB97XD) =  -1028.82967629     A.U. after   10 cycles
 SCF Done:  E(RwB97XD) =  -1028.82968982     A.U. after    9 cycles
 Optimization completed.
    -- Stationary point found.
 Normal termination of Gaussian 16 at Wed Oct 28 00:56:39 2020.

 --------------------------------------------------------------------
 #P Geom=AllCheck Guess=TCheck SCRF=Check GenChk RwB97XD/CC-pVDZ Freq
 --------------------------------------------------------------------

 Structure from the checkpoint file:  "config_2_17.chk"
 ------------------------------------------------
 NM 2D-scan of HBT TD-WB97XD pVDZ in CTC Relaxed.
 ------------------------------------------------
 Charge =  0 Multiplicity = 1

                          Input orientation:
 ---------------------------------------------------------------------
 Center     Atomic      Atomic             Coordinates (Angstroms)
 Number     Number       Type             X           Y           Z
 ---------------------------------------------------------------------
      1          6           0        1.544361   -3.289743   -0.000019
      2          6           0        0.985161   -2.012265   -0.000006
      3          6           0        1.767053   -0.841793   -0.000023
      4          6           0        3.164275   -0.963139   -0.000056
      5          6           0        3.727215   -2.234555   -0.000067
      6          6           0        2.928201   -3.389764   -0.000048
      7          1           0        0.912339   -4.178263   -0.000008
      8          1           0        3.787948   -0.068437   -0.000069
      9          1           0        4.813478   -2.337025   -0.000091
     10          1           0        3.398425   -4.374181   -0.000059
     11          7           0        1.028108    0.338093    0.000003
     12         16           0       -0.703705   -1.594581    0.000021
     13          6           0       -1.294688    1.126228    0.000065
     14          6           0       -2.652694    0.767955    0.000061
     15          6           0       -0.931940    2.491980    0.000053
     16          6           0       -3.650094    1.726737    0.000014
     17          1           0       -2.930599   -0.288186    0.000077
     18          6           0       -1.951785    3.459698   -0.000008
     19          6           0       -3.286832    3.079090   -0.000029
     20          1           0       -4.698941    1.430291    0.000002
     21          1           0       -1.664346    4.511826   -0.000020
     22          1           0       -4.060478    3.849339   -0.000069
     23          6           0       -0.256692    0.100164    0.000048
     24          8           0        0.344922    2.881765    0.000128
     25          1           0        0.909865    2.064425    0.000220
 ---------------------------------------------------------------------

 SCF Done:  E(RwB97XD) =  -1028.82968982     A.U. after    1 cycles

 Alpha  occ. eigenvalues --  -89.08381 -19.28424 -14.47112 -10.39288 -10.37484
 Alpha  occ. eigenvalues --  -10.35014 -10.34593 -10.32219 -10.32188 -10.31888
 Alpha  occ. eigenvalues --  -10.31685 -10.31535 -10.31527 -10.31430 -10.30342
 Alpha  occ. eigenvalues --  -10.30333  -8.10491  -6.05334  -6.04978  -6.04543
 Alpha  occ. eigenvalues --   -1.16648  -1.08758  -0.97314  -0.96301  -0.91748
 Alpha  occ. eigenvalues --   -0.88573  -0.85477  -0.84697  -0.82841  -0.75462
 Alpha  occ. eigenvalues --   -0.71587  -0.70663  -0.69402  -0.68117  -0.63278
 Alpha  occ. eigenvalues --   -0.60486  -0.58810  -0.58520  -0.56558  -0.54561
 Alpha  occ. eigenvalues --   -0.54007  -0.53213  -0.52969  -0.50756  -0.50468
 Alpha  occ. eigenvalues --   -0.49167  -0.47619  -0.45915  -0.45476  -0.45039
 Alpha  occ. eigenvalues --   -0.44045  -0.43066  -0.42428  -0.39722  -0.37424
 Alpha  occ. eigenvalues --   -0.36211  -0.32025  -0.31757  -0.29243
 Alpha virt. eigenvalues --   -0.00449   0.04896   0.06755   0.07080   0.08077
 Alpha virt. eigenvalues --    0.11452   0.14450   0.15253   0.17022   0.18097
 Alpha virt. eigenvalues --    0.18880   0.20899   0.21541   0.22544   0.22792

 Mulliken charges:
               1
     1  C    0.014023
     2  C   -0.207418
     3  C    0.209165
     4  C   -0.018149
     5  C    0.003563
     6  C    0.001635
     7  H    0.017893
     8  H    0.018195
     9  H    0.019571
    10  H    0.021104
    11  N   -0.352046
    12  S    0.143540
    13  C   -0.040581
    14  C   -0.032136
    15  C    0.061782
    16  C   -0.003836
    17  H    0.021647
    18  C    0.007169
    19  C    0.021159
    20  H    0.010096
    21  H    0.017707
    22  H    0.019276
    23  C    0.085153
    24  O   -0.201772
    25  H    0.163261
 Sum of Mulliken charges =  -0.00000

 Dipole moment (field-independent basis, Debye):
    X=             -0.2557    Y=             -2.4627    Z=              0.0001  Tot=              2.4759
 Quadrupole moment (field-independent basis, Debye-Ang):
   XX=            -82.7164   YY=            -90.0831   ZZ=           -104.0705
   XY=             -7.1824   XZ=              0.0001   YZ=             -0.0000

  Exact polarizability:     272.944     -66.939     253.894      -0.001       0.000      62.886
 Approx polarizability:     261.326     -22.789     241.823      -0.001      -0.000      82.138

                      1                      2                      3
                      A                      A                      A
 Frequencies --     33.8345                62.9035               124.1353
 Red. masses --      5.6349                 5.5799                 5.6573
 Frc consts  --      0.0038                 0.0130                 0.0514
 IR Inten    --      0.1121                 1.0673                 1.3656

                      4                      5                      6
                      A                      A                      A
 Frequencies --    151.4883               197.7114               246.4434
 Red. masses --      5.0224                 6.0496                 5.5902
 Frc consts  --      0.0679                 0.1393                 0.2000
 IR Inten    --      0.0257                 0.8028                 0.0125

                      7                      8                      9
                      A                      A                      A
 Frequencies --    274.1460               308.0812               330.0298
 Red. masses --      7.7681                 6.3557                 5.0696
 Frc consts  --      0.3440                 0.3554                 0.3253
 IR Inten    --      1.2734                 6.6834                 0.0631

                     10                     11                     12
                      A                      A                      A
 Frequencies --    415.8352               438.2442               467.8165
 Red. masses --      9.5660                 3.1133                 3.6547
 Frc consts  --      0.9746                 0.3523                 0.4712
 IR Inten    --      0.2211                 1.8014                 8.0323

                     13                     14                     15
                      A                      A                      A
 Frequencies --    517.2989               521.2382               536.9504
 Red. masses --      8.3879                 5.3602                 3.4491
 Frc consts  --      1.3225                 0.8580                 0.5859
 IR Inten    --      0.1349                 7.9425                 3.6873

                     16                     17                     18
                      A                      A                      A
 Frequencies --    552.6786               576.5496               591.1746
 Red. masses --      7.8397                 3.7525                 7.6875
 Frc consts  --      1.4109                 0.7349                 1.5830
 IR Inten    --      1.9197                 0.0196                 5.5126

                     19                     20                     21
                      A                      A                      A
 Frequencies --    646.6320               678.3999               729.1437
 Red. masses --      5.9418                 6.6819                 6.7633
 Frc consts  --      1.4638                 1.8119                 2.1185
 IR Inten    --      0.0907                 3.0934                25.4383

                     22                     23                     24
                      A                      A                      A
 Frequencies --    742.1594               756.4280               762.2148
 Red. masses --      9.7450                 1.9235                 2.8674
 Frc consts  --      3.1625                 0.6484                 0.9815
 IR Inten    --     12.6816                34.6407                 1.8947

                     25                     26                     27
                      A                      A                      A
 Frequencies --    774.7144               787.0875               830.9750
 Red. masses --      1.3245                 1.9838                 1.1607
 Frc consts  --      0.4684                 0.7241                 0.4722
 IR Inten    --     66.6751                34.2569                75.4884

                     28                     29                     30
                      A                      A                      A
 Frequencies --    849.1919               882.9106               887.8352
 Red. masses --      5.9310                 1.5454                 1.4202
 Frc consts  --      2.5199                 0.7098                 0.6596
 IR Inten    --     18.7260                 3.7598                 1.0982

                     31                     32                     33
                      A                      A                      A
 Frequencies --    888.8061               968.3868               975.9390
 Red. masses --      6.5371                 1.3645                 1.3670
 Frc consts  --      3.0426                 0.7539                 0.7671
 IR Inten    --      4.2267                 1.0094                 1.6657

                     34                     35                     36
                      A                      A                      A
 Frequencies --    998.6192              1011.5833              1015.2748
 Red. masses --      7.6741                 1.3042                 1.3055
 Frc consts  --      4.5090                 0.7863                 0.7928
 IR Inten    --     52.1609                 0.4251                 0.0213

                     37                     38                     39
                      A                      A                      A
 Frequencies --   1051.4654              1069.7924              1105.0637
 Red. masses --      1.9930                 1.9171                 3.5947
 Frc consts  --      1.2982                 1.2927                 2.5864
 IR Inten    --      8.4970                10.5416                 5.8167

                     40                     41                     42
                      A                      A                      A
 Frequencies --   1153.4514              1156.8537              1176.0723
 Red. masses --      1.4383                 1.3663                 1.1284
 Frc consts  --      1.1275                 1.0774                 0.9196
 IR Inten    --      5.4694                 3.3195                38.7351

                     43                     44                     45
                      A                      A                      A
 Frequencies --   1183.4320              1252.8551              1279.8412
 Red. masses --      1.2491                 1.9674                 2.5876
 Frc consts  --      1.0307                 1.8195                 2.4972
 IR Inten    --      0.3009               106.3659                95.7948

                     46                     47                     48
                      A                      A                      A
 Frequencies --   1284.6926              1321.6081              1344.9515
 Red. masses --      1.7010                 2.6564                 4.0368
 Frc consts  --      1.6540                 2.7337                 4.3022
 IR Inten    --     41.3537                23.3847                23.8682

                     49                     50                     51
                      A                      A                      A
 Frequencies --   1370.8999              1379.5511              1471.5189
 Red. masses --      7.5200                 4.7218                 2.1401
 Frc consts  --      8.3268                 5.2946                 2.7304
 IR Inten    --     14.6486                14.4248                17.4373

                     52                     53                     54
                      A                      A                      A
 Frequencies --   1486.9164              1504.5878              1535.4263
 Red. masses --      2.5725                 2.9025                 3.6146
 Frc consts  --      3.3510                 3.8713                 5.0208
 IR Inten    --     50.9910                16.4457               109.7151

                     55                     56                     57
                      A                      A                      A
 Frequencies --   1557.9484              1592.2171              1645.9507
 Red. masses --      2.0658                 5.7131                 6.8097
 Frc consts  --      2.9542                 8.5336                10.8695
 IR Inten    --    163.5266               144.0739                 5.0089

                     58                     59                     60
                      A                      A                      A
 Frequencies --   1673.4653              1679.7578              1708.9025
 Red. masses --      4.3526                 6.4047                 4.9225
 Frc consts  --      7.1817                10.6474                 8.4698
 IR Inten    --    127.2604                24.8422               121.9194

                     61                     62                     63
                      A                      A                      A
 Frequencies --   3204.9367              3209.1307              3212.5454
 Red. masses --      1.0878                 1.0860                 1.0892
 Frc consts  --      6.5830                 6.5896                 6.6232
 IR Inten    --      0.6703                 1.3745                 9.6448

                     64                     65                     66
                      A                      A                      A
 Frequencies --   3219.7490              3229.7696              3229.8398
 Red. masses --      1.0904                 1.0959                 1.0942
 Frc consts  --      6.6599                 6.7357                 6.7254
 IR Inten    --      4.4321                 9.3595                12.1509

                     67                     68                     69
                      A                      A                      A
 Frequencies --   3236.0928              3238.8098              3287.8506
 Red. masses --      1.0998                 1.0994                 1.0684
 Frc consts  --      6.7856                 6.7947                 6.8044
 IR Inten    --     19.4398                15.9670               802.5730

 - Thermochemistry -
 -------------------
 Temperature   298.150 Kelvin.  Pressure   1.00000 Atm.
 Atom     1 has atomic number  6 and mass  12.00000

 Molecular mass:   227.04049 amu.
 Principal axes and moments of inertia in atomic units:
                           1         2         3
     Eigenvalues --  1290.775126345.879427636.65454
           X           -0.69867   0.71544   0.00000
           Y            0.71544   0.69867  -0.00001
           Z            0.00001   0.00000   1.00000
 This molecule is an asymmetric top.
 Rotational symmetry number  1.
 Warning -- assumption of classical behavior for rotation
           may cause significant error
 Rotational temperatures (Kelvin)      0.06710     0.01365     0.01134
 Rotational constants (GHZ):           1.39818     0.28440     0.23633
 Zero-point vibrational energy     499972.1 (Joules/Mol)
                                  119.49620 (Kcal/Mol)
 Warning -- explicit consideration of  18 degrees of freedom as
           vibrations may cause significant error
 Vibrational temperatures:     48.68    90.50   178.60   217.96   284.46
          (Kelvin)            354.58   394.43   443.26   474.84   598.29
                              630.54   673.08   744.28   749.95   772.55
                              795.18   829.53   850.57   930.36   976.07
                             1049.08  1067.80  1088.33  1096.66  1114.64
                             1132.44  1195.59  1221.80  1270.31  1277.40
                             1278.79  1393.29  1404.16  1436.79  1455.44
                             1460.75  1512.82  1539.19  1589.94  1659.56
                             1664.45  1692.11  1702.69  1802.58  1841.41
                             1848.39  1901.50  1935.09  1972.42  1984.87
                             2117.19  2139.34  2164.77  2209.14  2241.54
                             2290.85  2368.16  2407.74  2416.80  2458.73
                             4611.19  4617.22  4622.14  4632.50  4646.92
                             4647.02  4656.02  4659.92  4730.48

 Zero-point correction=                           0.190429 (Hartree/Particle)
 Thermal correction to Energy=                    0.202105
 Thermal correction to Enthalpy=                  0.203049
 Thermal correction to Gibbs Free Energy=         0.151588
 Sum of electronic and zero-point Energies=          -1028.639261
 Sum of electronic and thermal Energies=             -1028.627585
 Sum of electronic and thermal Enthalpies=           -1028.626641
 Sum of electronic and thermal Free Energies=        -1028.678102

                     E (Thermal)             CV                S
                      KCal/Mol        Cal/Mol-Kelvin    Cal/Mol-Kelvin
 Total                  126.823             47.510            108.309
 Electronic               0.000              0.000              0.000
 Translational            0.889              2.981             42.162
 Rotational               0.889              2.981             32.503
 Vibrational            125.045             41.548             33.644
 Vibration     1          0.594              1.983              5.591
 Vibration     2          0.597              1.972              4.364
 Vibration     3          0.610              1.929              3.035
 Vibration     4          0.619              1.901              2.653
 Vibration     5          0.637              1.843              2.154
 Vibration     6          0.661              1.769              1.756
 Vibration     7          0.676              1.721              1.570
 Vibration     8          0.698              1.658              1.373
 Vibration     9          0.713              1.616              1.260
 Vibration    10          0.779              1.436              0.906
 Vibration    11          0.798              1.387              0.832
 Vibration    12          0.825              1.321              0.744
 Vibration    13          0.872              1.212              0.616
 Vibration    14          0.876              1.203              0.607
 Vibration    15          0.892              1.168              0.572
 Vibration    16          0.908              1.134              0.539
 Vibration    17          0.933              1.082              0.492
 Vibration    18          0.949              1.051              0.465

 Optimization completed.
    -- Stationary point found.
 Normal termination of Gaussian 16 at Wed Oct 28 01:02:35 2020.
