 Gaussian 16, Revision C.01,
 Gaussian 16:  ES64L-G16RevC.01  3-Jul-2019

 ----------------------------------------------------------------------
 #p opt=addgic freq wb97xd/cc-pvdz nosymm int=ultrafine scrf=(solvent=C
 arbonTetraChloride)
 ----------------------------------------------------------------------

 ------------------------------------------------
 NM 2D-scan of HBT TD-WB97XD pVDZ in CTC Relaxed.
 ------------------------------------------------
 Symbolic Z-matrix:
 Charge =  0 Multiplicity = 1

 SCF Done:  E(RwB97XD) =  -1028.74987888     A.U. after   16 cycles
 SCF Done:  E(RwB97XD) =  -1028.79914118     A.U. after   13 cycles
 SCF Done:  E(RwB97XD) =  -1028.80839704     A.U. after   13 cycles
 SCF Done:  E(RwB97XD) =  -1028.80917257     A.U. after   12 cycles
 SCF Done:  E(RwB97XD) =  -1028.80919779     A.U. after   11 cycles
 SCF Done:  E(RwB97XD) =  -1028.80919976     A.U. after    9 cycles
 Optimization completed.
    -- Stationary point found.
 Normal termination of Gaussian 16 at Tue Oct 27 23:52:41 2020.

 --------------------------------------------------------------------
 #P Geom=AllCheck Guess=TCheck SCRF=Check GenChk RwB97XD/CC-pVDZ Freq
 --------------------------------------------------------------------

 Structure from the checkpoint file:  "config_10_14.chk"
 ------------------------------------------------
 NM 2D-scan of HBT TD-WB97XD pVDZ in CTC Relaxed.
 ------------------------------------------------
 Charge =  0 Multiplicity = 1

                          Input orientation:
 ---------------------------------------------------------------------
 Center     Atomic      Atomic             Coordinates (Angstroms)
 Number     Number       Type             X           Y           Z
 ---------------------------------------------------------------------
      1          6           0        1.586943   -3.274872   -0.000018
      2          6           0        1.000194   -2.014900   -0.000014
      3          6           0        1.770533   -0.854351   -0.000017
      4          6           0        3.164021   -0.921105   -0.000025
      5          6           0        3.752509   -2.184531   -0.000026
      6          6           0        2.976415   -3.349125   -0.000024
      7          1           0        0.974620   -4.176686   -0.000016
      8          1           0        3.768321   -0.013621   -0.000027
      9          1           0        4.840398   -2.262624   -0.000031
     10          1           0        3.462870   -4.324991   -0.000026
     11          7           0        0.960251    0.270748   -0.000016
     12         16           0       -0.716469   -1.620358   -0.000005
     13          6           0       -1.336754    1.111533    0.000011
     14          6           0       -2.723101    0.795228    0.000014
     15          6           0       -0.868784    2.494171    0.000010
     16          6           0       -3.677539    1.777059    0.000021
     17          1           0       -3.032522   -0.254032    0.000009
     18          6           0       -1.936422    3.487716    0.000044
     19          6           0       -3.260903    3.138872    0.000038
     20          1           0       -4.737564    1.523045    0.000022
     21          1           0       -1.630223    4.535663    0.000073
     22          1           0       -4.022073    3.923466    0.000050
     23          6           0       -0.370556    0.085019   -0.000000
     24          8           0        0.346481    2.784175    0.000074
     25          1           0        1.328156    1.211621   -0.000027
 ---------------------------------------------------------------------

 SCF Done:  E(RwB97XD) =  -1028.80919976     A.U. after    1 cycles

 Alpha  occ. eigenvalues --  -89.09831 -19.21381 -14.52106 -10.41380 -10.37224
 Alpha  occ. eigenvalues --  -10.36058 -10.35843 -10.33231 -10.33031 -10.32564
 Alpha  occ. eigenvalues --  -10.32280 -10.31143 -10.30715 -10.30382 -10.29132
 Alpha  occ. eigenvalues --  -10.28613  -8.11899  -6.06779  -6.06394  -6.05905
 Alpha  occ. eigenvalues --   -1.13014  -1.09913  -0.98605  -0.95444  -0.93264
 Alpha  occ. eigenvalues --   -0.89214  -0.86691  -0.83840  -0.81799  -0.75559
 Alpha  occ. eigenvalues --   -0.73496  -0.72042  -0.69185  -0.67926  -0.64750
 Alpha  occ. eigenvalues --   -0.60916  -0.59742  -0.56705  -0.55948  -0.55923
 Alpha  occ. eigenvalues --   -0.55024  -0.53807  -0.53002  -0.50199  -0.49541
 Alpha  occ. eigenvalues --   -0.49009  -0.48302  -0.46758  -0.45632  -0.44761
 Alpha  occ. eigenvalues --   -0.44511  -0.42943  -0.41879  -0.40414  -0.36856
 Alpha  occ. eigenvalues --   -0.33568  -0.31641  -0.31600  -0.26275
 Alpha virt. eigenvalues --   -0.01252   0.03798   0.05866   0.06949   0.09384
 Alpha virt. eigenvalues --    0.11258   0.13923   0.14729   0.16101   0.17232
 Alpha virt. eigenvalues --    0.18411   0.19902   0.20995   0.21572   0.22946

 Mulliken charges:
               1
     1  C    0.016412
     2  C   -0.237025
     3  C    0.240542
     4  C   -0.010834
     5  C    0.009972
     6  C    0.003938
     7  H    0.024182
     8  H    0.030409
     9  H    0.027170
    10  H    0.025908
    11  N   -0.120846
    12  S    0.181117
    13  C   -0.100428
    14  C   -0.015640
    15  C    0.102516
    16  C   -0.032104
    17  H    0.009560
    18  C   -0.031637
    19  C    0.027751
    20  H    0.002202
    21  H    0.001941
    22  H    0.013782
    23  C    0.083751
    24  O   -0.379009
    25  H    0.126370
 Sum of Mulliken charges =  -0.00000

 Dipole moment (field-independent basis, Debye):
    X=              1.9114    Y=             -5.3110    Z=             -0.0002  Tot=              5.6445
 Quadrupole moment (field-independent basis, Debye-Ang):
   XX=            -81.5893   YY=            -95.7501   ZZ=           -103.9907
   XY=             -6.6498   XZ=             -0.0003   YZ=             -0.0003

  Exact polarizability:     287.950     -88.525     286.201      -0.001       0.002      62.874
 Approx polarizability:     266.171     -33.374     255.107      -0.000       0.001      81.894

                      1                      2                      3
                      A                      A                      A
 Frequencies --     54.8575                60.9093               111.4703
 Red. masses --      4.4528                 6.6486                 5.7060
 Frc consts  --      0.0079                 0.0145                 0.0418
 IR Inten    --      0.3781                 2.1959                 1.2957

                      4                      5                      6
                      A                      A                      A
 Frequencies --    128.5023               195.0720               227.9416
 Red. masses --      5.4720                 6.1553                 5.8564
 Frc consts  --      0.0532                 0.1380                 0.1793
 IR Inten    --      1.2890                 0.0100                 0.8492

                      7                      8                      9
                      A                      A                      A
 Frequencies --    268.1117               301.8006               307.6985
 Red. masses --      7.8074                 6.8973                 5.2877
 Frc consts  --      0.3307                 0.3701                 0.2950
 IR Inten    --      5.9033                 2.9049                 1.2253

                     10                     11                     12
                      A                      A                      A
 Frequencies --    399.3505               427.2392               446.0154
 Red. masses --      8.7912                 3.2801                 3.5150
 Frc consts  --      0.8261                 0.3528                 0.4120
 IR Inten    --      4.0428                 0.1517                10.1932

                     13                     14                     15
                      A                      A                      A
 Frequencies --    507.7573               523.0288               536.4062
 Red. masses --      8.3298                 2.6934                 7.8331
 Frc consts  --      1.2653                 0.4341                 1.3279
 IR Inten    --     10.4096                 7.0774                 8.8007

                     16                     17                     18
                      A                      A                      A
 Frequencies --    549.4923               561.8338               582.3749
 Red. masses --      6.7435                 3.8248                 7.2260
 Frc consts  --      1.1997                 0.7113                 1.4439
 IR Inten    --      6.0700                 0.0576                37.9078

                     19                     20                     21
                      A                      A                      A
 Frequencies --    623.9088               655.9419               690.7092
 Red. masses --      3.0577                 6.0276                 1.3390
 Frc consts  --      0.7013                 1.5280                 0.3764
 IR Inten    --      9.2045                 3.9495                60.7533

                     22                     23                     24
                      A                      A                      A
 Frequencies --    715.9980               740.8758               751.8464
 Red. masses --      5.8589                 7.6909                 2.5704
 Frc consts  --      1.7696                 2.4873                 0.8561
 IR Inten    --     49.3786                59.9775                19.3752

                     25                     26                     27
                      A                      A                      A
 Frequencies --    759.9587               775.0858               781.5224
 Red. masses --      1.4161                 1.5768                 2.4481
 Frc consts  --      0.4818                 0.5581                 0.8810
 IR Inten    --     42.3280                45.2457                26.1763

                     28                     29                     30
                      A                      A                      A
 Frequencies --    834.8052               877.1170               881.6200
 Red. masses --      6.2246                 2.0260                 4.5147
 Frc consts  --      2.5559                 0.9184                 2.0675
 IR Inten    --     18.4879                16.9838                 1.6718

                     31                     32                     33
                      A                      A                      A
 Frequencies --    882.3419               965.6668               965.8153
 Red. masses --      1.3772                 4.4053                 1.3227
 Frc consts  --      0.6317                 2.4204                 0.7269
 IR Inten    --      0.8767                34.1715                 0.1224

                     34                     35                     36
                      A                      A                      A
 Frequencies --    970.0416              1013.6051              1018.1069
 Red. masses --      1.3606                 1.3037                 1.3072
 Frc consts  --      0.7543                 0.7891                 0.7983
 IR Inten    --      1.5295                 0.0121                 0.3564

                     37                     38                     39
                      A                      A                      A
 Frequencies --   1040.8438              1057.4521              1092.1657
 Red. masses --      2.1388                 2.0835                 3.5324
 Frc consts  --      1.3652                 1.3727                 2.4826
 IR Inten    --     13.4315                12.2640                20.0774

                     40                     41                     42
                      A                      A                      A
 Frequencies --   1130.9037              1159.8307              1162.9429
 Red. masses --      1.9509                 1.3764                 1.1888
 Frc consts  --      1.4701                 1.0909                 0.9472
 IR Inten    --     71.4740                 1.1484                81.1383

                     43                     44                     45
                      A                      A                      A
 Frequencies --   1180.9519              1197.8802              1248.5926
 Red. masses --      1.1451                 1.2534                 1.9789
 Frc consts  --      0.9409                 1.0597                 1.8177
 IR Inten    --     16.7903                20.8953                 8.8090

                     46                     47                     48
                      A                      A                      A
 Frequencies --   1288.5328              1299.6052              1357.8863
 Red. masses --      1.7971                 2.3653                 2.8129
 Frc consts  --      1.7580                 2.3537                 3.0558
 IR Inten    --     34.7270               143.7679                21.9192

                     49                     50                     51
                      A                      A                      A
 Frequencies --   1386.5130              1397.3046              1416.0363
 Red. masses --      5.7422                 5.6786                 2.2725
 Frc consts  --      6.5039                 6.5324                 2.6847
 IR Inten    --    138.5064                37.4415                 6.7940

                     52                     53                     54
                      A                      A                      A
 Frequencies --   1492.5265              1506.4923              1523.9001
 Red. masses --      2.7471                 2.8566                 3.1795
 Frc consts  --      3.6055                 3.8197                 4.3503
 IR Inten    --     16.2982               374.5809                41.9951

                     55                     56                     57
                      A                      A                      A
 Frequencies --   1555.7056              1601.3812              1646.9550
 Red. masses --      4.4818                 6.7134                 7.0601
 Frc consts  --      6.3908                10.1433                11.2831
 IR Inten    --   1847.5030               130.8951               144.0476

                     58                     59                     60
                      A                      A                      A
 Frequencies --   1679.9953              1682.4917              1719.3750
 Red. masses --      7.3308                 7.1980                 7.6389
 Frc consts  --     12.1905                12.0052                13.3053
 IR Inten    --      1.7992               113.7286               400.4195

                     61                     62                     63
                      A                      A                      A
 Frequencies --   3184.9667              3194.9020              3216.8694
 Red. masses --      1.0886                 1.0878                 1.0863
 Frc consts  --      6.5062                 6.5422                 6.6233
 IR Inten    --      3.2165                14.4222                 1.1604

                     64                     65                     66
                      A                      A                      A
 Frequencies --   3219.1391              3226.9579              3232.4357
 Red. masses --      1.0948                 1.0907                 1.0974
 Frc consts  --      6.6843                 6.6921                 6.7560
 IR Inten    --     30.1656                 2.6341                19.2378

                     67                     68                     69
                      A                      A                      A
 Frequencies --   3235.8326              3242.3694              3606.2343
 Red. masses --      1.0960                 1.0999                 1.0819
 Frc consts  --      6.7614                 6.8131                 8.2898
 IR Inten    --      5.1590                11.0607               159.4351

 - Thermochemistry -
 -------------------
 Temperature   298.150 Kelvin.  Pressure   1.00000 Atm.
 Atom     1 has atomic number  6 and mass  12.00000

 Molecular mass:   227.04049 amu.
 Principal axes and moments of inertia in atomic units:
                           1         2         3
     Eigenvalues --  1284.264386373.066137657.33051
           X           -0.70412   0.71008   0.00000
           Y            0.71008   0.70412  -0.00001
           Z            0.00001   0.00001   1.00000
 This molecule is an asymmetric top.
 Rotational symmetry number  1.
 Warning -- assumption of classical behavior for rotation
           may cause significant error
 Rotational temperatures (Kelvin)      0.06744     0.01359     0.01131
 Rotational constants (GHZ):           1.40527     0.28318     0.23569
 Zero-point vibrational energy     498129.8 (Joules/Mol)
                                  119.05588 (Kcal/Mol)
 Warning -- explicit consideration of  18 degrees of freedom as
           vibrations may cause significant error
 Vibrational temperatures:     78.93    87.63   160.38   184.89   280.67
          (Kelvin)            327.96   385.75   434.22   442.71   574.58
                              614.70   641.72   730.55   752.52   771.77
                              790.60   808.35   837.91   897.67   943.75
                              993.78  1030.16  1065.96  1081.74  1093.41
                             1115.18  1124.44  1201.10  1261.98  1268.45
                             1269.49  1389.38  1389.59  1395.67  1458.35
                             1464.83  1497.54  1521.44  1571.38  1627.12
                             1668.74  1673.22  1699.13  1723.48  1796.45
                             1853.91  1869.84  1953.70  1994.88  2010.41
                             2037.36  2147.41  2167.51  2192.55  2238.31
                             2304.03  2369.60  2417.14  2420.73  2473.80
                             4582.46  4596.75  4628.36  4631.62  4642.87
                             4650.75  4655.64  4665.05  5188.57

 Zero-point correction=                           0.189728 (Hartree/Particle)
 Thermal correction to Energy=                    0.201669
 Thermal correction to Enthalpy=                  0.202613
 Thermal correction to Gibbs Free Energy=         0.150912
 Sum of electronic and zero-point Energies=          -1028.619472
 Sum of electronic and thermal Energies=             -1028.607531
 Sum of electronic and thermal Enthalpies=           -1028.606587
 Sum of electronic and thermal Free Energies=        -1028.658288

                     E (Thermal)             CV                S
                      KCal/Mol        Cal/Mol-Kelvin    Cal/Mol-Kelvin
 Total                  126.549             48.412            108.814
 Electronic               0.000              0.000              0.000
 Translational            0.889              2.981             42.162
 Rotational               0.889              2.981             32.505
 Vibrational            124.771             42.450             34.147
 Vibration     1          0.596              1.976              4.634
 Vibration     2          0.597              1.973              4.428
 Vibration     3          0.607              1.940              3.243
 Vibration     4          0.611              1.925              2.968
 Vibration     5          0.636              1.847              2.179
 Vibration     6          0.651              1.798              1.895
 Vibration     7          0.673              1.732              1.608
 Vibration     8          0.694              1.670              1.407
 Vibration     9          0.698              1.659              1.375
 Vibration    10          0.765              1.472              0.965
 Vibration    11          0.789              1.411              0.868
 Vibration    12          0.805              1.370              0.808
 Vibration    13          0.863              1.233              0.639
 Vibration    14          0.878              1.199              0.603
 Vibration    15          0.891              1.170              0.573
 Vibration    16          0.905              1.141              0.545
 Vibration    17          0.918              1.114              0.520
 Vibration    18          0.939              1.069              0.481

 Optimization completed.
    -- Stationary point found.
 Normal termination of Gaussian 16 at Tue Oct 27 23:58:39 2020.
