 Gaussian 16, Revision C.01,
 Gaussian 16:  ES64L-G16RevC.01  3-Jul-2019

 ----------------------------------------------------------------------
 #p opt=addgic freq wb97xd/cc-pvdz nosymm int=ultrafine scrf=(solvent=C
 arbonTetraChloride)
 ----------------------------------------------------------------------

 ------------------------------------------------
 NM 2D-scan of HBT TD-WB97XD pVDZ in CTC Relaxed.
 ------------------------------------------------
 Symbolic Z-matrix:
 Charge =  0 Multiplicity = 1

 SCF Done:  E(RwB97XD) =  -1028.76697512     A.U. after   16 cycles
 SCF Done:  E(RwB97XD) =  -1028.79974920     A.U. after   14 cycles
 SCF Done:  E(RwB97XD) =  -1028.80638700     A.U. after   13 cycles
 SCF Done:  E(RwB97XD) =  -1028.80713436     A.U. after   12 cycles
 SCF Done:  E(RwB97XD) =  -1028.80719464     A.U. after   10 cycles
 SCF Done:  E(RwB97XD) =  -1028.80720519     A.U. after   10 cycles
 SCF Done:  E(RwB97XD) =  -1028.80720598     A.U. after    9 cycles
 Optimization completed.
    -- Stationary point found.
 Normal termination of Gaussian 16 at Wed Oct 28 01:38:40 2020.

 --------------------------------------------------------------------
 #P Geom=AllCheck Guess=TCheck SCRF=Check GenChk RwB97XD/CC-pVDZ Freq
 --------------------------------------------------------------------

 Structure from the checkpoint file:  "config_9_20.chk"
 ------------------------------------------------
 NM 2D-scan of HBT TD-WB97XD pVDZ in CTC Relaxed.
 ------------------------------------------------
 Charge =  0 Multiplicity = 1

                          Input orientation:
 ---------------------------------------------------------------------
 Center     Atomic      Atomic             Coordinates (Angstroms)
 Number     Number       Type             X           Y           Z
 ---------------------------------------------------------------------
      1          6           0        1.502060   -3.272242   -0.000150
      2          6           0        0.992900   -1.979473   -0.000058
      3          6           0        1.812496   -0.843336    0.000058
      4          6           0        3.200569   -1.003484    0.000089
      5          6           0        3.715856   -2.301333   -0.000009
      6          6           0        2.882882   -3.426842   -0.000127
      7          1           0        0.832705   -4.132780   -0.000235
      8          1           0        3.863071   -0.137501    0.000183
      9          1           0        4.798187   -2.436969    0.000011
     10          1           0        3.316932   -4.427147   -0.000196
     11          7           0        1.049363    0.329680    0.000142
     12         16           0       -0.695873   -1.537862   -0.000049
     13          6           0       -1.281181    1.141129    0.000089
     14          6           0       -2.650670    0.735549    0.000138
     15          6           0       -0.902844    2.546131    0.000065
     16          6           0       -3.661691    1.649330    0.000132
     17          1           0       -2.899093   -0.328765    0.000195
     18          6           0       -2.028141    3.470912   -0.000087
     19          6           0       -3.325795    3.036962    0.000003
     20          1           0       -4.704214    1.331680    0.000187
     21          1           0       -1.789828    4.536275   -0.000265
     22          1           0       -4.133959    3.773075   -0.000056
     23          6           0       -0.285192    0.153296    0.000066
     24          8           0        0.296199    2.913634   -0.000292
     25          1           0        1.364891    1.307806    0.000269
 ---------------------------------------------------------------------

 SCF Done:  E(RwB97XD) =  -1028.80720598     A.U. after    1 cycles

 Alpha  occ. eigenvalues --  -89.09551 -19.21473 -14.52625 -10.41229 -10.37613
 Alpha  occ. eigenvalues --  -10.36069 -10.35786 -10.33132 -10.33093 -10.32524
 Alpha  occ. eigenvalues --  -10.32278 -10.31136 -10.30809 -10.30276 -10.29209
 Alpha  occ. eigenvalues --  -10.28702  -8.11676  -6.06549  -6.06169  -6.05679
 Alpha  occ. eigenvalues --   -1.12654  -1.09680  -0.98602  -0.95664  -0.93267
 Alpha  occ. eigenvalues --   -0.89176  -0.86833  -0.83647  -0.81908  -0.75495
 Alpha  occ. eigenvalues --   -0.73256  -0.72222  -0.68951  -0.67918  -0.64892
 Alpha  occ. eigenvalues --   -0.60919  -0.59701  -0.56829  -0.55917  -0.55830
 Alpha  occ. eigenvalues --   -0.55032  -0.54017  -0.52956  -0.49967  -0.49599
 Alpha  occ. eigenvalues --   -0.48978  -0.48294  -0.46796  -0.45651  -0.44817
 Alpha  occ. eigenvalues --   -0.44458  -0.42826  -0.41951  -0.40394  -0.36838
 Alpha  occ. eigenvalues --   -0.33576  -0.31690  -0.31577  -0.26350
 Alpha virt. eigenvalues --   -0.01244   0.03828   0.05635   0.07164   0.09313
 Alpha virt. eigenvalues --    0.11274   0.14257   0.14919   0.16277   0.17481
 Alpha virt. eigenvalues --    0.18105   0.19836   0.20736   0.21471   0.22561

 Mulliken charges:
               1
     1  C    0.020170
     2  C   -0.225831
     3  C    0.243226
     4  C   -0.012810
     5  C    0.007430
     6  C    0.005383
     7  H    0.023845
     8  H    0.029666
     9  H    0.026831
    10  H    0.025890
    11  N   -0.150036
    12  S    0.180242
    13  C   -0.084180
    14  C   -0.023528
    15  C    0.093574
    16  C   -0.029874
    17  H    0.017480
    18  C   -0.028670
    19  C    0.027782
    20  H    0.002351
    21  H    0.002918
    22  H    0.014139
    23  C    0.076346
    24  O   -0.378522
    25  H    0.136178
 Sum of Mulliken charges =   0.00000

 Dipole moment (field-independent basis, Debye):
    X=              1.8194    Y=             -5.4328    Z=              0.0008  Tot=              5.7293
 Quadrupole moment (field-independent basis, Debye-Ang):
   XX=            -81.2842   YY=            -96.6718   ZZ=           -103.9982
   XY=             -6.5145   XZ=              0.0009   YZ=              0.0027

  Exact polarizability:     286.220     -87.721     285.358      -0.002       0.001      62.811
 Approx polarizability:     264.674     -31.893     255.434      -0.003       0.001      81.851

                      1                      2                      3
                      A                      A                      A
 Frequencies --     54.5317                59.0237                99.3086
 Red. masses --      6.8408                 4.2492                 5.8486
 Frc consts  --      0.0120                 0.0087                 0.0340
 IR Inten    --      1.9924                 0.0955                 2.2164

                      4                      5                      6
                      A                      A                      A
 Frequencies --    133.0762               195.9673               227.6896
 Red. masses --      5.5220                 6.2279                 5.8351
 Frc consts  --      0.0576                 0.1409                 0.1782
 IR Inten    --      2.0752                 0.0105                 0.9184

                      7                      8                      9
                      A                      A                      A
 Frequencies --    257.4893               293.4852               308.3161
 Red. masses --      7.9172                 6.6497                 5.3718
 Frc consts  --      0.3093                 0.3375                 0.3009
 IR Inten    --      7.5282                 0.8171                 0.5861

                     10                     11                     12
                      A                      A                      A
 Frequencies --    407.1109               427.5300               448.1994
 Red. masses --      8.6629                 3.2809                 3.4821
 Frc consts  --      0.8459                 0.3533                 0.4121
 IR Inten    --      3.7047                 0.0289                10.1142

                     13                     14                     15
                      A                      A                      A
 Frequencies --    510.9993               521.2112               529.5372
 Red. masses --      8.3451                 2.6395                 6.7507
 Frc consts  --      1.2839                 0.4225                 1.1153
 IR Inten    --     11.2547                 5.9984                 5.7821

                     16                     17                     18
                      A                      A                      A
 Frequencies --    547.9942               561.0121               581.0092
 Red. masses --      7.2791                 3.8724                 7.1640
 Frc consts  --      1.2879                 0.7181                 1.4249
 IR Inten    --     13.1512                 0.1251                37.0970

                     19                     20                     21
                      A                      A                      A
 Frequencies --    631.0492               650.9028               723.0347
 Red. masses --      4.7741                 6.0541                 5.7584
 Frc consts  --      1.1201                 1.5112                 1.7737
 IR Inten    --      1.6769                 3.9397                83.1241

                     22                     23                     24
                      A                      A                      A
 Frequencies --    737.7324               747.9988               756.0427
 Red. masses --      7.4708                 2.3772                 1.4854
 Frc consts  --      2.3956                 0.7836                 0.5002
 IR Inten    --     41.7537                 7.5894                99.0088

                     25                     26                     27
                      A                      A                      A
 Frequencies --    763.2006               776.1032               792.7106
 Red. masses --      1.4409                 1.6854                 1.5944
 Frc consts  --      0.4945                 0.5981                 0.5903
 IR Inten    --     15.9752                44.5767                36.3855

                     28                     29                     30
                      A                      A                      A
 Frequencies --    834.4539               863.0158               877.7526
 Red. masses --      6.0321                 4.3005                 2.0960
 Frc consts  --      2.4747                 1.8871                 0.9514
 IR Inten    --     17.4403                 4.7576                21.5593

                     31                     32                     33
                      A                      A                      A
 Frequencies --    884.6443               962.9326               965.2986
 Red. masses --      1.3692                 1.3258                 4.6238
 Frc consts  --      0.6313                 0.7243                 2.5384
 IR Inten    --      0.1258                 0.0610                32.0927

                     34                     35                     36
                      A                      A                      A
 Frequencies --    970.3191              1013.4491              1019.2882
 Red. masses --      1.3610                 1.3035                 1.3089
 Frc consts  --      0.7550                 0.7888                 0.8012
 IR Inten    --      1.3346                 0.0122                 0.3881

                     37                     38                     39
                      A                      A                      A
 Frequencies --   1034.7970              1054.3268              1095.8274
 Red. masses --      2.1530                 2.0358                 3.4529
 Frc consts  --      1.3583                 1.3334                 2.4429
 IR Inten    --     17.3616                11.5629                23.8190

                     40                     41                     42
                      A                      A                      A
 Frequencies --   1143.4489              1161.8939              1164.9344
 Red. masses --      1.8398                 1.2526                 1.3333
 Frc consts  --      1.4173                 0.9963                 1.0661
 IR Inten    --     50.5831                39.4487                48.1457

                     43                     44                     45
                      A                      A                      A
 Frequencies --   1180.2256              1199.7165              1242.4646
 Red. masses --      1.1679                 1.3083                 2.0323
 Frc consts  --      0.9585                 1.1095                 1.8484
 IR Inten    --     14.9888                31.2634                31.8698

                     46                     47                     48
                      A                      A                      A
 Frequencies --   1280.4886              1299.3090              1347.3005
 Red. masses --      2.0305                 2.1955                 2.9729
 Frc consts  --      1.9616                 2.1838                 3.1795
 IR Inten    --     45.9020                91.8016                13.4152

                     49                     50                     51
                      A                      A                      A
 Frequencies --   1378.5683              1398.6400              1416.7468
 Red. masses --      4.7575                 4.2439                 2.5562
 Frc consts  --      5.3271                 4.8913                 3.0229
 IR Inten    --    120.6970                65.3317                23.4223

                     52                     53                     54
                      A                      A                      A
 Frequencies --   1489.0135              1503.6818              1514.8038
 Red. masses --      2.6195                 2.7550                 3.1979
 Frc consts  --      3.4219                 3.6701                 4.3235
 IR Inten    --     24.0528               137.5766                16.4551

                     55                     56                     57
                      A                      A                      A
 Frequencies --   1565.5293              1602.7425              1647.2285
 Red. masses --      4.6921                 6.6209                 8.2248
 Frc consts  --      6.7755                10.0207                13.1487
 IR Inten    --   2076.8688               107.1417               281.3517

                     58                     59                     60
                      A                      A                      A
 Frequencies --   1666.5920              1680.5084              1715.5588
 Red. masses --      7.0875                 6.9987                 7.0802
 Frc consts  --     11.5985                11.6452                12.2774
 IR Inten    --     19.0059                45.8662               368.4651

                     61                     62                     63
                      A                      A                      A
 Frequencies --   3191.2279              3194.6406              3213.8753
 Red. masses --      1.0866                 1.0896                 1.0864
 Frc consts  --      6.5196                 6.5516                 6.6113
 IR Inten    --      3.5884                14.3162                 0.9961

                     64                     65                     66
                      A                      A                      A
 Frequencies --   3218.8291              3223.1423              3231.4021
 Red. masses --      1.0952                 1.0906                 1.0961
 Frc consts  --      6.6858                 6.6754                 6.7434
 IR Inten    --     29.9699                 2.0627                 5.6614

                     67                     68                     69
                      A                      A                      A
 Frequencies --   3235.6241              3239.5304              3413.7207
 Red. masses --      1.0975                 1.1001                 1.0834
 Frc consts  --      6.7696                 6.8020                 7.4388
 IR Inten    --     16.2593                12.2645               170.1760

 - Thermochemistry -
 -------------------
 Temperature   298.150 Kelvin.  Pressure   1.00000 Atm.
 Atom     1 has atomic number  6 and mass  12.00000

 Molecular mass:   227.04049 amu.
 Principal axes and moments of inertia in atomic units:
                           1         2         3
     Eigenvalues --  1280.120416373.094277653.21466
           X           -0.70127   0.71289   0.00002
           Y            0.71289   0.70127   0.00001
           Z            0.00001  -0.00002   1.00000
 This molecule is an asymmetric top.
 Rotational symmetry number  1.
 Warning -- assumption of classical behavior for rotation
           may cause significant error
 Rotational temperatures (Kelvin)      0.06766     0.01359     0.01132
 Rotational constants (GHZ):           1.40982     0.28318     0.23581
 Zero-point vibrational energy     496927.3 (Joules/Mol)
                                  118.76848 (Kcal/Mol)
 Warning -- explicit consideration of  18 degrees of freedom as
           vibrations may cause significant error
 Vibrational temperatures:     78.46    84.92   142.88   191.47   281.95
          (Kelvin)            327.59   370.47   422.26   443.60   585.74
                              615.12   644.86   735.21   749.91   761.89
                              788.44   807.17   835.94   907.94   936.50
                             1040.29  1061.43  1076.20  1087.78  1098.08
                             1116.64  1140.53  1200.59  1241.69  1262.89
                             1272.81  1385.45  1388.85  1396.07  1458.13
                             1466.53  1488.84  1516.94  1576.65  1645.17
                             1671.71  1676.08  1698.08  1726.12  1787.63
                             1842.34  1869.42  1938.46  1983.45  2012.33
                             2038.38  2142.36  2163.46  2179.46  2252.45
                             2305.99  2369.99  2397.85  2417.88  2468.31
                             4591.47  4596.38  4624.05  4631.18  4637.38
                             4649.27  4655.34  4660.96  4911.58

 Zero-point correction=                           0.189270 (Hartree/Particle)
 Thermal correction to Energy=                    0.201224
 Thermal correction to Enthalpy=                  0.202168
 Thermal correction to Gibbs Free Energy=         0.150352
 Sum of electronic and zero-point Energies=          -1028.617936
 Sum of electronic and thermal Energies=             -1028.605982
 Sum of electronic and thermal Enthalpies=           -1028.605038
 Sum of electronic and thermal Free Energies=        -1028.656854

                     E (Thermal)             CV                S
                      KCal/Mol        Cal/Mol-Kelvin    Cal/Mol-Kelvin
 Total                  126.270             48.332            109.056
 Electronic               0.000              0.000              0.000
 Translational            0.889              2.981             42.162
 Rotational               0.889              2.981             32.501
 Vibrational            124.492             42.371             34.392
 Vibration     1          0.596              1.976              4.646
 Vibration     2          0.596              1.974              4.490
 Vibration     3          0.604              1.950              3.468
 Vibration     4          0.613              1.920              2.901
 Vibration     5          0.636              1.846              2.171
 Vibration     6          0.651              1.799              1.897
 Vibration     7          0.667              1.750              1.679
 Vibration     8          0.688              1.686              1.454
 Vibration     9          0.698              1.658              1.371
 Vibration    10          0.772              1.455              0.937
 Vibration    11          0.789              1.410              0.867
 Vibration    12          0.807              1.365              0.801
 Vibration    13          0.866              1.226              0.631
 Vibration    14          0.876              1.203              0.607
 Vibration    15          0.884              1.185              0.588
 Vibration    16          0.903              1.144              0.548
 Vibration    17          0.917              1.116              0.522
 Vibration    18          0.938              1.072              0.483

 Optimization completed.
    -- Stationary point found.
 Normal termination of Gaussian 16 at Wed Oct 28 01:44:56 2020.
