 Gaussian 16, Revision C.01,
 Gaussian 16:  ES64L-G16RevC.01  3-Jul-2019

 ----------------------------------------------------------------------
 #p opt=addgic freq wb97xd/cc-pvdz nosymm int=ultrafine scrf=(solvent=C
 arbonTetraChloride)
 ----------------------------------------------------------------------

 ------------------------------------------------
 NM 2D-scan of HBT TD-WB97XD pVDZ in CTC Relaxed.
 ------------------------------------------------
 Symbolic Z-matrix:
 Charge =  0 Multiplicity = 1

 SCF Done:  E(RwB97XD) =  -1028.79716778     A.U. after   16 cycles
 SCF Done:  E(RwB97XD) =  -1028.80804625     A.U. after   14 cycles
 SCF Done:  E(RwB97XD) =  -1028.80919368     A.U. after   13 cycles
 SCF Done:  E(RwB97XD) =  -1028.80947614     A.U. after   12 cycles
 SCF Done:  E(RwB97XD) =  -1028.80950726     A.U. after   10 cycles
 SCF Done:  E(RwB97XD) =  -1028.80951184     A.U. after   10 cycles
 SCF Done:  E(RwB97XD) =  -1028.80951255     A.U. after   10 cycles
 Optimization completed.
    -- Stationary point found.
 Normal termination of Gaussian 16 at Wed Oct 28 01:27:10 2020.

 --------------------------------------------------------------------
 #P Geom=AllCheck Guess=TCheck SCRF=Check GenChk RwB97XD/CC-pVDZ Freq
 --------------------------------------------------------------------

 Structure from the checkpoint file:  "config_8_17.chk"
 ------------------------------------------------
 NM 2D-scan of HBT TD-WB97XD pVDZ in CTC Relaxed.
 ------------------------------------------------
 Charge =  0 Multiplicity = 1

                          Input orientation:
 ---------------------------------------------------------------------
 Center     Atomic      Atomic             Coordinates (Angstroms)
 Number     Number       Type             X           Y           Z
 ---------------------------------------------------------------------
      1          6           0        1.533951   -3.263391    0.000242
      2          6           0        0.989181   -1.983210    0.000072
      3          6           0        1.782298   -0.820778   -0.000174
      4          6           0        3.173981   -0.949721   -0.000285
      5          6           0        3.722816   -2.231569   -0.000105
      6          6           0        2.918532   -3.379221    0.000161
      7          1           0        0.889834   -4.143185    0.000424
      8          1           0        3.812000   -0.065658   -0.000490
      9          1           0        4.808258   -2.339978   -0.000177
     10          1           0        3.379677   -4.367460    0.000288
     11          7           0        1.006637    0.344901   -0.000305
     12         16           0       -0.709679   -1.582294    0.000061
     13          6           0       -1.300532    1.114063   -0.000008
     14          6           0       -2.677725    0.748754   -0.000142
     15          6           0       -0.879317    2.499943    0.000226
     16          6           0       -3.654751    1.699944   -0.000162
     17          1           0       -2.954882   -0.308779   -0.000286
     18          6           0       -1.954181    3.463579    0.000268
     19          6           0       -3.267535    3.071982    0.000028
     20          1           0       -4.708786    1.423403   -0.000303
     21          1           0       -1.677304    4.519201    0.000546
     22          1           0       -4.047840    3.837269    0.000054
     23          6           0       -0.311707    0.114998   -0.000080
     24          8           0        0.345780    2.833823    0.000851
     25          1           0        1.182375    1.408453   -0.000600
 ---------------------------------------------------------------------

 SCF Done:  E(RwB97XD) =  -1028.80951255     A.U. after    1 cycles

 Alpha  occ. eigenvalues --  -89.09644 -19.21990 -14.51923 -10.40947 -10.37504
 Alpha  occ. eigenvalues --  -10.36187 -10.35853 -10.33104 -10.32892 -10.32403
 Alpha  occ. eigenvalues --  -10.32237 -10.31269 -10.30901 -10.30384 -10.29300
 Alpha  occ. eigenvalues --  -10.28825  -8.11748  -6.06615  -6.06245  -6.05760
 Alpha  occ. eigenvalues --   -1.12574  -1.09580  -0.98447  -0.95598  -0.93210
 Alpha  occ. eigenvalues --   -0.89171  -0.86674  -0.83703  -0.82129  -0.75596
 Alpha  occ. eigenvalues --   -0.72429  -0.72140  -0.68705  -0.67880  -0.64673
 Alpha  occ. eigenvalues --   -0.60909  -0.59676  -0.56910  -0.55660  -0.55626
 Alpha  occ. eigenvalues --   -0.54990  -0.53898  -0.52952  -0.50175  -0.49771
 Alpha  occ. eigenvalues --   -0.49085  -0.48200  -0.46737  -0.45533  -0.44852
 Alpha  occ. eigenvalues --   -0.44449  -0.43022  -0.41904  -0.40491  -0.36724
 Alpha  occ. eigenvalues --   -0.33437  -0.32447  -0.31570  -0.26703
 Alpha virt. eigenvalues --   -0.01177   0.03909   0.05758   0.07011   0.08990
 Alpha virt. eigenvalues --    0.11145   0.14300   0.14904   0.16456   0.17586
 Alpha virt. eigenvalues --    0.18713   0.20195   0.20829   0.21524   0.22769

 Mulliken charges:
               1
     1  C    0.019429
     2  C   -0.224618
     3  C    0.258195
     4  C   -0.012444
     5  C    0.007429
     6  C    0.004679
     7  H    0.024140
     8  H    0.029864
     9  H    0.026232
    10  H    0.025667
    11  N   -0.183015
    12  S    0.182872
    13  C   -0.096195
    14  C   -0.020626
    15  C    0.109238
    16  C   -0.026687
    17  H    0.015310
    18  C   -0.018378
    19  C    0.025744
    20  H    0.002919
    21  H    0.004079
    22  H    0.014385
    23  C    0.068722
    24  O   -0.406222
    25  H    0.169284
 Sum of Mulliken charges =  -0.00000

 Dipole moment (field-independent basis, Debye):
    X=              1.4182    Y=             -5.1860    Z=             -0.0022  Tot=              5.3764
 Quadrupole moment (field-independent basis, Debye-Ang):
   XX=            -81.8951   YY=            -95.4305   ZZ=           -104.0143
   XY=             -6.9125   XZ=             -0.0023   YZ=             -0.0066

  Exact polarizability:     283.820     -83.964     280.792      -0.000       0.004      62.819
 Approx polarizability:     264.497     -30.288     255.209       0.003       0.003      81.937

                      1                      2                      3
                      A                      A                      A
 Frequencies --     51.3863                52.9680                74.8782
 Red. masses --      5.9921                 5.4961                 4.5840
 Frc consts  --      0.0093                 0.0091                 0.0151
 IR Inten    --      1.3042                11.1025                 0.4737

                      4                      5                      6
                      A                      A                      A
 Frequencies --    142.8931               199.7740               234.8986
 Red. masses --      5.3353                 6.2451                 6.2343
 Frc consts  --      0.0642                 0.1468                 0.2027
 IR Inten    --      1.6882                 0.0206                 0.9209

                      7                      8                      9
                      A                      A                      A
 Frequencies --    236.9142               294.9071               310.9127
 Red. masses --      6.2910                 6.3698                 5.3911
 Frc consts  --      0.2080                 0.3264                 0.3070
 IR Inten    --     16.3778                 0.6063                 0.4536

                     10                     11                     12
                      A                      A                      A
 Frequencies --    416.2417               429.5752               452.1690
 Red. masses --     10.0914                 3.2165                 3.5381
 Frc consts  --      1.0301                 0.3497                 0.4262
 IR Inten    --      2.2988                 0.0230                10.5132

                     13                     14                     15
                      A                      A                      A
 Frequencies --    513.7541               519.8982               527.3829
 Red. masses --      8.6345                 4.9380                 2.7829
 Frc consts  --      1.3428                 0.7864                 0.4560
 IR Inten    --     11.5591                 3.5980                 4.9195

                     16                     17                     18
                      A                      A                      A
 Frequencies --    551.5739               562.3256               578.9378
 Red. masses --      7.8225                 3.8480                 6.6003
 Frc consts  --      1.4022                 0.7169                 1.3034
 IR Inten    --     13.2436                 0.0453                31.5246

                     19                     20                     21
                      A                      A                      A
 Frequencies --    634.7678               640.2649               725.8463
 Red. masses --      5.4846                 5.9917                 5.5920
 Frc consts  --      1.3020                 1.4472                 1.7358
 IR Inten    --      5.5131                 0.0990                 3.3955

                     22                     23                     24
                      A                      A                      A
 Frequencies --    732.5326               750.9018               760.5878
 Red. masses --      7.9366                 2.6838                 1.4333
 Frc consts  --      2.5092                 0.8916                 0.4885
 IR Inten    --    100.1459                 9.7444                57.2809

                     25                     26                     27
                      A                      A                      A
 Frequencies --    775.3186               778.3340               805.6221
 Red. masses --      1.6408                 2.3523                 3.5024
 Frc consts  --      0.5811                 0.8396                 1.3393
 IR Inten    --     25.6923                32.5034                22.6178

                     28                     29                     30
                      A                      A                      A
 Frequencies --    851.3271               877.1051               884.5574
 Red. masses --      5.5260                 1.8892                 1.3734
 Frc consts  --      2.3597                 0.8563                 0.6331
 IR Inten    --     13.9986                 9.4159                 0.9220

                     31                     32                     33
                      A                      A                      A
 Frequencies --    956.4341               964.6591               970.6092
 Red. masses --      4.7286                 1.3268                 1.3534
 Frc consts  --      2.5486                 0.7275                 0.7512
 IR Inten    --     28.6717                 0.4954                 7.1507

                     34                     35                     36
                      A                      A                      A
 Frequencies --    984.8184              1013.8491              1018.3407
 Red. masses --      1.0961                 1.3044                 1.3084
 Frc consts  --      0.6263                 0.7900                 0.7994
 IR Inten    --     77.1853                 0.1571                 0.7033

                     37                     38                     39
                      A                      A                      A
 Frequencies --   1034.1561              1055.0890              1069.3863
 Red. masses --      2.2737                 2.0547                 3.3425
 Frc consts  --      1.4327                 1.3477                 2.2521
 IR Inten    --     18.3187                11.4940                21.9627

                     40                     41                     42
                      A                      A                      A
 Frequencies --   1125.1889              1163.3364              1165.4859
 Red. masses --      2.2766                 1.2794                 1.4196
 Frc consts  --      1.6982                 1.0202                 1.1361
 IR Inten    --     27.5530                23.7485                17.3451

                     43                     44                     45
                      A                      A                      A
 Frequencies --   1177.9155              1190.1376              1244.7818
 Red. masses --      1.1406                 1.2630                 1.9725
 Frc consts  --      0.9324                 1.0540                 1.8008
 IR Inten    --     24.8969                 6.1070                22.7026

                     46                     47                     48
                      A                      A                      A
 Frequencies --   1285.4895              1315.5552              1351.2538
 Red. masses --      1.7186                 2.5120                 3.6421
 Frc consts  --      1.6733                 2.5615                 3.9181
 IR Inten    --     36.8068               107.2086                28.5323

                     49                     50                     51
                      A                      A                      A
 Frequencies --   1369.2127              1400.5257              1421.3028
 Red. masses --      4.5226                 3.6600                 3.5185
 Frc consts  --      4.9956                 4.2297                 4.1878
 IR Inten    --     38.8592                24.2511                64.2319

                     52                     53                     54
                      A                      A                      A
 Frequencies --   1488.0161              1499.9421              1511.6947
 Red. masses --      2.7010                 2.7188                 3.1609
 Frc consts  --      3.5236                 3.6040                 4.2559
 IR Inten    --     22.8290                47.3088                 8.9265

                     55                     56                     57
                      A                      A                      A
 Frequencies --   1579.5753              1592.5854              1628.1949
 Red. masses --      4.3794                 5.2147                 8.9121
 Frc consts  --      6.4378                 7.7927                13.9202
 IR Inten    --   1830.3696                95.0610               534.8165

                     58                     59                     60
                      A                      A                      A
 Frequencies --   1655.5548              1679.8681              1711.9683
 Red. masses --      6.9075                 6.9509                 6.5748
 Frc consts  --     11.1547                11.5569                11.3534
 IR Inten    --     16.9314                26.6439               290.6656

                     61                     62                     63
                      A                      A                      A
 Frequencies --   2736.1142              3190.3387              3197.4055
 Red. masses --      1.0973                 1.0883                 1.0884
 Frc consts  --      4.8399                 6.5263                 6.5557
 IR Inten    --    448.4295                 2.0818                14.8927

                     64                     65                     66
                      A                      A                      A
 Frequencies --   3213.5123              3222.2216              3223.1311
 Red. masses --      1.0863                 1.0951                 1.0907
 Frc consts  --      6.6092                 6.6992                 6.6758
 IR Inten    --      1.1658                25.1858                 2.9560

                     67                     68                     69
                      A                      A                      A
 Frequencies --   3232.3975              3235.8182              3239.1518
 Red. masses --      1.0960                 1.0977                 1.0999
 Frc consts  --      6.7469                 6.7719                 6.7995
 IR Inten    --      5.2319                17.3172                10.9260

 - Thermochemistry -
 -------------------
 Temperature   298.150 Kelvin.  Pressure   1.00000 Atm.
 Atom     1 has atomic number  6 and mass  12.00000

 Molecular mass:   227.04049 amu.
 Principal axes and moments of inertia in atomic units:
                           1         2         3
     Eigenvalues --  1288.728416296.198377584.92666
           X           -0.70250   0.71169  -0.00003
           Y            0.71169   0.70250  -0.00005
           Z            0.00002   0.00006   1.00000
 This molecule is an asymmetric top.
 Rotational symmetry number  1.
 Warning -- assumption of classical behavior for rotation
           may cause significant error
 Rotational temperatures (Kelvin)      0.06721     0.01376     0.01142
 Rotational constants (GHZ):           1.40040     0.28664     0.23794
 Zero-point vibrational energy     493361.3 (Joules/Mol)
                                  117.91619 (Kcal/Mol)
 Warning -- explicit consideration of  18 degrees of freedom as
           vibrations may cause significant error
 Vibrational temperatures:     73.93    76.21   107.73   205.59   287.43
          (Kelvin)            337.97   340.87   424.31   447.33   598.88
                              618.06   650.57   739.18   748.02   758.79
                              793.59   809.06   832.96   913.29   921.20
                             1044.33  1053.95  1080.38  1094.32  1115.51
                             1119.85  1159.11  1224.87  1261.96  1272.68
                             1376.10  1387.93  1396.49  1416.93  1458.70
                             1465.17  1487.92  1518.04  1538.61  1618.90
                             1673.78  1676.87  1694.76  1712.34  1790.96
                             1849.53  1892.79  1944.15  1969.99  2015.04
                             2044.94  2140.92  2158.08  2174.99  2272.66
                             2291.38  2342.61  2381.97  2416.96  2463.14
                             3936.66  4590.19  4600.35  4623.53  4636.06
                             4637.37  4650.70  4655.62  4660.42

 Zero-point correction=                           0.187911 (Hartree/Particle)
 Thermal correction to Energy=                    0.199879
 Thermal correction to Enthalpy=                  0.200823
 Thermal correction to Gibbs Free Energy=         0.148706
 Sum of electronic and zero-point Energies=          -1028.621601
 Sum of electronic and thermal Energies=             -1028.609634
 Sum of electronic and thermal Enthalpies=           -1028.608689
 Sum of electronic and thermal Free Energies=        -1028.660807

                     E (Thermal)             CV                S
                      KCal/Mol        Cal/Mol-Kelvin    Cal/Mol-Kelvin
 Total                  125.426             48.138            109.690
 Electronic               0.000              0.000              0.000
 Translational            0.889              2.981             42.162
 Rotational               0.889              2.981             32.487
 Vibrational            123.648             42.177             35.041
 Vibration     1          0.596              1.977              4.763
 Vibration     2          0.596              1.976              4.703
 Vibration     3          0.599              1.966              4.021
 Vibration     4          0.616              1.910              2.765
 Vibration     5          0.638              1.840              2.135
 Vibration     6          0.655              1.787              1.841
 Vibration     7          0.656              1.784              1.826
 Vibration     8          0.689              1.683              1.446
 Vibration     9          0.700              1.653              1.357
 Vibration    10          0.779              1.435              0.905
 Vibration    11          0.791              1.406              0.860
 Vibration    12          0.811              1.356              0.789
 Vibration    13          0.869              1.220              0.625
 Vibration    14          0.875              1.206              0.610
 Vibration    15          0.882              1.189              0.593
 Vibration    16          0.907              1.136              0.541
 Vibration    17          0.918              1.113              0.519
 Vibration    18          0.936              1.077              0.487

 Optimization completed.
    -- Stationary point found.
 Normal termination of Gaussian 16 at Wed Oct 28 01:33:12 2020.
