 Gaussian 16, Revision C.01,
 Gaussian 16:  ES64L-G16RevC.01  3-Jul-2019

 ----------------------------------------------------------------------
 #p opt=addgic freq wb97xd/cc-pvdz nosymm int=ultrafine scrf=(solvent=C
 arbonTetraChloride)
 ----------------------------------------------------------------------

 ------------------------------------------------
 NM 2D-scan of HBT TD-WB97XD pVDZ in CTC Relaxed.
 ------------------------------------------------
 Symbolic Z-matrix:
 Charge =  0 Multiplicity = 1

 SCF Done:  E(RwB97XD) =  -1028.68154196     A.U. after   15 cycles
 SCF Done:  E(RwB97XD) =  -1028.80252281     A.U. after   13 cycles
 SCF Done:  E(RwB97XD) =  -1028.80477876     A.U. after   14 cycles
 SCF Done:  E(RwB97XD) =  -1028.82541187     A.U. after   13 cycles
 SCF Done:  E(RwB97XD) =  -1028.82645970     A.U. after   12 cycles
 SCF Done:  E(RwB97XD) =  -1028.82659988     A.U. after   11 cycles
 SCF Done:  E(RwB97XD) =  -1028.82661655     A.U. after    9 cycles
 Optimization completed.
    -- Stationary point found.
 Normal termination of Gaussian 16 at Tue Oct 27 22:11:18 2020.

 --------------------------------------------------------------------
 #P Geom=AllCheck Guess=TCheck SCRF=Check GenChk RwB97XD/CC-pVDZ Freq
 --------------------------------------------------------------------

 Structure from the checkpoint file:  "config_2_7.chk"
 ------------------------------------------------
 NM 2D-scan of HBT TD-WB97XD pVDZ in CTC Relaxed.
 ------------------------------------------------
 Charge =  0 Multiplicity = 1

                          Input orientation:
 ---------------------------------------------------------------------
 Center     Atomic      Atomic             Coordinates (Angstroms)
 Number     Number       Type             X           Y           Z
 ---------------------------------------------------------------------
      1          6           0        1.689557   -3.317241   -0.000026
      2          6           0        0.973212   -2.112369   -0.000011
      3          6           0        1.666821   -0.887821   -0.000006
      4          6           0        3.064325   -0.838482   -0.000012
      5          6           0        3.769128   -2.027410   -0.000026
      6          6           0        3.081907   -3.254146   -0.000034
      7          1           0        1.180593   -4.281652   -0.000030
      8          1           0        3.560104    0.132757   -0.000007
      9          1           0        4.859891   -2.017390   -0.000031
     10          1           0        3.651235   -4.185097   -0.000045
     11          7           0        0.887864    0.240347    0.000001
     12         16           0       -0.756910   -1.779464    0.000007
     13          6           0       -1.359612    1.082745    0.000006
     14          6           0       -2.755670    0.873528   -0.000005
     15          6           0       -0.898650    2.433409    0.000028
     16          6           0       -3.653689    1.928141    0.000017
     17          1           0       -3.135799   -0.151278   -0.000028
     18          6           0       -1.818572    3.489680    0.000059
     19          6           0       -3.176102    3.246924    0.000055
     20          1           0       -4.725738    1.730907    0.000009
     21          1           0       -1.412740    4.501757    0.000082
     22          1           0       -3.875086    4.085222    0.000077
     23          6           0       -0.384586   -0.019160    0.000002
     24          8           0        0.383826    2.830803    0.000020
     25          1           0        0.947279    2.036214    0.000002
 ---------------------------------------------------------------------

 SCF Done:  E(RwB97XD) =  -1028.82661655     A.U. after    1 cycles

 Alpha  occ. eigenvalues --  -89.08776 -19.28450 -14.46650 -10.39524 -10.37520
 Alpha  occ. eigenvalues --  -10.34958 -10.34570 -10.32799 -10.32430 -10.31913
 Alpha  occ. eigenvalues --  -10.31591 -10.31420 -10.31358 -10.31320 -10.30274
 Alpha  occ. eigenvalues --  -10.29991  -8.10694  -6.05562  -6.05207  -6.04734
 Alpha  occ. eigenvalues --   -1.16631  -1.08879  -0.97180  -0.96067  -0.91176
 Alpha  occ. eigenvalues --   -0.88507  -0.85261  -0.84509  -0.82894  -0.75458
 Alpha  occ. eigenvalues --   -0.71311  -0.70633  -0.69477  -0.68090  -0.63016
 Alpha  occ. eigenvalues --   -0.60246  -0.58611  -0.58375  -0.56385  -0.54471
 Alpha  occ. eigenvalues --   -0.53798  -0.53110  -0.52527  -0.50880  -0.50358
 Alpha  occ. eigenvalues --   -0.49227  -0.47831  -0.45784  -0.45289  -0.44922
 Alpha  occ. eigenvalues --   -0.43778  -0.42943  -0.42546  -0.39654  -0.37309
 Alpha  occ. eigenvalues --   -0.36137  -0.32066  -0.31708  -0.29089
 Alpha virt. eigenvalues --   -0.00413   0.04865   0.06800   0.07176   0.07477
 Alpha virt. eigenvalues --    0.11567   0.13289   0.15135   0.15988   0.17731
 Alpha virt. eigenvalues --    0.18949   0.20437   0.21699   0.22483   0.22835

 Mulliken charges:
               1
     1  C    0.001015
     2  C   -0.211784
     3  C    0.226161
     4  C   -0.012913
     5  C    0.007488
     6  C   -0.001849
     7  H    0.020282
     8  H    0.016098
     9  H    0.018994
    10  H    0.021285
    11  N   -0.327202
    12  S    0.136235
    13  C   -0.063206
    14  C   -0.018517
    15  C    0.063198
    16  C   -0.006645
    17  H    0.011551
    18  C    0.017714
    19  C    0.019411
    20  H    0.010354
    21  H    0.016930
    22  H    0.018273
    23  C    0.074447
    24  O   -0.191077
    25  H    0.153756
 Sum of Mulliken charges =  -0.00000

 Dipole moment (field-independent basis, Debye):
    X=              0.0984    Y=             -2.1120    Z=             -0.0000  Tot=              2.1143
 Quadrupole moment (field-independent basis, Debye-Ang):
   XX=            -82.6801   YY=            -89.7867   ZZ=           -104.2366
   XY=             -6.8998   XZ=             -0.0001   YZ=              0.0002

  Exact polarizability:     275.010     -65.586     256.271      -0.001       0.002      63.101
 Approx polarizability:     263.189     -22.368     243.361      -0.001       0.002      82.266

                      1                      2                      3
                      A                      A                      A
 Frequencies --     50.3820                54.9653               112.5683
 Red. masses --      6.3492                 5.1162                 5.6563
 Frc consts  --      0.0095                 0.0091                 0.0422
 IR Inten    --      0.7264                 0.4214                 1.1057

                      4                      5                      6
                      A                      A                      A
 Frequencies --    151.1193               199.6205               245.3372
 Red. masses --      4.8890                 5.7773                 5.8106
 Frc consts  --      0.0658                 0.1356                 0.2061
 IR Inten    --      0.0002                 0.4254                 0.0703

                      7                      8                      9
                      A                      A                      A
 Frequencies --    260.5473               291.8748               325.7475
 Red. masses --      8.2279                 6.2216                 5.0470
 Frc consts  --      0.3291                 0.3123                 0.3155
 IR Inten    --      3.1551                 5.4539                 0.4494

                     10                     11                     12
                      A                      A                      A
 Frequencies --    400.3520               439.7616               469.8228
 Red. masses --      8.6351                 3.1650                 3.7583
 Frc consts  --      0.8155                 0.3606                 0.4888
 IR Inten    --      0.2488                 2.0274                 8.6569

                     13                     14                     15
                      A                      A                      A
 Frequencies --    495.8357               513.8484               538.9327
 Red. masses --      4.6762                 8.7940                 3.4533
 Frc consts  --      0.6774                 1.3681                 0.5909
 IR Inten    --      4.7876                 0.1663                 3.9844

                     16                     17                     18
                      A                      A                      A
 Frequencies --    546.3453               573.6529               594.5702
 Red. masses --      8.6416                 3.7181                 7.7031
 Frc consts  --      1.5198                 0.7209                 1.6044
 IR Inten    --      2.6996                 0.0015                 6.4398

                     19                     20                     21
                      A                      A                      A
 Frequencies --    636.5203               677.3590               686.9720
 Red. masses --      3.0537                 6.4825                 1.3301
 Frc consts  --      0.7290                 1.7524                 0.3698
 IR Inten    --     13.0228                 7.4395                73.7083

                     22                     23                     24
                      A                      A                      A
 Frequencies --    693.3042               721.4861               755.3173
 Red. masses --      8.8954                 7.4731                 1.9518
 Frc consts  --      2.5192                 2.2920                 0.6561
 IR Inten    --     45.5047                 1.4163                21.4803

                     25                     26                     27
                      A                      A                      A
 Frequencies --    769.5487               778.6524               788.6891
 Red. masses --      3.4560                 1.3222                 1.9102
 Frc consts  --      1.2059                 0.4723                 0.7001
 IR Inten    --     15.3828                50.3058                40.2093

                     28                     29                     30
                      A                      A                      A
 Frequencies --    839.6535               885.8039               887.6928
 Red. masses --      6.1033                 1.5297                 1.4356
 Frc consts  --      2.5352                 0.7072                 0.6665
 IR Inten    --     25.4509                 4.1803                 0.6336

                     31                     32                     33
                      A                      A                      A
 Frequencies --    893.9634               973.4794               976.2419
 Red. masses --      6.4296                 1.3549                 1.3641
 Frc consts  --      3.0274                 0.7565                 0.7659
 IR Inten    --      1.8863                 1.2846                 1.3984

                     34                     35                     36
                      A                      A                      A
 Frequencies --    976.3379              1011.6000              1015.2510
 Red. masses --      7.6214                 1.3006                 1.3049
 Frc consts  --      4.2804                 0.7842                 0.7925
 IR Inten    --     70.2822                 0.3089                 0.0090

                     37                     38                     39
                      A                      A                      A
 Frequencies --   1050.9466              1070.7757              1093.7795
 Red. masses --      2.0264                 2.0356                 4.6185
 Frc consts  --      1.3187                 1.3751                 3.2554
 IR Inten    --      8.0142                13.7815                 6.1839

                     40                     41                     42
                      A                      A                      A
 Frequencies --   1145.5495              1150.1556              1176.5550
 Red. masses --      1.5536                 1.2773                 1.1228
 Frc consts  --      1.2012                 0.9955                 0.9158
 IR Inten    --      6.3255                 5.6343                48.7926

                     43                     44                     45
                      A                      A                      A
 Frequencies --   1184.1622              1233.6326              1279.2551
 Red. masses --      1.1910                 1.6663                 2.1426
 Frc consts  --      0.9840                 1.4941                 2.0659
 IR Inten    --      0.2101               173.6823                74.1654

                     46                     47                     48
                      A                      A                      A
 Frequencies --   1282.8651              1308.4565              1352.7993
 Red. masses --      1.5829                 5.3297                 2.9873
 Frc consts  --      1.5348                 5.3762                 3.2210
 IR Inten    --      7.9760                25.5562                12.5942

                     49                     50                     51
                      A                      A                      A
 Frequencies --   1368.7793              1375.7098              1418.3783
 Red. masses --      7.7210                 2.8611                 1.7889
 Frc consts  --      8.5229                 3.1903                 2.1204
 IR Inten    --     16.0409                 5.9678                84.0132

                     52                     53                     54
                      A                      A                      A
 Frequencies --   1490.6600              1499.3769              1518.5316
 Red. masses --      2.6367                 3.0609                 3.5609
 Frc consts  --      3.4520                 4.0544                 4.8379
 IR Inten    --     26.1520                10.8763               116.7306

                     55                     56                     57
                      A                      A                      A
 Frequencies --   1534.1055              1602.8718              1643.2078
 Red. masses --      2.6832                 8.6396                 6.5060
 Frc consts  --      3.7206                13.0781                10.3503
 IR Inten    --     52.9299               201.2772                14.5637

                     58                     59                     60
                      A                      A                      A
 Frequencies --   1650.9994              1684.4573              1709.4457
 Red. masses --      5.6162                 6.9172                 6.4814
 Frc consts  --      9.0196                11.5638                11.1590
 IR Inten    --    101.1119                 4.2190                92.6124

                     61                     62                     63
                      A                      A                      A
 Frequencies --   3193.7953              3209.6674              3211.1848
 Red. masses --      1.0895                 1.0882                 1.0861
 Frc consts  --      6.5479                 6.6049                 6.5983
 IR Inten    --      3.8696                 5.8614                 1.1822

                     64                     65                     66
                      A                      A                      A
 Frequencies --   3221.9939              3229.4783              3232.0745
 Red. masses --      1.0903                 1.0942                 1.0959
 Frc consts  --      6.6690                 6.7237                 6.7453
 IR Inten    --      4.3824                 9.6273                11.7679

                     67                     68                     69
                      A                      A                      A
 Frequencies --   3237.5133              3238.4678              3584.5375
 Red. masses --      1.0991                 1.0999                 1.0667
 Frc consts  --      6.7876                 6.7964                 8.0756
 IR Inten    --     19.5929                12.6478               592.5806

 - Thermochemistry -
 -------------------
 Temperature   298.150 Kelvin.  Pressure   1.00000 Atm.
 Atom     1 has atomic number  6 and mass  12.00000

 Molecular mass:   227.04049 amu.
 Principal axes and moments of inertia in atomic units:
                           1         2         3
     Eigenvalues --  1342.901976376.810337719.71230
           X           -0.69420   0.71978   0.00000
           Y            0.71978   0.69420  -0.00001
           Z            0.00001   0.00000   1.00000
 This molecule is an asymmetric top.
 Rotational symmetry number  1.
 Warning -- assumption of classical behavior for rotation
           may cause significant error
 Rotational temperatures (Kelvin)      0.06450     0.01358     0.01122
 Rotational constants (GHZ):           1.34391     0.28302     0.23378
 Zero-point vibrational energy     498946.4 (Joules/Mol)
                                  119.25105 (Kcal/Mol)
 Warning -- explicit consideration of  18 degrees of freedom as
           vibrations may cause significant error
 Vibrational temperatures:     72.49    79.08   161.96   217.43   287.21
          (Kelvin)            352.99   374.87   419.94   468.68   576.02
                              632.72   675.97   713.40   739.31   775.40
                              786.07   825.36   855.45   915.81   974.57
                              988.40   997.51  1038.06  1086.73  1107.21
                             1120.31  1134.75  1208.07  1274.47  1277.19
                             1286.21  1400.62  1404.59  1404.73  1455.47
                             1460.72  1512.08  1540.61  1573.70  1648.19
                             1654.82  1692.80  1703.75  1774.92  1840.56
                             1845.76  1882.58  1946.38  1969.37  1979.34
                             2040.73  2144.73  2157.27  2184.83  2207.24
                             2306.17  2364.21  2375.42  2423.56  2459.51
                             4595.16  4618.00  4620.18  4635.73  4646.50
                             4650.23  4658.06  4659.43  5157.35

 Zero-point correction=                           0.190039 (Hartree/Particle)
 Thermal correction to Energy=                    0.201875
 Thermal correction to Enthalpy=                  0.202819
 Thermal correction to Gibbs Free Energy=         0.151230
 Sum of electronic and zero-point Energies=          -1028.636578
 Sum of electronic and thermal Energies=             -1028.624741
 Sum of electronic and thermal Enthalpies=           -1028.623797
 Sum of electronic and thermal Free Energies=        -1028.675386

                     E (Thermal)             CV                S
                      KCal/Mol        Cal/Mol-Kelvin    Cal/Mol-Kelvin
 Total                  126.679             48.127            108.579
 Electronic               0.000              0.000              0.000
 Translational            0.889              2.981             42.162
 Rotational               0.889              2.981             32.558
 Vibrational            124.901             42.165             33.858
 Vibration     1          0.595              1.977              4.802
 Vibration     2          0.596              1.976              4.630
 Vibration     3          0.607              1.939              3.224
 Vibration     4          0.619              1.901              2.658
 Vibration     5          0.638              1.840              2.137
 Vibration     6          0.660              1.770              1.764
 Vibration     7          0.669              1.745              1.658
 Vibration     8          0.687              1.689              1.463
 Vibration     9          0.710              1.624              1.281
 Vibration    10          0.766              1.469              0.961
 Vibration    11          0.800              1.383              0.827
 Vibration    12          0.827              1.317              0.738
 Vibration    13          0.851              1.259              0.669
 Vibration    14          0.869              1.219              0.624
 Vibration    15          0.894              1.164              0.568
 Vibration    16          0.902              1.148              0.552
 Vibration    17          0.930              1.088              0.497
 Vibration    18          0.952              1.043              0.459

 Optimization completed.
    -- Stationary point found.
 Normal termination of Gaussian 16 at Tue Oct 27 22:17:11 2020.
