 Gaussian 16, Revision C.01,
 Gaussian 16:  ES64L-G16RevC.01  3-Jul-2019

 ----------------------------------------------------------------------
 #p opt=addgic freq wb97xd/cc-pvdz nosymm int=ultrafine scrf=(solvent=C
 arbonTetraChloride)
 ----------------------------------------------------------------------

 ------------------------------------------------
 NM 2D-scan of HBT TD-WB97XD pVDZ in CTC Relaxed.
 ------------------------------------------------
 Symbolic Z-matrix:
 Charge =  0 Multiplicity = 1

 SCF Done:  E(RwB97XD) =  -1028.79454123     A.U. after   16 cycles
 SCF Done:  E(RwB97XD) =  -1028.80688984     A.U. after   14 cycles
 SCF Done:  E(RwB97XD) =  -1028.80816485     A.U. after   13 cycles
 SCF Done:  E(RwB97XD) =  -1028.80845164     A.U. after   12 cycles
 SCF Done:  E(RwB97XD) =  -1028.80848715     A.U. after   10 cycles
 SCF Done:  E(RwB97XD) =  -1028.80849244     A.U. after   10 cycles
 SCF Done:  E(RwB97XD) =  -1028.80849306     A.U. after   10 cycles
 Optimization completed.
    -- Stationary point found.
 Normal termination of Gaussian 16 at Wed Oct 28 01:43:28 2020.

 --------------------------------------------------------------------
 #P Geom=AllCheck Guess=TCheck SCRF=Check GenChk RwB97XD/CC-pVDZ Freq
 --------------------------------------------------------------------

 Structure from the checkpoint file:  "config_8_18.chk"
 ------------------------------------------------
 NM 2D-scan of HBT TD-WB97XD pVDZ in CTC Relaxed.
 ------------------------------------------------
 Charge =  0 Multiplicity = 1

                          Input orientation:
 ---------------------------------------------------------------------
 Center     Atomic      Atomic             Coordinates (Angstroms)
 Number     Number       Type             X           Y           Z
 ---------------------------------------------------------------------
      1          6           0        1.521010   -3.264497    0.000238
      2          6           0        0.988514   -1.979350    0.000066
      3          6           0        1.790061   -0.822335   -0.000176
      4          6           0        3.180580   -0.964882   -0.000280
      5          6           0        3.717824   -2.252163   -0.000098
      6          6           0        2.904265   -3.393216    0.000164
      7          1           0        0.867987   -4.137698    0.000417
      8          1           0        3.827543   -0.087311   -0.000482
      9          1           0        4.802314   -2.369758   -0.000165
     10          1           0        3.356815   -4.385410    0.000293
     11          7           0        1.021473    0.350184   -0.000308
     12         16           0       -0.706219   -1.568428    0.000052
     13          6           0       -1.291883    1.120269   -0.000010
     14          6           0       -2.666676    0.740556   -0.000138
     15          6           0       -0.885350    2.511194    0.000211
     16          6           0       -3.653671    1.679819   -0.000160
     17          1           0       -2.934043   -0.319331   -0.000274
     18          6           0       -1.972596    3.462807    0.000262
     19          6           0       -3.280905    3.056802    0.000027
     20          1           0       -4.704578    1.391692   -0.000296
     21          1           0       -1.707697    4.521524    0.000543
     22          1           0       -4.069618    3.813468    0.000054
     23          6           0       -0.299358    0.127066   -0.000086
     24          8           0        0.334565    2.858369    0.000846
     25          1           0        1.207325    1.407172   -0.000597
 ---------------------------------------------------------------------

 SCF Done:  E(RwB97XD) =  -1028.80849306     A.U. after    1 cycles

 Alpha  occ. eigenvalues --  -89.09606 -19.21927 -14.52104 -10.40972 -10.37580
 Alpha  occ. eigenvalues --  -10.36174 -10.35850 -10.33104 -10.32927 -10.32417
 Alpha  occ. eigenvalues --  -10.32246 -10.31253 -10.30902 -10.30354 -10.29297
 Alpha  occ. eigenvalues --  -10.28815  -8.11718  -6.06586  -6.06215  -6.05728
 Alpha  occ. eigenvalues --   -1.12531  -1.09550  -0.98473  -0.95624  -0.93224
 Alpha  occ. eigenvalues --   -0.89172  -0.86715  -0.83679  -0.82106  -0.75575
 Alpha  occ. eigenvalues --   -0.72530  -0.72157  -0.68705  -0.67863  -0.64724
 Alpha  occ. eigenvalues --   -0.60912  -0.59679  -0.56911  -0.55670  -0.55647
 Alpha  occ. eigenvalues --   -0.55004  -0.53941  -0.52952  -0.50115  -0.49750
 Alpha  occ. eigenvalues --   -0.49064  -0.48225  -0.46751  -0.45552  -0.44852
 Alpha  occ. eigenvalues --   -0.44447  -0.42982  -0.41917  -0.40474  -0.36739
 Alpha  occ. eigenvalues --   -0.33463  -0.32346  -0.31565  -0.26659
 Alpha virt. eigenvalues --   -0.01188   0.03897   0.05706   0.07042   0.09029
 Alpha virt. eigenvalues --    0.11161   0.14297   0.14924   0.16464   0.17595
 Alpha virt. eigenvalues --    0.18624   0.20131   0.20747   0.21497   0.22652

 Mulliken charges:
               1
     1  C    0.019873
     2  C   -0.223337
     3  C    0.256556
     4  C   -0.012804
     5  C    0.007183
     6  C    0.004915
     7  H    0.024146
     8  H    0.029856
     9  H    0.026290
    10  H    0.025718
    11  N   -0.180938
    12  S    0.182563
    13  C   -0.093318
    14  C   -0.021757
    15  C    0.106608
    16  C   -0.026875
    17  H    0.016519
    18  C   -0.019045
    19  C    0.025974
    20  H    0.002872
    21  H    0.004014
    22  H    0.014383
    23  C    0.068633
    24  O   -0.403804
    25  H    0.165773
 Sum of Mulliken charges =  -0.00000

 Dipole moment (field-independent basis, Debye):
    X=              1.4542    Y=             -5.2378    Z=             -0.0022  Tot=              5.4359
 Quadrupole moment (field-independent basis, Debye-Ang):
   XX=            -81.7881   YY=            -95.6947   ZZ=           -104.0178
   XY=             -6.8677   XZ=             -0.0023   YZ=             -0.0066

  Exact polarizability:     284.040     -84.443     281.465      -0.000       0.004      62.813
 Approx polarizability:     264.372     -30.351     255.394       0.003       0.003      81.922

                      1                      2                      3
                      A                      A                      A
 Frequencies --     50.5804                72.5723                90.2801
 Red. masses --      6.0397                 4.5490                 5.7243
 Frc consts  --      0.0091                 0.0141                 0.0275
 IR Inten    --      1.3293                 0.4410                 6.8803

                      4                      5                      6
                      A                      A                      A
 Frequencies --    141.7967               199.1464               234.2102
 Red. masses --      5.3364                 6.2428                 6.1984
 Frc consts  --      0.0632                 0.1459                 0.2003
 IR Inten    --      1.7773                 0.0123                 0.9601

                      7                      8                      9
                      A                      A                      A
 Frequencies --    249.6906               301.6244               310.2603
 Red. masses --      6.8294                 6.5820                 5.3884
 Frc consts  --      0.2509                 0.3528                 0.3056
 IR Inten    --     14.6264                 0.6929                 0.4257

                     10                     11                     12
                      A                      A                      A
 Frequencies --    416.3585               429.0016               451.6957
 Red. masses --      9.8329                 3.2185                 3.5278
 Frc consts  --      1.0043                 0.3490                 0.4241
 IR Inten    --      2.3052                 0.0039                10.5092

                     13                     14                     15
                      A                      A                      A
 Frequencies --    514.1757               526.2716               528.1019
 Red. masses --      8.7980                 2.7526                 5.6549
 Frc consts  --      1.3704                 0.4492                 0.9292
 IR Inten    --     11.4752                 5.0245                 4.3902

                     16                     17                     18
                      A                      A                      A
 Frequencies --    551.8729               561.8855               579.8802
 Red. masses --      7.4660                 3.8618                 6.6668
 Frc consts  --      1.3397                 0.7183                 1.3208
 IR Inten    --     12.6646                 0.0518                34.2180

                     19                     20                     21
                      A                      A                      A
 Frequencies --    638.7156               639.3264               727.9387
 Red. masses --      5.5669                 5.9148                 5.6525
 Frc consts  --      1.3381                 1.4244                 1.7647
 IR Inten    --      5.0147                 0.1424                 9.4968

                     22                     23                     24
                      A                      A                      A
 Frequencies --    732.4892               750.5765               759.7900
 Red. masses --      8.0718                 2.7168                 1.4294
 Frc consts  --      2.5516                 0.9018                 0.4862
 IR Inten    --     97.0784                 9.0343                58.1349

                     25                     26                     27
                      A                      A                      A
 Frequencies --    774.8910               778.2225               814.5712
 Red. masses --      1.6269                 2.3490                 3.6946
 Frc consts  --      0.5756                 0.8382                 1.4444
 IR Inten    --     28.1707                30.0603                20.9211

                     28                     29                     30
                      A                      A                      A
 Frequencies --    853.0216               876.9503               884.3475
 Red. masses --      5.4933                 1.9038                 1.3730
 Frc consts  --      2.3551                 0.8626                 0.6326
 IR Inten    --     12.1567                 8.9777                 1.0847

                     31                     32                     33
                      A                      A                      A
 Frequencies --    959.1876               963.8675               965.6689
 Red. masses --      4.6951                 1.3089                 1.1489
 Frc consts  --      2.5451                 0.7165                 0.6312
 IR Inten    --     29.3054                 9.6775                70.2912

                     34                     35                     36
                      A                      A                      A
 Frequencies --    971.6642              1013.6379              1018.7157
 Red. masses --      1.3099                 1.3048                 1.3088
 Frc consts  --      0.7287                 0.7899                 0.8002
 IR Inten    --      6.8497                 0.0785                 0.5552

                     37                     38                     39
                      A                      A                      A
 Frequencies --   1039.2516              1055.2109              1077.4771
 Red. masses --      2.2750                 2.0411                 3.3770
 Frc consts  --      1.4477                 1.3390                 2.3099
 IR Inten    --     22.6820                 9.7520                25.2659

                     40                     41                     42
                      A                      A                      A
 Frequencies --   1133.3144              1163.9433              1166.2312
 Red. masses --      2.1224                 1.2672                 1.4298
 Frc consts  --      1.6061                 1.0115                 1.1458
 IR Inten    --     37.5091                30.4037                15.2621

                     43                     44                     45
                      A                      A                      A
 Frequencies --   1180.0208              1202.1975              1256.9354
 Red. masses --      1.1912                 1.4055                 2.0314
 Frc consts  --      0.9773                 1.1968                 1.8910
 IR Inten    --     20.6554                 5.7665                30.5378

                     46                     47                     48
                      A                      A                      A
 Frequencies --   1290.1821              1323.0366              1350.9590
 Red. masses --      1.5446                 2.5143                 3.5729
 Frc consts  --      1.5148                 2.5930                 3.8420
 IR Inten    --     15.7153               135.1638                20.1850

                     49                     50                     51
                      A                      A                      A
 Frequencies --   1369.4534              1399.7949              1422.1303
 Red. masses --      4.2821                 3.6862                 3.3545
 Frc consts  --      4.7316                 4.2555                 3.9973
 IR Inten    --     52.1791                31.1106                68.1271

                     52                     53                     54
                      A                      A                      A
 Frequencies --   1494.8263              1503.2624              1512.8854
 Red. masses --      2.6315                 2.5404                 2.9785
 Frc consts  --      3.4644                 3.3824                 4.0166
 IR Inten    --     11.9703                31.0418                13.3652

                     55                     56                     57
                      A                      A                      A
 Frequencies --   1580.5584              1593.6822              1631.2267
 Red. masses --      4.3585                 5.1421                 8.9601
 Frc consts  --      6.4152                 7.6948                14.0472
 IR Inten    --   1791.4117               121.0395               559.7321

                     58                     59                     60
                      A                      A                      A
 Frequencies --   1655.4023              1679.9278              1714.4012
 Red. masses --      6.8775                 6.9449                 6.3076
 Frc consts  --     11.1042                11.5478                10.9229
 IR Inten    --     15.9485                24.2398               300.8008

                     61                     62                     63
                      A                      A                      A
 Frequencies --   2806.0192              3194.0495              3197.7740
 Red. masses --      1.0946                 1.0863                 1.0895
 Frc consts  --      5.0779                 6.5298                 6.5638
 IR Inten    --    407.0788                 1.8335                16.9719

                     64                     65                     66
                      A                      A                      A
 Frequencies --   3213.3200              3222.1693              3222.9298
 Red. masses --      1.0863                 1.0952                 1.0906
 Frc consts  --      6.6085                 6.6993                 6.6747
 IR Inten    --      1.1652                25.9246                 3.0441

                     67                     68                     69
                      A                      A                      A
 Frequencies --   3232.0867              3236.5521              3238.9759
 Red. masses --      1.0960                 1.0979                 1.1000
 Frc consts  --      6.7454                 6.7761                 6.7989
 IR Inten    --      5.1462                15.8604                11.0973

 - Thermochemistry -
 -------------------
 Temperature   298.150 Kelvin.  Pressure   1.00000 Atm.
 Atom     1 has atomic number  6 and mass  12.00000

 Molecular mass:   227.04049 amu.
 Principal axes and moments of inertia in atomic units:
                           1         2         3
     Eigenvalues --  1287.827726304.715507592.54310
           X           -0.70195   0.71223  -0.00003
           Y            0.71223   0.70195  -0.00005
           Z            0.00002   0.00006   1.00000
 This molecule is an asymmetric top.
 Rotational symmetry number  1.
 Warning -- assumption of classical behavior for rotation
           may cause significant error
 Rotational temperatures (Kelvin)      0.06726     0.01374     0.01141
 Rotational constants (GHZ):           1.40138     0.28625     0.23770
 Zero-point vibrational energy     494615.0 (Joules/Mol)
                                  118.21583 (Kcal/Mol)
 Warning -- explicit consideration of  18 degrees of freedom as
           vibrations may cause significant error
 Vibrational temperatures:     72.77   104.42   129.89   204.01   286.53
          (Kelvin)            336.98   359.25   433.97   446.40   599.05
                              617.24   649.89   739.78   757.19   759.82
                              794.02   808.43   834.32   918.97   919.85
                             1047.34  1053.89  1079.91  1093.17  1114.90
                             1119.69  1171.99  1227.31  1261.74  1272.38
                             1380.06  1386.79  1389.38  1398.01  1458.40
                             1465.70  1495.25  1518.21  1550.25  1630.59
                             1674.65  1677.95  1697.79  1729.69  1808.45
                             1856.28  1903.55  1943.73  1970.34  2013.99
                             2046.13  2150.72  2162.86  2176.70  2274.07
                             2292.95  2346.97  2381.75  2417.04  2466.64
                             4037.24  4595.52  4600.88  4623.25  4635.98
                             4637.08  4650.25  4656.68  4660.16

 Zero-point correction=                           0.188389 (Hartree/Particle)
 Thermal correction to Energy=                    0.200254
 Thermal correction to Enthalpy=                  0.201198
 Thermal correction to Gibbs Free Energy=         0.149599
 Sum of electronic and zero-point Energies=          -1028.620104
 Sum of electronic and thermal Energies=             -1028.608239
 Sum of electronic and thermal Enthalpies=           -1028.607295
 Sum of electronic and thermal Free Energies=        -1028.658894

                     E (Thermal)             CV                S
                      KCal/Mol        Cal/Mol-Kelvin    Cal/Mol-Kelvin
 Total                  125.661             48.022            108.598
 Electronic               0.000              0.000              0.000
 Translational            0.889              2.981             42.162
 Rotational               0.889              2.981             32.489
 Vibrational            123.884             42.061             33.948
 Vibration     1          0.595              1.977              4.795
 Vibration     2          0.599              1.967              4.082
 Vibration     3          0.602              1.956              3.654
 Vibration     4          0.615              1.911              2.779
 Vibration     5          0.637              1.841              2.141
 Vibration     6          0.654              1.789              1.846
 Vibration     7          0.662              1.763              1.733
 Vibration     8          0.694              1.671              1.408
 Vibration     9          0.699              1.654              1.361
 Vibration    10          0.780              1.435              0.904
 Vibration    11          0.790              1.407              0.862
 Vibration    12          0.810              1.357              0.791
 Vibration    13          0.869              1.219              0.624
 Vibration    14          0.881              1.192              0.596
 Vibration    15          0.883              1.188              0.591
 Vibration    16          0.907              1.136              0.540
 Vibration    17          0.918              1.114              0.520
 Vibration    18          0.937              1.075              0.486

 Optimization completed.
    -- Stationary point found.
 Normal termination of Gaussian 16 at Wed Oct 28 01:50:12 2020.
