 Gaussian 16, Revision C.01,
 Gaussian 16:  ES64L-G16RevC.01  3-Jul-2019

 ----------------------------------------------------------------------
 #p opt=addgic freq wb97xd/cc-pvdz nosymm int=ultrafine scrf=(solvent=C
 arbonTetraChloride)
 ----------------------------------------------------------------------

 ------------------------------------------------
 NM 2D-scan of HBT TD-WB97XD pVDZ in CTC Relaxed.
 ------------------------------------------------
 Symbolic Z-matrix:
 Charge =  0 Multiplicity = 1

 SCF Done:  E(RwB97XD) =  -1028.80477584     A.U. after   15 cycles
 SCF Done:  E(RwB97XD) =  -1028.81045954     A.U. after   13 cycles
 SCF Done:  E(RwB97XD) =  -1028.81047199     A.U. after   13 cycles
 SCF Done:  E(RwB97XD) =  -1028.81121609     A.U. after   13 cycles
 SCF Done:  E(RwB97XD) =  -1028.81127559     A.U. after   11 cycles
 SCF Done:  E(RwB97XD) =  -1028.81096419     A.U. after   12 cycles
 SCF Done:  E(RwB97XD) =  -1028.81129706     A.U. after   10 cycles
 SCF Done:  E(RwB97XD) =  -1028.81130050     A.U. after   10 cycles
 SCF Done:  E(RwB97XD) =  -1028.81130229     A.U. after    9 cycles
 Optimization completed.
    -- Stationary point found.
 Normal termination of Gaussian 16 at Wed Oct 28 00:51:34 2020.

 --------------------------------------------------------------------
 #P Geom=AllCheck Guess=TCheck SCRF=Check GenChk RwB97XD/CC-pVDZ Freq
 --------------------------------------------------------------------

 Structure from the checkpoint file:  "config_7_15.chk"
 ------------------------------------------------
 NM 2D-scan of HBT TD-WB97XD pVDZ in CTC Relaxed.
 ------------------------------------------------
 Charge =  0 Multiplicity = 1

                          Input orientation:
 ---------------------------------------------------------------------
 Center     Atomic      Atomic             Coordinates (Angstroms)
 Number     Number       Type             X           Y           Z
 ---------------------------------------------------------------------
      1          6           0        1.555250   -3.239780   -0.000064
      2          6           0        1.004825   -1.963498   -0.000053
      3          6           0        1.776960   -0.790775   -0.000017
      4          6           0        3.172905   -0.911883    0.000002
      5          6           0        3.730537   -2.191396   -0.000007
      6          6           0        2.937644   -3.347463   -0.000039
      7          1           0        0.913911   -4.121498   -0.000095
      8          1           0        3.807962   -0.025604    0.000032
      9          1           0        4.816943   -2.291077    0.000014
     10          1           0        3.406861   -4.331887   -0.000047
     11          7           0        0.970641    0.354291    0.000016
     12         16           0       -0.699028   -1.595824   -0.000085
     13          6           0       -1.331369    1.097177    0.000052
     14          6           0       -2.696336    0.759995    0.000054
     15          6           0       -0.869215    2.448151    0.000083
     16          6           0       -3.658620    1.744481    0.000051
     17          1           0       -2.993804   -0.291844    0.000062
     18          6           0       -1.896577    3.443969    0.000026
     19          6           0       -3.235661    3.089871    0.000020
     20          1           0       -4.718794    1.492040    0.000053
     21          1           0       -1.598113    4.493546   -0.000004
     22          1           0       -3.989311    3.881033   -0.000006
     23          6           0       -0.325915    0.084571    0.000005
     24          8           0        0.400753    2.693675    0.000042
     25          1           0        0.996686    1.563615    0.000007
 ---------------------------------------------------------------------

 SCF Done:  E(RwB97XD) =  -1028.81130229     A.U. after    1 cycles

 Alpha  occ. eigenvalues --  -89.09338 -19.23705 -14.49673 -10.40237 -10.36679
 Alpha  occ. eigenvalues --  -10.36490 -10.35379 -10.32787 -10.32640 -10.32175
 Alpha  occ. eigenvalues --  -10.32052 -10.31459 -10.31083 -10.30762 -10.29553
 Alpha  occ. eigenvalues --  -10.29368  -8.11499  -6.06347  -6.05981  -6.05537
 Alpha  occ. eigenvalues --   -1.13257  -1.09746  -0.98017  -0.95831  -0.92922
 Alpha  occ. eigenvalues --   -0.88965  -0.86284  -0.83827  -0.82685  -0.75680
 Alpha  occ. eigenvalues --   -0.71846  -0.71356  -0.68826  -0.67922  -0.63812
 Alpha  occ. eigenvalues --   -0.60937  -0.59545  -0.57400  -0.55861  -0.55227
 Alpha  occ. eigenvalues --   -0.54683  -0.53649  -0.52733  -0.50855  -0.49688
 Alpha  occ. eigenvalues --   -0.49498  -0.47301  -0.46537  -0.45328  -0.45042
 Alpha  occ. eigenvalues --   -0.44438  -0.43182  -0.41994  -0.40558  -0.36476
 Alpha  occ. eigenvalues --   -0.34258  -0.32964  -0.31552  -0.27685
 Alpha virt. eigenvalues --   -0.00902   0.04224   0.06240   0.07406   0.08264
 Alpha virt. eigenvalues --    0.11070   0.14779   0.14923   0.16900   0.17768
 Alpha virt. eigenvalues --    0.19062   0.20639   0.21483   0.21921   0.22909

 Mulliken charges:
               1
     1  C    0.020506
     2  C   -0.224362
     3  C    0.261000
     4  C   -0.014744
     5  C    0.005313
     6  C    0.005589
     7  H    0.022094
     8  H    0.027910
     9  H    0.024823
    10  H    0.024498
    11  N   -0.276356
    12  S    0.177218
    13  C   -0.086306
    14  C   -0.025153
    15  C    0.118493
    16  C   -0.020289
    17  H    0.014996
    18  C   -0.019462
    19  C    0.023387
    20  H    0.004659
    21  H    0.007760
    22  H    0.015803
    23  C    0.075497
    24  O   -0.376851
    25  H    0.213977
 Sum of Mulliken charges =  -0.00000

 Dipole moment (field-independent basis, Debye):
    X=              0.8295    Y=             -4.4506    Z=             -0.0001  Tot=              4.5273
 Quadrupole moment (field-independent basis, Debye-Ang):
   XX=            -82.4649   YY=            -93.0701   ZZ=           -103.9347
   XY=             -7.0943   XZ=              0.0001   YZ=              0.0000

  Exact polarizability:     279.250     -76.262     266.913       0.000       0.003      62.799
 Approx polarizability:     263.967     -27.231     248.979       0.001       0.002      82.079

 ******    1 imaginary frequencies (negative Signs) ******

                      1                      2                      3
                      A                      A                      A
 Frequencies --  -1253.8521                53.3543                62.3560
 Red. masses --      1.1091                 4.6862                 6.4150
 Frc consts  --      1.0274                 0.0079                 0.0147
 IR Inten    --   1521.2455                 0.0250                 1.3894

                      4                      5                      6
                      A                      A                      A
 Frequencies --    149.3694               152.1463               201.9709
 Red. masses --      5.5927                 5.1401                 6.4055
 Frc consts  --      0.0735                 0.0701                 0.1539
 IR Inten    --      0.6527                 0.9774                 0.1520

                      7                      8                      9
                      A                      A                      A
 Frequencies --    243.5053               287.1542               322.8936
 Red. masses --      5.9767                 7.2129                 5.2681
 Frc consts  --      0.2088                 0.3504                 0.3236
 IR Inten    --      0.3819                 4.4484                 0.2596

                     10                     11                     12
                      A                      A                      A
 Frequencies --    381.5221               429.7657               433.3216
 Red. masses --      6.1848                11.6958                 3.1228
 Frc consts  --      0.5304                 1.2728                 0.3455
 IR Inten    --      1.1668                 1.3360                 0.8640

                     13                     14                     15
                      A                      A                      A
 Frequencies --    457.8102               517.5159               536.5079
 Red. masses --      3.5500                 8.7459                 3.1875
 Frc consts  --      0.4384                 1.3801                 0.5406
 IR Inten    --      9.7260                 5.5520                 3.8690

                     16                     17                     18
                      A                      A                      A
 Frequencies --    557.6279               570.7783               575.5471
 Red. masses --      8.8115                 3.7088                 7.3282
 Frc consts  --      1.6143                 0.7119                 1.4302
 IR Inten    --      5.5406                 0.1132                 7.6077

                     19                     20                     21
                      A                      A                      A
 Frequencies --    614.5793               648.3122               693.1264
 Red. masses --      7.3076                 6.4659                 6.3339
 Frc consts  --      1.6262                 1.6012                 1.7928
 IR Inten    --     19.6274                 0.0014                 2.0756

                     22                     23                     24
                      A                      A                      A
 Frequencies --    737.5961               753.7594               766.3206
 Red. masses --      6.5411                 2.3166                 1.5162
 Frc consts  --      2.0967                 0.7755                 0.5246
 IR Inten    --      8.7246                19.2950                43.1107

                     25                     26                     27
                      A                      A                      A
 Frequencies --    775.8121               776.2074               780.0247
 Red. masses --      8.1573                 2.4619                 1.7449
 Frc consts  --      2.8927                 0.8739                 0.6255
 IR Inten    --     40.1779                11.5321                53.6361

                     28                     29                     30
                      A                      A                      A
 Frequencies --    859.4188               877.4036               885.4508
 Red. masses --      6.3901                 1.6927                 1.3837
 Frc consts  --      2.7808                 0.7678                 0.6392
 IR Inten    --     14.1412                 8.0754                 0.4802

                     31                     32                     33
                      A                      A                      A
 Frequencies --    927.7505               963.8364               973.4270
 Red. masses --      7.1090                 1.3473                 1.3630
 Frc consts  --      3.6051                 0.7374                 0.7609
 IR Inten    --      3.0615                 0.6228                 1.6592

                     34                     35                     36
                      A                      A                      A
 Frequencies --   1012.5718              1015.2514              1019.3315
 Red. masses --      1.3064                 1.3059                 7.5855
 Frc consts  --      0.7892                 0.7931                 4.6437
 IR Inten    --      0.3048                 0.0014                10.9629

                     37                     38                     39
                      A                      A                      A
 Frequencies --   1053.3907              1060.2380              1110.9596
 Red. masses --      2.0333                 1.9185                 3.0969
 Frc consts  --      1.3293                 1.2706                 2.2520
 IR Inten    --      9.1654                 6.4711                 2.0274

                     40                     41                     42
                      A                      A                      A
 Frequencies --   1162.7108              1163.8210              1172.5750
 Red. masses --      1.3535                 1.4200                 1.0561
 Frc consts  --      1.0781                 1.1332                 0.8555
 IR Inten    --      7.6658                 8.4034                72.2566

                     43                     44                     45
                      A                      A                      A
 Frequencies --   1178.2697              1185.8193              1261.5747
 Red. masses --      1.1582                 1.2541                 2.0385
 Frc consts  --      0.9474                 1.0390                 1.9115
 IR Inten    --     66.4345                11.2098                48.4777

                     46                     47                     48
                      A                      A                      A
 Frequencies --   1291.4474              1325.2195              1335.2825
 Red. masses --      1.5374                 4.8626                 2.3114
 Frc consts  --      1.5108                 5.0315                 2.4281
 IR Inten    --      1.0728               271.4879               125.7418

                     49                     50                     51
                      A                      A                      A
 Frequencies --   1374.2192              1396.6157              1406.3406
 Red. masses --      6.4805                 2.3541                 9.0729
 Frc consts  --      7.2106                 2.7054                10.5725
 IR Inten    --     29.9433                11.9337                32.7856

                     52                     53                     54
                      A                      A                      A
 Frequencies --   1488.6461              1499.9398              1509.9174
 Red. masses --      2.7075                 2.8318                 3.0766
 Frc consts  --      3.5351                 3.7538                 4.1327
 IR Inten    --     41.3974                 7.1819                34.6026

                     55                     56                     57
                      A                      A                      A
 Frequencies --   1566.9011              1580.7472              1617.4693
 Red. masses --      5.5565                 5.5360                 6.3562
 Frc consts  --      8.0378                 8.1502                 9.7977
 IR Inten    --   1230.1598               366.2780                87.6028

                     58                     59                     60
                      A                      A                      A
 Frequencies --   1656.2570              1679.5589              1705.2885
 Red. masses --      6.9244                 6.7740                 6.6589
 Frc consts  --     11.1915                11.2586                11.4091
 IR Inten    --      2.6491                 2.9345               232.8887

                     61                     62                     63
                      A                      A                      A
 Frequencies --   1972.7532              3194.9284              3201.7494
 Red. masses --      1.0974                 1.0882                 1.0889
 Frc consts  --      2.5162                 6.5445                 6.5769
 IR Inten    --    237.0359                 2.9945                11.8260

                     64                     65                     66
                      A                      A                      A
 Frequencies --   3212.6619              3222.2656              3225.1833
 Red. masses --      1.0863                 1.0908                 1.0939
 Frc consts  --      6.6056                 6.6727                 6.7039
 IR Inten    --      1.5115                 2.4724                20.2538

                     67                     68                     69
                      A                      A                      A
 Frequencies --   3231.9760              3236.1062              3238.7324
 Red. masses --      1.0959                 1.0982                 1.0999
 Frc consts  --      6.7445                 6.7758                 6.7978
 IR Inten    --      6.0143                17.6587                12.2034

 - Thermochemistry -
 -------------------
 Temperature   298.150 Kelvin.  Pressure   1.00000 Atm.
 Atom     1 has atomic number  6 and mass  12.00000

 Molecular mass:   227.04049 amu.
 Principal axes and moments of inertia in atomic units:
                           1         2         3
     Eigenvalues --  1272.008506231.393707503.40220
           X            0.70767   0.70654  -0.00001
           Y           -0.70654   0.70767  -0.00002
           Z           -0.00001   0.00002   1.00000
 This molecule is an asymmetric top.
 Rotational symmetry number  1.
 Warning -- assumption of classical behavior for rotation
           may cause significant error
 Rotational temperatures (Kelvin)      0.06809     0.01390     0.01154
 Rotational constants (GHZ):           1.41881     0.28962     0.24052
    1 imaginary frequencies ignored.
 Zero-point vibrational energy     487675.0 (Joules/Mol)
                                  116.55712 (Kcal/Mol)
 Warning -- explicit consideration of  18 degrees of freedom as
           vibrations may cause significant error
 Vibrational temperatures:     76.76    89.72   214.91   218.90   290.59
          (Kelvin)            350.35   413.15   464.57   548.93   618.34
                              623.45   658.69   744.59   771.92   802.30
                              821.22   828.08   884.24   932.78   997.25
                             1061.24  1084.49  1102.56  1116.22  1116.79
                             1122.28  1236.51  1262.39  1273.97  1334.83
                             1386.75  1400.54  1456.86  1460.72  1466.59
                             1515.59  1525.45  1598.42  1672.88  1674.48
                             1687.07  1695.27  1706.13  1815.12  1858.10
                             1906.70  1921.17  1977.19  2009.42  2023.41
                             2141.83  2158.08  2172.43  2254.42  2274.34
                             2327.18  2382.98  2416.51  2453.53  2838.35
                             4596.79  4606.60  4622.30  4636.12  4640.32
                             4650.09  4656.03  4659.81

 Zero-point correction=                           0.185746 (Hartree/Particle)
 Thermal correction to Energy=                    0.197101
 Thermal correction to Enthalpy=                  0.198045
 Thermal correction to Gibbs Free Energy=         0.147584
 Sum of electronic and zero-point Energies=          -1028.625557
 Sum of electronic and thermal Energies=             -1028.614201
 Sum of electronic and thermal Enthalpies=           -1028.613257
 Sum of electronic and thermal Free Energies=        -1028.663718

                     E (Thermal)             CV                S
                      KCal/Mol        Cal/Mol-Kelvin    Cal/Mol-Kelvin
 Total                  123.683             46.470            106.205
 Electronic               0.000              0.000              0.000
 Translational            0.889              2.981             42.162
 Rotational               0.889              2.981             32.453
 Vibrational            121.905             40.509             31.590
 Vibration     1          0.596              1.976              4.689
 Vibration     2          0.597              1.972              4.381
 Vibration     3          0.618              1.903              2.680
 Vibration     4          0.619              1.900              2.645
 Vibration     5          0.639              1.837              2.115
 Vibration     6          0.659              1.774              1.777
 Vibration     7          0.684              1.698              1.491
 Vibration     8          0.708              1.630              1.295
 Vibration     9          0.751              1.510              1.033
 Vibration    10          0.791              1.405              0.859
 Vibration    11          0.794              1.398              0.848
 Vibration    12          0.816              1.344              0.773
 Vibration    13          0.873              1.211              0.616
 Vibration    14          0.892              1.169              0.573
 Vibration    15          0.913              1.123              0.529
 Vibration    16          0.927              1.094              0.503
 Vibration    17          0.932              1.084              0.494
 Vibration    18          0.974              1.001              0.425

 Optimization completed.
    -- Stationary point found.
 Normal termination of Gaussian 16 at Wed Oct 28 00:58:05 2020.
