 Gaussian 16, Revision C.01,
 Gaussian 16:  ES64L-G16RevC.01  3-Jul-2019

 ----------------------------------------------------------------------
 #p opt=addgic freq wb97xd/cc-pvdz nosymm int=ultrafine scrf=(solvent=C
 arbonTetraChloride)
 ----------------------------------------------------------------------

 ------------------------------------------------
 NM 2D-scan of HBT TD-WB97XD pVDZ in CTC Relaxed.
 ------------------------------------------------
 Symbolic Z-matrix:
 Charge =  0 Multiplicity = 1

 SCF Done:  E(RwB97XD) =  -1028.81800996     A.U. after   15 cycles
 SCF Done:  E(RwB97XD) =  -1028.82488600     A.U. after   13 cycles
 SCF Done:  E(RwB97XD) =  -1028.82509791     A.U. after   12 cycles
 SCF Done:  E(RwB97XD) =  -1028.82584182     A.U. after   12 cycles
 SCF Done:  E(RwB97XD) =  -1028.82597564     A.U. after   11 cycles
 SCF Done:  E(RwB97XD) =  -1028.82597736     A.U. after    9 cycles
 SCF Done:  E(RwB97XD) =  -1028.82597500     A.U. after   10 cycles
 SCF Done:  E(RwB97XD) =  -1028.82597798     A.U. after    9 cycles
 Optimization completed.
    -- Stationary point found.
 Normal termination of Gaussian 16 at Tue Oct 27 23:45:40 2020.

 --------------------------------------------------------------------
 #P Geom=AllCheck Guess=TCheck SCRF=Check GenChk RwB97XD/CC-pVDZ Freq
 --------------------------------------------------------------------

 Structure from the checkpoint file:  "config_5_11.chk"
 ------------------------------------------------
 NM 2D-scan of HBT TD-WB97XD pVDZ in CTC Relaxed.
 ------------------------------------------------
 Charge =  0 Multiplicity = 1

                          Input orientation:
 ---------------------------------------------------------------------
 Center     Atomic      Atomic             Coordinates (Angstroms)
 Number     Number       Type             X           Y           Z
 ---------------------------------------------------------------------
      1          6           0        1.619532   -3.264608   -0.000056
      2          6           0        0.999903   -2.016641   -0.000030
      3          6           0        1.733276   -0.821327    0.000002
      4          6           0        3.133179   -0.867973    0.000012
      5          6           0        3.754141   -2.112181   -0.000012
      6          6           0        3.007432   -3.300323   -0.000046
      7          1           0        1.031508   -4.182651   -0.000082
      8          1           0        3.712284    0.055946    0.000038
      9          1           0        4.843803   -2.165250   -0.000005
     10          1           0        3.520710   -4.262798   -0.000065
     11          7           0        0.927350    0.305352    0.000024
     12         16           0       -0.716245   -1.669698   -0.000032
     13          6           0       -1.356281    1.085939    0.000028
     14          6           0       -2.729950    0.813575    0.000043
     15          6           0       -0.882258    2.425426    0.000017
     16          6           0       -3.660238    1.841511    0.000047
     17          1           0       -3.070947   -0.224811    0.000054
     18          6           0       -1.845240    3.458852    0.000015
     19          6           0       -3.202876    3.165725    0.000031
     20          1           0       -4.727572    1.620498    0.000061
     21          1           0       -1.492767    4.491174    0.000004
     22          1           0       -3.924261    3.985559    0.000031
     23          6           0       -0.354207    0.032502    0.000013
     24          8           0        0.410487    2.684914    0.000003
     25          1           0        0.904477    1.762811    0.000009
 ---------------------------------------------------------------------

 SCF Done:  E(RwB97XD) =  -1028.82597798     A.U. after    1 cycles

 Alpha  occ. eigenvalues --  -89.08904 -19.26613 -14.47337 -10.39608 -10.37075
 Alpha  occ. eigenvalues --  -10.35345 -10.34913 -10.32448 -10.31970 -10.31809
 Alpha  occ. eigenvalues --  -10.31740 -10.31737 -10.31690 -10.31308 -10.30034
 Alpha  occ. eigenvalues --  -10.29934  -8.10987  -6.05837  -6.05475  -6.05036
 Alpha  occ. eigenvalues --   -1.15629  -1.09297  -0.97438  -0.96088  -0.92004
 Alpha  occ. eigenvalues --   -0.88681  -0.85586  -0.84300  -0.83055  -0.75583
 Alpha  occ. eigenvalues --   -0.71471  -0.70616  -0.69359  -0.68221  -0.63315
 Alpha  occ. eigenvalues --   -0.60765  -0.59054  -0.58208  -0.56259  -0.54530
 Alpha  occ. eigenvalues --   -0.54464  -0.53397  -0.52702  -0.50983  -0.50112
 Alpha  occ. eigenvalues --   -0.49538  -0.47258  -0.46128  -0.45370  -0.45088
 Alpha  occ. eigenvalues --   -0.44014  -0.42859  -0.42683  -0.40008  -0.36366
 Alpha  occ. eigenvalues --   -0.36264  -0.32360  -0.31616  -0.28790
 Alpha virt. eigenvalues --   -0.00552   0.04666   0.06802   0.07443   0.07708
 Alpha virt. eigenvalues --    0.11264   0.14416   0.15115   0.16659   0.17947
 Alpha virt. eigenvalues --    0.19019   0.20952   0.21756   0.22562   0.22651

 Mulliken charges:
               1
     1  C    0.014181
     2  C   -0.223754
     3  C    0.246024
     4  C   -0.014548
     5  C    0.005583
     6  C    0.002464
     7  H    0.019493
     8  H    0.021804
     9  H    0.021517
    10  H    0.022363
    11  N   -0.343115
    12  S    0.157729
    13  C   -0.068450
    14  C   -0.023978
    15  C    0.085295
    16  C   -0.011291
    17  H    0.013162
    18  C   -0.003176
    19  C    0.021472
    20  H    0.008410
    21  H    0.013759
    22  H    0.017858
    23  C    0.083414
    24  O   -0.245051
    25  H    0.178834
 Sum of Mulliken charges =  -0.00000

 Dipole moment (field-independent basis, Debye):
    X=              0.1933    Y=             -3.0851    Z=             -0.0000  Tot=              3.0911
 Quadrupole moment (field-independent basis, Debye-Ang):
   XX=            -82.7048   YY=            -90.6701   ZZ=           -104.0079
   XY=             -7.2450   XZ=             -0.0001   YZ=              0.0002

  Exact polarizability:     275.364     -68.769     256.485      -0.001       0.002      62.886
 Approx polarizability:     262.651     -24.009     242.815      -0.000       0.002      82.156

                      1                      2                      3
                      A                      A                      A
 Frequencies --     20.5056                64.5853               125.3519
 Red. masses --      5.3715                 6.0533                 5.6038
 Frc consts  --      0.0013                 0.0149                 0.0519
 IR Inten    --      0.0217                 1.3373                 2.4914

                      4                      5                      6
                      A                      A                      A
 Frequencies --    152.4825               197.3690               244.0268
 Red. masses --      5.0546                 6.0070                 5.6786
 Frc consts  --      0.0692                 0.1379                 0.1992
 IR Inten    --      0.1942                 0.5445                 0.0857

                      7                      8                      9
                      A                      A                      A
 Frequencies --    275.5569               328.3440               336.0633
 Red. masses --      7.3430                 5.1507                 6.1164
 Frc consts  --      0.3285                 0.3272                 0.4070
 IR Inten    --      0.6704                 0.1943                14.2985

                     10                     11                     12
                      A                      A                      A
 Frequencies --    417.9321               435.9288               462.8183
 Red. masses --     10.4519                 3.1109                 3.6215
 Frc consts  --      1.0756                 0.3483                 0.4570
 IR Inten    --      0.0616                 1.9552                 8.1381

                     13                     14                     15
                      A                      A                      A
 Frequencies --    515.8107               525.7101               538.4300
 Red. masses --      8.0195                 5.8374                 3.4524
 Frc consts  --      1.2571                 0.9505                 0.5897
 IR Inten    --      1.7574                23.6275                 3.5165

                     16                     17                     18
                      A                      A                      A
 Frequencies --    559.2884               575.2168               591.0651
 Red. masses --      7.0750                 3.7033                 7.6196
 Frc consts  --      1.3039                 0.7219                 1.5684
 IR Inten    --      7.2804                 0.0617                 2.8111

                     19                     20                     21
                      A                      A                      A
 Frequencies --    648.4029               686.2336               725.2900
 Red. masses --      6.3627                 6.4043                 6.5881
 Frc consts  --      1.5761                 1.7769                 2.0419
 IR Inten    --      0.0090                 7.9072                20.7653

                     22                     23                     24
                      A                      A                      A
 Frequencies --    755.8798               762.4949               768.4756
 Red. masses --      2.0450                10.1139                 2.8193
 Frc consts  --      0.6884                 3.4645                 0.9810
 IR Inten    --     25.5746                17.9532                 4.5182

                     25                     26                     27
                      A                      A                      A
 Frequencies --    775.3505               784.8998               852.6335
 Red. masses --      1.4455                 1.8826                 5.9721
 Frc consts  --      0.5120                 0.6833                 2.5580
 IR Inten    --     57.6208                40.4815                15.6696

                     28                     29                     30
                      A                      A                      A
 Frequencies --    882.4865               886.3803               907.3094
 Red. masses --      1.5713                 1.4093                 6.7285
 Frc consts  --      0.7210                 0.6524                 3.2635
 IR Inten    --      5.3385                 0.3520                 3.7451

                     31                     32                     33
                      A                      A                      A
 Frequencies --    968.2403               975.2839              1006.4933
 Red. masses --      1.3592                 1.3638                 7.4947
 Frc consts  --      0.7507                 0.7643                 4.4733
 IR Inten    --      1.3052                 1.0383                51.2535

                     34                     35                     36
                      A                      A                      A
 Frequencies --   1010.5539              1015.9159              1045.6153
 Red. masses --      1.3014                 1.3049                 1.0647
 Frc consts  --      0.7830                 0.7935                 0.6859
 IR Inten    --      0.0753                 0.0314                73.1940

                     37                     38                     39
                      A                      A                      A
 Frequencies --   1053.3059              1066.9451              1102.2654
 Red. masses --      2.0025                 1.9062                 3.8136
 Frc consts  --      1.3090                 1.2785                 2.7300
 IR Inten    --      9.2275                 8.8601                 5.0444

                     40                     41                     42
                      A                      A                      A
 Frequencies --   1150.7235              1156.4149              1173.1816
 Red. masses --      1.4620                 1.3445                 1.1294
 Frc consts  --      1.1406                 1.0594                 0.9158
 IR Inten    --     13.6484                 2.6218                40.9875

                     43                     44                     45
                      A                      A                      A
 Frequencies --   1185.0886              1260.5936              1287.9766
 Red. masses --      1.2052                 1.8791                 1.5730
 Frc consts  --      0.9973                 1.7594                 1.5374
 IR Inten    --      0.2510                80.0211                 1.0265

                     46                     47                     48
                      A                      A                      A
 Frequencies --   1305.6801              1322.8635              1361.3463
 Red. masses --      3.2050                 3.1136                 4.6294
 Frc consts  --      3.2193                 3.2103                 5.0549
 IR Inten    --    234.6402                35.2429                 5.0082

                     49                     50                     51
                      A                      A                      A
 Frequencies --   1379.2619              1380.6753              1488.2916
 Red. masses --      4.0615                 5.6379                 2.9428
 Frc consts  --      4.5523                 6.3321                 3.8405
 IR Inten    --     14.6171                12.8730                12.8239

                     52                     53                     54
                      A                      A                      A
 Frequencies --   1491.5916              1496.1686              1519.7034
 Red. masses --      2.5404                 2.8100                 3.9602
 Frc consts  --      3.3301                 3.7060                 5.3887
 IR Inten    --      4.5228                34.4477                98.5371

                     55                     56                     57
                      A                      A                      A
 Frequencies --   1577.6906              1609.7510              1655.3411
 Red. masses --      6.4853                 3.2701                 6.8956
 Frc consts  --      9.5110                 4.9926                11.1326
 IR Inten    --    277.7120                 7.9220                13.1928

                     58                     59                     60
                      A                      A                      A
 Frequencies --   1675.5246              1699.2770              1732.0905
 Red. masses --      6.5640                 6.4261                 1.5942
 Frc consts  --     10.8573                10.9326                 2.8179
 IR Inten    --     81.3982               199.8221               352.5002

                     61                     62                     63
                      A                      A                      A
 Frequencies --   2322.2327              3197.5485              3206.6979
 Red. masses --      1.1024                 1.0889                 1.0888
 Frc consts  --      3.5025                 6.5595                 6.5966
 IR Inten    --   1641.5038                 3.9250                 7.1023

                     64                     65                     66
                      A                      A                      A
 Frequencies --   3213.4456              3224.3062              3228.1176
 Red. masses --      1.0862                 1.0907                 1.0938
 Frc consts  --      6.6085                 6.6807                 6.7154
 IR Inten    --      1.8040                 3.6680                13.6051

                     67                     68                     69
                      A                      A                      A
 Frequencies --   3234.7403              3236.9408              3240.5967
 Red. masses --      1.0960                 1.0986                 1.0996
 Frc consts  --      6.7567                 6.7817                 6.8036
 IR Inten    --      9.0069                17.3814                13.0328

 - Thermochemistry -
 -------------------
 Temperature   298.150 Kelvin.  Pressure   1.00000 Atm.
 Atom     1 has atomic number  6 and mass  12.00000

 Molecular mass:   227.04049 amu.
 Principal axes and moments of inertia in atomic units:
                           1         2         3
     Eigenvalues --  1287.482926278.872307566.35523
           X           -0.70484   0.70937   0.00000
           Y            0.70937   0.70484  -0.00001
           Z            0.00001   0.00001   1.00000
 This molecule is an asymmetric top.
 Rotational symmetry number  1.
 Warning -- assumption of classical behavior for rotation
           may cause significant error
 Rotational temperatures (Kelvin)      0.06727     0.01379     0.01145
 Rotational constants (GHZ):           1.40176     0.28743     0.23852
 Zero-point vibrational energy     496813.9 (Joules/Mol)
                                  118.74138 (Kcal/Mol)
 Warning -- explicit consideration of  18 degrees of freedom as
           vibrations may cause significant error
 Vibrational temperatures:     29.50    92.92   180.35   219.39   283.97
          (Kelvin)            351.10   396.46   472.41   483.52   601.31
                              627.20   665.89   742.14   756.38   774.68
                              804.69   827.61   850.41   932.91   987.34
                             1043.53  1087.54  1097.06  1105.67  1115.56
                             1129.30  1226.75  1269.70  1275.30  1305.42
                             1393.08  1403.22  1448.12  1453.96  1461.68
                             1504.41  1515.47  1535.10  1585.91  1655.63
                             1663.82  1687.95  1705.08  1813.71  1853.11
                             1878.58  1903.31  1958.67  1984.45  1986.48
                             2141.32  2146.07  2152.65  2186.51  2269.94
                             2316.07  2381.67  2410.71  2444.88  2492.09
                             3341.17  4600.56  4613.72  4623.43  4639.06
                             4644.54  4654.07  4657.24  4662.50

 Zero-point correction=                           0.189226 (Hartree/Particle)
 Thermal correction to Energy=                    0.200834
 Thermal correction to Enthalpy=                  0.201778
 Thermal correction to Gibbs Free Energy=         0.150032
 Sum of electronic and zero-point Energies=          -1028.636752
 Sum of electronic and thermal Energies=             -1028.625144
 Sum of electronic and thermal Enthalpies=           -1028.624200
 Sum of electronic and thermal Free Energies=        -1028.675946

                     E (Thermal)             CV                S
                      KCal/Mol        Cal/Mol-Kelvin    Cal/Mol-Kelvin
 Total                  126.025             47.054            108.910
 Electronic               0.000              0.000              0.000
 Translational            0.889              2.981             42.162
 Rotational               0.889              2.981             32.481
 Vibrational            124.248             41.092             34.267
 Vibration     1          0.593              1.986              6.585
 Vibration     2          0.597              1.971              4.312
 Vibration     3          0.610              1.928              3.016
 Vibration     4          0.619              1.900              2.641
 Vibration     5          0.637              1.844              2.157
 Vibration     6          0.659              1.773              1.773
 Vibration     7          0.677              1.719              1.561
 Vibration     8          0.712              1.619              1.268
 Vibration     9          0.717              1.603              1.231
 Vibration    10          0.781              1.431              0.899
 Vibration    11          0.796              1.392              0.840
 Vibration    12          0.820              1.333              0.758
 Vibration    13          0.871              1.215              0.620
 Vibration    14          0.881              1.193              0.597
 Vibration    15          0.893              1.165              0.569
 Vibration    16          0.915              1.119              0.525
 Vibration    17          0.932              1.085              0.494
 Vibration    18          0.948              1.051              0.465

 Optimization completed.
    -- Stationary point found.
 Normal termination of Gaussian 16 at Tue Oct 27 23:51:56 2020.
