 Gaussian 16, Revision C.01,
 Gaussian 16:  ES64L-G16RevC.01  3-Jul-2019

 ----------------------------------------------------------------------
 #p opt=addgic freq wb97xd/cc-pvdz nosymm int=ultrafine scrf=(solvent=C
 arbonTetraChloride)
 ----------------------------------------------------------------------

 ------------------------------------------------
 NM 2D-scan of HBT TD-WB97XD pVDZ in CTC Relaxed.
 ------------------------------------------------
 Symbolic Z-matrix:
 Charge =  0 Multiplicity = 1

 SCF Done:  E(RwB97XD) =  -1028.81884496     A.U. after   15 cycles
 SCF Done:  E(RwB97XD) =  -1028.82550414     A.U. after   13 cycles
 SCF Done:  E(RwB97XD) =  -1028.82573639     A.U. after   12 cycles
 SCF Done:  E(RwB97XD) =  -1028.82660247     A.U. after   11 cycles
 SCF Done:  E(RwB97XD) =  -1028.82665400     A.U. after   10 cycles
 SCF Done:  E(RwB97XD) =  -1028.82665554     A.U. after    9 cycles
 SCF Done:  E(RwB97XD) =  -1028.82665511     A.U. after    9 cycles
 SCF Done:  E(RwB97XD) =  -1028.82665586     A.U. after    7 cycles
 Optimization completed.
    -- Stationary point found.
 Normal termination of Gaussian 16 at Tue Oct 27 22:52:14 2020.

 --------------------------------------------------------------------
 #P Geom=AllCheck Guess=TCheck SCRF=Check GenChk RwB97XD/CC-pVDZ Freq
 --------------------------------------------------------------------

 Structure from the checkpoint file:  "config_5_8.chk"
 ------------------------------------------------
 NM 2D-scan of HBT TD-WB97XD pVDZ in CTC Relaxed.
 ------------------------------------------------
 Charge =  0 Multiplicity = 1

                          Input orientation:
 ---------------------------------------------------------------------
 Center     Atomic      Atomic             Coordinates (Angstroms)
 Number     Number       Type             X           Y           Z
 ---------------------------------------------------------------------
      1          6           0        1.663265   -3.272541   -0.000043
      2          6           0        0.996867   -2.046467   -0.000019
      3          6           0        1.703394   -0.835429    0.000001
      4          6           0        3.102814   -0.830404   -0.000001
      5          6           0        3.766091   -2.049566   -0.000025
      6          6           0        3.053362   -3.259002   -0.000046
      7          1           0        1.112352   -4.213329   -0.000060
      8          1           0        3.643480    0.116476    0.000015
      9          1           0        4.856811   -2.068899   -0.000027
     10          1           0        3.596581   -4.204998   -0.000066
     11          7           0        0.886937    0.275223    0.000018
     12         16           0       -0.730548   -1.723253   -0.000009
     13          6           0       -1.375688    1.073209    0.000024
     14          6           0       -2.759692    0.847112    0.000026
     15          6           0       -0.874299    2.407196    0.000026
     16          6           0       -3.658986    1.903309    0.000030
     17          1           0       -3.132400   -0.180463    0.000023
     18          6           0       -1.804476    3.466714    0.000028
     19          6           0       -3.167978    3.215811    0.000031
     20          1           0       -4.732090    1.711942    0.000031
     21          1           0       -1.415703    4.485823    0.000030
     22          1           0       -3.866106    4.055415    0.000034
     23          6           0       -0.390975   -0.003250    0.000016
     24          8           0        0.420689    2.666114    0.000026
     25          1           0        0.901745    1.750362    0.000036
 ---------------------------------------------------------------------

 SCF Done:  E(RwB97XD) =  -1028.82665586     A.U. after    1 cycles

 Alpha  occ. eigenvalues --  -89.09008 -19.26711 -14.47146 -10.39690 -10.37092
 Alpha  occ. eigenvalues --  -10.35179 -10.34997 -10.32511 -10.32017 -10.31871
 Alpha  occ. eigenvalues --  -10.31760 -10.31740 -10.31667 -10.31264 -10.30029
 Alpha  occ. eigenvalues --  -10.29853  -8.11034  -6.05892  -6.05529  -6.05081
 Alpha  occ. eigenvalues --   -1.15755  -1.09317  -0.97398  -0.96012  -0.91824
 Alpha  occ. eigenvalues --   -0.88663  -0.85478  -0.84305  -0.83063  -0.75580
 Alpha  occ. eigenvalues --   -0.71415  -0.70535  -0.69354  -0.68310  -0.63221
 Alpha  occ. eigenvalues --   -0.60722  -0.58987  -0.58200  -0.56234  -0.54504
 Alpha  occ. eigenvalues --   -0.54396  -0.53362  -0.52595  -0.51023  -0.50109
 Alpha  occ. eigenvalues --   -0.49585  -0.47402  -0.46080  -0.45346  -0.45057
 Alpha  occ. eigenvalues --   -0.43915  -0.42864  -0.42673  -0.39972  -0.36392
 Alpha  occ. eigenvalues --   -0.36245  -0.32376  -0.31599  -0.28777
 Alpha virt. eigenvalues --   -0.00543   0.04664   0.06866   0.07431   0.07591
 Alpha virt. eigenvalues --    0.11276   0.14056   0.15093   0.16353   0.17909
 Alpha virt. eigenvalues --    0.19032   0.20883   0.21766   0.22596   0.22631

 Mulliken charges:
               1
     1  C    0.010529
     2  C   -0.226048
     3  C    0.250542
     4  C   -0.013029
     5  C    0.006756
     6  C    0.001328
     7  H    0.020010
     8  H    0.021295
     9  H    0.021267
    10  H    0.022375
    11  N   -0.340394
    12  S    0.155507
    13  C   -0.076456
    14  C   -0.020009
    15  C    0.083425
    16  C   -0.011839
    17  H    0.010564
    18  C    0.000825
    19  C    0.021383
    20  H    0.008648
    21  H    0.013705
    22  H    0.017638
    23  C    0.083308
    24  O   -0.236397
    25  H    0.175069
 Sum of Mulliken charges =  -0.00000

 Dipole moment (field-independent basis, Debye):
    X=              0.2519    Y=             -2.9526    Z=             -0.0000  Tot=              2.9634
 Quadrupole moment (field-independent basis, Debye-Ang):
   XX=            -82.7305   YY=            -90.4916   ZZ=           -104.0557
   XY=             -7.2027   XZ=             -0.0001   YZ=              0.0002

  Exact polarizability:     275.741     -68.241     257.003      -0.001       0.002      62.942
 Approx polarizability:     263.068     -23.882     243.124      -0.001       0.002      82.188

                      1                      2                      3
                      A                      A                      A
 Frequencies --     30.9862                63.4468               126.3152
 Red. masses --      5.4266                 6.0394                 5.6277
 Frc consts  --      0.0031                 0.0143                 0.0529
 IR Inten    --      0.0145                 1.3744                 1.9534

                      4                      5                      6
                      A                      A                      A
 Frequencies --    153.4746               198.0628               244.5279
 Red. masses --      5.0170                 5.9232                 5.7357
 Frc consts  --      0.0696                 0.1369                 0.2021
 IR Inten    --      0.1312                 0.5267                 0.0832

                      7                      8                      9
                      A                      A                      A
 Frequencies --    274.5215               327.6381               336.5613
 Red. masses --      7.3891                 5.1585                 6.2250
 Frc consts  --      0.3281                 0.3263                 0.4154
 IR Inten    --      0.8219                 0.2776                11.0817

                     10                     11                     12
                      A                      A                      A
 Frequencies --    412.8263               436.8711               463.7375
 Red. masses --     10.2517                 3.1312                 3.6575
 Frc consts  --      1.0294                 0.3521                 0.4634
 IR Inten    --      0.0895                 2.0866                 8.0423

                     13                     14                     15
                      A                      A                      A
 Frequencies --    515.8200               527.5714               539.2915
 Red. masses --      8.5057                 5.4788                 3.4627
 Frc consts  --      1.3334                 0.8985                 0.5934
 IR Inten    --      0.1452                20.3448                 3.5808

                     16                     17                     18
                      A                      A                      A
 Frequencies --    555.9960               574.6992               592.5884
 Red. masses --      7.2838                 3.6953                 7.6377
 Frc consts  --      1.3266                 0.7191                 1.5802
 IR Inten    --      5.7683                 0.0701                 3.5855

                     19                     20                     21
                      A                      A                      A
 Frequencies --    648.5028               686.0546               719.3198
 Red. masses --      6.3474                 6.3713                 6.6691
 Frc consts  --      1.5728                 1.7668                 2.0331
 IR Inten    --      0.0082                 9.1387                22.4766

                     22                     23                     24
                      A                      A                      A
 Frequencies --    755.1891               755.8148               767.9233
 Red. masses --     10.2906                 2.0738                 2.8907
 Frc consts  --      3.4578                 0.6980                 1.0044
 IR Inten    --     15.1599                24.3570                 3.5587

                     25                     26                     27
                      A                      A                      A
 Frequencies --    776.1916               785.7808               850.2723
 Red. masses --      1.4198                 1.8538                 5.9739
 Frc consts  --      0.5040                 0.6744                 2.5446
 IR Inten    --     60.8126                38.7387                16.7690

                     28                     29                     30
                      A                      A                      A
 Frequencies --    883.3935               887.1377               908.2854
 Red. masses --      1.5678                 1.4103                 6.6923
 Frc consts  --      0.7208                 0.6539                 3.2529
 IR Inten    --      5.1425                 0.2636                 1.7096

                     31                     32                     33
                      A                      A                      A
 Frequencies --    970.2287               976.1351              1001.1575
 Red. masses --      1.3558                 1.3611                 7.4817
 Frc consts  --      0.7520                 0.7641                 4.4183
 IR Inten    --      1.4593                 0.6222                55.5123

                     34                     35                     36
                      A                      A                      A
 Frequencies --   1010.4855              1015.7579              1018.2698
 Red. masses --      1.2912                 1.2417                 1.1230
 Frc consts  --      0.7768                 0.7548                 0.6860
 IR Inten    --      0.7924                16.9021                56.3295

                     37                     38                     39
                      A                      A                      A
 Frequencies --   1053.4046              1067.7202              1099.9841
 Red. masses --      2.0070                 1.9292                 4.0691
 Frc consts  --      1.3122                 1.2958                 2.9008
 IR Inten    --      8.8472                 8.8799                 5.2416

                     40                     41                     42
                      A                      A                      A
 Frequencies --   1149.4063              1154.3740              1173.9193
 Red. masses --      1.4716                 1.3132                 1.1309
 Frc consts  --      1.1455                 1.0310                 0.9183
 IR Inten    --     12.5622                 2.9305                45.8318

                     43                     44                     45
                      A                      A                      A
 Frequencies --   1185.4055              1259.6603              1287.9957
 Red. masses --      1.1916                 1.8780                 1.5437
 Frc consts  --      0.9865                 1.7557                 1.5088
 IR Inten    --      0.1882                98.3538                 0.4503

                     46                     47                     48
                      A                      A                      A
 Frequencies --   1303.5895              1336.2533              1354.9442
 Red. masses --      2.8284                 3.4865                 5.2437
 Frc consts  --      2.8318                 3.6679                 5.6720
 IR Inten    --    200.1387                33.8512                 1.4887

                     49                     50                     51
                      A                      A                      A
 Frequencies --   1378.6085              1381.0550              1488.8524
 Red. masses --      5.5984                 3.6837                 2.5202
 Frc consts  --      6.2690                 4.1396                 3.2915
 IR Inten    --     10.4653                19.3380                 3.7696

                     52                     53                     54
                      A                      A                      A
 Frequencies --   1491.3784              1497.3850              1522.1579
 Red. masses --      2.8428                 2.8249                 4.0802
 Frc consts  --      3.7254                 3.7318                 5.5700
 IR Inten    --      5.0136                40.3291               106.8008

                     55                     56                     57
                      A                      A                      A
 Frequencies --   1579.5248              1601.3435              1654.9603
 Red. masses --      6.2318                 2.9353                 6.8431
 Frc consts  --      9.1605                 4.4347                11.0427
 IR Inten    --    277.4435                20.4142                 9.2810

                     58                     59                     60
                      A                      A                      A
 Frequencies --   1677.2949              1696.7312              1716.2237
 Red. masses --      6.3423                 4.1781                 2.1530
 Frc consts  --     10.5128                 7.0870                 3.7364
 IR Inten    --     72.7978               199.4621               281.3237

                     61                     62                     63
                      A                      A                      A
 Frequencies --   2498.5553              3195.0241              3205.2950
 Red. masses --      1.0876                 1.0891                 1.0886
 Frc consts  --      4.0004                 6.5506                 6.5896
 IR Inten    --   1563.6923                 4.1960                 6.5193

                     64                     65                     66
                      A                      A                      A
 Frequencies --   3213.0651              3224.3782              3226.9027
 Red. masses --      1.0863                 1.0907                 1.0940
 Frc consts  --      6.6078                 6.6813                 6.7120
 IR Inten    --      2.0602                 3.9280                12.7071

                     67                     68                     69
                      A                      A                      A
 Frequencies --   3235.1407              3236.5012              3240.7723
 Red. masses --      1.0960                 1.0983                 1.0996
 Frc consts  --      6.7584                 6.7782                 6.8044
 IR Inten    --      9.1493                17.5222                12.6537

 - Thermochemistry -
 -------------------
 Temperature   298.150 Kelvin.  Pressure   1.00000 Atm.
 Atom     1 has atomic number  6 and mass  12.00000

 Molecular mass:   227.04049 amu.
 Principal axes and moments of inertia in atomic units:
                           1         2         3
     Eigenvalues --  1301.964836287.366527589.33135
           X           -0.70351   0.71069   0.00000
           Y            0.71069   0.70351  -0.00001
           Z            0.00001   0.00001   1.00000
 This molecule is an asymmetric top.
 Rotational symmetry number  1.
 Warning -- assumption of classical behavior for rotation
           may cause significant error
 Rotational temperatures (Kelvin)      0.06653     0.01378     0.01141
 Rotational constants (GHZ):           1.38617     0.28704     0.23780
 Zero-point vibrational energy     497518.8 (Joules/Mol)
                                  118.90984 (Kcal/Mol)
 Warning -- explicit consideration of  18 degrees of freedom as
           vibrations may cause significant error
 Vibrational temperatures:     44.58    91.29   181.74   220.82   284.97
          (Kelvin)            351.82   394.98   471.40   484.24   593.96
                              628.56   667.21   742.15   759.06   775.92
                              799.95   826.86   852.60   933.05   987.08
                             1034.94  1086.55  1087.45  1104.87  1116.77
                             1130.56  1223.35  1271.01  1276.39  1306.82
                             1395.94  1404.44  1440.44  1453.86  1461.45
                             1465.06  1515.61  1536.21  1582.63  1653.74
                             1660.89  1689.01  1705.53  1812.37  1853.14
                             1875.57  1922.57  1949.46  1983.51  1987.03
                             2142.13  2145.76  2154.40  2190.05  2272.58
                             2303.98  2381.12  2413.25  2441.22  2469.26
                             3594.86  4596.93  4611.70  4622.88  4639.16
                             4642.79  4654.65  4656.60  4662.75

 Zero-point correction=                           0.189495 (Hartree/Particle)
 Thermal correction to Energy=                    0.201090
 Thermal correction to Enthalpy=                  0.202034
 Thermal correction to Gibbs Free Energy=         0.150650
 Sum of electronic and zero-point Energies=          -1028.637161
 Sum of electronic and thermal Energies=             -1028.625566
 Sum of electronic and thermal Enthalpies=           -1028.624622
 Sum of electronic and thermal Free Energies=        -1028.676006

                     E (Thermal)             CV                S
                      KCal/Mol        Cal/Mol-Kelvin    Cal/Mol-Kelvin
 Total                  126.186             47.111            108.146
 Electronic               0.000              0.000              0.000
 Translational            0.889              2.981             42.162
 Rotational               0.889              2.981             32.496
 Vibrational            124.408             41.149             33.487
 Vibration     1          0.594              1.984              5.765
 Vibration     2          0.597              1.972              4.347
 Vibration     3          0.611              1.927              3.001
 Vibration     4          0.619              1.899              2.629
 Vibration     5          0.637              1.843              2.151
 Vibration     6          0.660              1.772              1.770
 Vibration     7          0.677              1.720              1.568
 Vibration     8          0.711              1.620              1.272
 Vibration     9          0.717              1.602              1.228
 Vibration    10          0.777              1.442              0.917
 Vibration    11          0.797              1.390              0.836
 Vibration    12          0.821              1.330              0.755
 Vibration    13          0.871              1.215              0.620
 Vibration    14          0.883              1.189              0.593
 Vibration    15          0.894              1.163              0.567
 Vibration    16          0.911              1.127              0.532
 Vibration    17          0.931              1.086              0.495
 Vibration    18          0.950              1.048              0.463

 Optimization completed.
    -- Stationary point found.
 Normal termination of Gaussian 16 at Tue Oct 27 22:58:27 2020.
