 Gaussian 16, Revision C.01,
 Gaussian 16:  ES64L-G16RevC.01  3-Jul-2019

 ----------------------------------------------------------------------
 #p opt=addgic freq wb97xd/cc-pvdz nosymm int=ultrafine scrf=(solvent=C
 arbonTetraChloride)
 ----------------------------------------------------------------------

 ------------------------------------------------
 NM 2D-scan of HBT TD-WB97XD pVDZ in CTC Relaxed.
 ------------------------------------------------
 Symbolic Z-matrix:
 Charge =  0 Multiplicity = 1

 SCF Done:  E(RwB97XD) =  -1028.81617940     A.U. after   15 cycles
 SCF Done:  E(RwB97XD) =  -1028.82333172     A.U. after   13 cycles
 SCF Done:  E(RwB97XD) =  -1028.82410190     A.U. after   12 cycles
 SCF Done:  E(RwB97XD) =  -1028.82482147     A.U. after   11 cycles
 SCF Done:  E(RwB97XD) =  -1028.82483938     A.U. after    9 cycles
 SCF Done:  E(RwB97XD) =  -1028.82484106     A.U. after    9 cycles
 SCF Done:  E(RwB97XD) =  -1028.82484103     A.U. after    8 cycles
 SCF Done:  E(RwB97XD) =  -1028.82484118     A.U. after    7 cycles
 Optimization completed.
    -- Stationary point found.
 Normal termination of Gaussian 16 at Tue Oct 27 21:34:29 2020.

 --------------------------------------------------------------------
 #P Geom=AllCheck Guess=TCheck SCRF=Check GenChk RwB97XD/CC-pVDZ Freq
 --------------------------------------------------------------------

 Structure from the checkpoint file:  "config_5_4.chk"
 ------------------------------------------------
 NM 2D-scan of HBT TD-WB97XD pVDZ in CTC Relaxed.
 ------------------------------------------------
 Charge =  0 Multiplicity = 1

                          Input orientation:
 ---------------------------------------------------------------------
 Center     Atomic      Atomic             Coordinates (Angstroms)
 Number     Number       Type             X           Y           Z
 ---------------------------------------------------------------------
      1          6           0        1.722063   -3.280647   -0.000044
      2          6           0        0.994666   -2.086047   -0.000045
      3          6           0        1.664574   -0.854733   -0.000005
      4          6           0        3.060928   -0.781670    0.000038
      5          6           0        3.779153   -1.965504    0.000037
      6          6           0        3.112451   -3.201880   -0.000004
      7          1           0        1.221364   -4.249129   -0.000074
      8          1           0        3.549579    0.193046    0.000068
      9          1           0        4.869670   -1.939818    0.000069
     10          1           0        3.694591   -4.124603   -0.000003
     11          7           0        0.832974    0.234620   -0.000014
     12         16           0       -0.747108   -1.796525   -0.000087
     13          6           0       -1.401969    1.056467   -0.000038
     14          6           0       -2.797844    0.892949   -0.000012
     15          6           0       -0.864642    2.382517   -0.000016
     16          6           0       -3.654841    1.985104    0.000066
     17          1           0       -3.214238   -0.117691   -0.000036
     18          6           0       -1.750760    3.475342    0.000077
     19          6           0       -3.120178    3.280910    0.000120
     20          1           0       -4.734301    1.832856    0.000094
     21          1           0       -1.314756    4.475016    0.000099
     22          1           0       -3.786571    4.145759    0.000186
     23          6           0       -0.439825   -0.051190   -0.000063
     24          8           0        0.433811    2.641474   -0.000107
     25          1           0        0.900272    1.734584   -0.000215
 ---------------------------------------------------------------------

 SCF Done:  E(RwB97XD) =  -1028.82484118     A.U. after    1 cycles

 Alpha  occ. eigenvalues --  -89.09138 -19.26848 -14.46920 -10.39819 -10.37126
 Alpha  occ. eigenvalues --  -10.35123 -10.34973 -10.32602 -10.32339 -10.31783
 Alpha  occ. eigenvalues --  -10.31768 -10.31758 -10.31638 -10.31205 -10.30025
 Alpha  occ. eigenvalues --  -10.29757  -8.11090  -6.05957  -6.05594  -6.05132
 Alpha  occ. eigenvalues --   -1.15902  -1.09339  -0.97349  -0.95918  -0.91582
 Alpha  occ. eigenvalues --   -0.88631  -0.85339  -0.84306  -0.83062  -0.75573
 Alpha  occ. eigenvalues --   -0.71358  -0.70473  -0.69341  -0.68353  -0.63084
 Alpha  occ. eigenvalues --   -0.60664  -0.58891  -0.58193  -0.56200  -0.54468
 Alpha  occ. eigenvalues --   -0.54302  -0.53330  -0.52437  -0.51085  -0.50097
 Alpha  occ. eigenvalues --   -0.49605  -0.47563  -0.46018  -0.45314  -0.45015
 Alpha  occ. eigenvalues --   -0.43787  -0.42859  -0.42658  -0.39922  -0.36421
 Alpha  occ. eigenvalues --   -0.36212  -0.32401  -0.31576  -0.28763
 Alpha virt. eigenvalues --   -0.00537   0.04648   0.06924   0.07408   0.07447
 Alpha virt. eigenvalues --    0.11281   0.13376   0.15069   0.16043   0.17849
 Alpha virt. eigenvalues --    0.19043   0.20773   0.21757   0.22581   0.22618

 Mulliken charges:
               1
     1  C    0.005424
     2  C   -0.227980
     3  C    0.256626
     4  C   -0.012133
     5  C    0.008117
     6  C   -0.000104
     7  H    0.020955
     8  H    0.021065
     9  H    0.021035
    10  H    0.022464
    11  N   -0.336440
    12  S    0.151662
    13  C   -0.087402
    14  C   -0.015744
    15  C    0.083095
    16  C   -0.012731
    17  H    0.007812
    18  C    0.005593
    19  C    0.021197
    20  H    0.008998
    21  H    0.013748
    22  H    0.017322
    23  C    0.082757
    24  O   -0.226102
    25  H    0.170768
 Sum of Mulliken charges =  -0.00000

 Dipole moment (field-independent basis, Debye):
    X=              0.3408    Y=             -2.7790    Z=             -0.0001  Tot=              2.7998
 Quadrupole moment (field-independent basis, Debye-Ang):
   XX=            -82.7355   YY=            -90.2851   ZZ=           -104.1301
   XY=             -7.1511   XZ=             -0.0002   YZ=              0.0005

  Exact polarizability:     276.106     -67.445     257.644      -0.001       0.004      63.027
 Approx polarizability:     263.667     -23.592     243.644      -0.000       0.003      82.252

                      1                      2                      3
                      A                      A                      A
 Frequencies --     23.0580                60.0323               123.1931
 Red. masses --      5.5434                 5.9715                 5.6509
 Frc consts  --      0.0017                 0.0127                 0.0505
 IR Inten    --      0.0280                 1.4021                 1.4107

                      4                      5                      6
                      A                      A                      A
 Frequencies --    151.7768               198.2184               244.7589
 Red. masses --      4.9375                 5.7817                 5.7820
 Frc consts  --      0.0670                 0.1338                 0.2041
 IR Inten    --      0.0700                 0.4649                 0.0887

                      7                      8                      9
                      A                      A                      A
 Frequencies --    270.9153               325.7650               334.7086
 Red. masses --      7.4102                 5.1305                 6.3694
 Frc consts  --      0.3204                 0.3208                 0.4204
 IR Inten    --      0.7856                 0.3730                 8.2822

                     10                     11                     12
                      A                      A                      A
 Frequencies --    406.2629               437.4888               463.9072
 Red. masses --      9.9352                 3.1368                 3.6732
 Frc consts  --      0.9661                 0.3537                 0.4658
 IR Inten    --      0.2331                 2.0842                 8.4335

                     13                     14                     15
                      A                      A                      A
 Frequencies --    515.4117               529.1545               539.3468
 Red. masses --      8.6815                 5.1537                 3.4702
 Frc consts  --      1.3588                 0.8502                 0.5948
 IR Inten    --      0.1065                15.8217                 3.7151

                     16                     17                     18
                      A                      A                      A
 Frequencies --    551.7465               573.7480               593.8750
 Red. masses --      7.7897                 3.6822                 7.6396
 Frc consts  --      1.3972                 0.7142                 1.5875
 IR Inten    --      4.1627                 0.0739                 4.3914

                     19                     20                     21
                      A                      A                      A
 Frequencies --    647.7828               684.6094               709.7372
 Red. masses --      6.2830                 6.3601                 6.8648
 Frc consts  --      1.5534                 1.7563                 2.0374
 IR Inten    --      0.0018                12.8948                25.2982

                     22                     23                     24
                      A                      A                      A
 Frequencies --    744.3245               754.6406               766.4477
 Red. masses --     10.1446                 2.0534                 3.1319
 Frc consts  --      3.3114                 0.6890                 1.0840
 IR Inten    --     11.6574                24.5811                 1.0993

                     25                     26                     27
                      A                      A                      A
 Frequencies --    775.4144               785.2878               846.4742
 Red. masses --      1.3548                 1.8617                 5.9455
 Frc consts  --      0.4800                 0.6764                 2.5100
 IR Inten    --     65.3183                34.9754                18.7534

                     28                     29                     30
                      A                      A                      A
 Frequencies --    883.5385               885.7245               908.3435
 Red. masses --      1.5636                 1.4197                 6.6271
 Frc consts  --      0.7191                 0.6562                 3.2216
 IR Inten    --      5.3925                 0.0363                 0.3532

                     31                     32                     33
                      A                      A                      A
 Frequencies --    969.6413               972.1935               977.4323
 Red. masses --      1.3413                 1.1766                 1.2474
 Frc consts  --      0.7430                 0.6552                 0.7021
 IR Inten    --      8.1400                31.2045                36.8205

                     34                     35                     36
                      A                      A                      A
 Frequencies --    993.4564              1010.7763              1015.7321
 Red. masses --      7.4710                 1.3001                 1.3049
 Frc consts  --      4.3444                 0.7826                 0.7932
 IR Inten    --     61.7153                 0.6016                 0.1036

                     37                     38                     39
                      A                      A                      A
 Frequencies --   1052.4227              1066.7051              1094.6463
 Red. masses --      2.0307                 1.9540                 4.3497
 Frc consts  --      1.3252                 1.3100                 3.0709
 IR Inten    --      8.3739                10.6268                 5.2865

                     40                     41                     42
                      A                      A                      A
 Frequencies --   1146.1095              1151.9877              1172.6322
 Red. masses --      1.4940                 1.2831                 1.1196
 Frc consts  --      1.1562                 1.0032                 0.9071
 IR Inten    --     13.2560                 3.6762                47.1697

                     43                     44                     45
                      A                      A                      A
 Frequencies --   1184.3201              1253.7451              1286.1153
 Red. masses --      1.1792                 1.8918                 1.5476
 Frc consts  --      0.9745                 1.7520                 1.5082
 IR Inten    --      0.2963               119.1680                 3.9038

                     46                     47                     48
                      A                      A                      A
 Frequencies --   1295.2642              1337.7580              1350.3102
 Red. masses --      2.5769                 6.0884                 3.4058
 Frc consts  --      2.5472                 6.4196                 3.6588
 IR Inten    --    165.9636                 7.6396                19.8196

                     49                     50                     51
                      A                      A                      A
 Frequencies --   1376.6093              1381.3667              1481.0505
 Red. masses --      7.7211                 2.9172                 2.3000
 Frc consts  --      8.6208                 3.2797                 2.9725
 IR Inten    --     13.6928                16.8317                 8.3688

                     52                     53                     54
                      A                      A                      A
 Frequencies --   1492.4116              1496.1612              1524.4809
 Red. masses --      2.9648                 2.8053                 4.1054
 Frc consts  --      3.8907                 3.6999                 5.6215
 IR Inten    --      0.8940                45.1880               108.4566

                     55                     56                     57
                      A                      A                      A
 Frequencies --   1579.0255              1592.2910              1652.6469
 Red. masses --      3.3460                 3.9636                 6.6725
 Frc consts  --      4.9153                 5.9209                10.7374
 IR Inten    --    184.2048               125.9583                 8.7462

                     58                     59                     60
                      A                      A                      A
 Frequencies --   1676.5530              1684.8761              1707.8916
 Red. masses --      4.1394                 3.5736                 4.4248
 Frc consts  --      6.8552                 5.9772                 7.6044
 IR Inten    --    129.1607               146.1691               173.1237

                     61                     62                     63
                      A                      A                      A
 Frequencies --   2734.8242              3191.0868              3205.2432
 Red. masses --      1.0767                 1.0896                 1.0884
 Frc consts  --      4.7444                 6.5373                 6.5879
 IR Inten    --   1428.4194                 4.5934                 5.4241

                     64                     65                     66
                      A                      A                      A
 Frequencies --   3212.9084              3223.4308              3226.8315
 Red. masses --      1.0861                 1.0905                 1.0937
 Frc consts  --      6.6058                 6.6757                 6.7098
 IR Inten    --      1.4388                 3.2618                12.1000

                     67                     68                     69
                      A                      A                      A
 Frequencies --   3233.2596              3234.3632              3239.6307
 Red. masses --      1.0960                 1.0988                 1.0999
 Frc consts  --      6.7509                 6.7726                 6.8014
 IR Inten    --      9.6179                18.3578                14.0473

 - Thermochemistry -
 -------------------
 Temperature   298.150 Kelvin.  Pressure   1.00000 Atm.
 Atom     1 has atomic number  6 and mass  12.00000

 Molecular mass:   227.04049 amu.
 Principal axes and moments of inertia in atomic units:
                           1         2         3
     Eigenvalues --  1323.381686297.116477620.49815
           X           -0.70147   0.71270  -0.00000
           Y            0.71270   0.70147  -0.00001
           Z            0.00001   0.00001   1.00000
 This molecule is an asymmetric top.
 Rotational symmetry number  1.
 Warning -- assumption of classical behavior for rotation
           may cause significant error
 Rotational temperatures (Kelvin)      0.06545     0.01375     0.01137
 Rotational constants (GHZ):           1.36373     0.28660     0.23683
 Zero-point vibrational energy     497729.6 (Joules/Mol)
                                  118.96022 (Kcal/Mol)
 Warning -- explicit consideration of  18 degrees of freedom as
           vibrations may cause significant error
 Vibrational temperatures:     33.18    86.37   177.25   218.37   285.19
          (Kelvin)            352.15   389.79   468.70   481.57   584.52
                              629.45   667.46   741.56   761.34   776.00
                              793.84   825.50   854.45   932.02   985.00
                             1021.15  1070.92  1085.76  1102.75  1115.65
                             1129.85  1217.89  1271.21  1274.36  1306.90
                             1395.10  1398.77  1406.31  1429.36  1454.28
                             1461.41  1514.20  1534.75  1574.95  1649.00
                             1657.45  1687.16  1703.97  1803.86  1850.43
                             1863.60  1924.74  1942.80  1980.63  1987.48
                             2130.90  2147.25  2152.64  2193.39  2271.87
                             2290.95  2377.79  2412.19  2424.16  2457.28
                             3934.80  4591.26  4611.63  4622.66  4637.80
                             4642.69  4651.94  4653.53  4661.11

 Zero-point correction=                           0.189575 (Hartree/Particle)
 Thermal correction to Energy=                    0.201240
 Thermal correction to Enthalpy=                  0.202184
 Thermal correction to Gibbs Free Energy=         0.150368
 Sum of electronic and zero-point Energies=          -1028.635266
 Sum of electronic and thermal Energies=             -1028.623601
 Sum of electronic and thermal Enthalpies=           -1028.622657
 Sum of electronic and thermal Free Energies=        -1028.674473

                     E (Thermal)             CV                S
                      KCal/Mol        Cal/Mol-Kelvin    Cal/Mol-Kelvin
 Total                  126.280             47.293            109.055
 Electronic               0.000              0.000              0.000
 Translational            0.889              2.981             42.162
 Rotational               0.889              2.981             32.518
 Vibrational            124.503             41.332             34.375
 Vibration     1          0.593              1.985              6.352
 Vibration     2          0.597              1.973              4.456
 Vibration     3          0.610              1.930              3.050
 Vibration     4          0.619              1.901              2.650
 Vibration     5          0.637              1.842              2.150
 Vibration     6          0.660              1.771              1.768
 Vibration     7          0.675              1.727              1.590
 Vibration     8          0.710              1.624              1.281
 Vibration     9          0.716              1.606              1.237
 Vibration    10          0.771              1.457              0.940
 Vibration    11          0.798              1.388              0.835
 Vibration    12          0.821              1.330              0.755
 Vibration    13          0.870              1.216              0.621
 Vibration    14          0.884              1.185              0.589
 Vibration    15          0.894              1.163              0.567
 Vibration    16          0.907              1.136              0.541
 Vibration    17          0.930              1.088              0.497
 Vibration    18          0.951              1.045              0.460

 Optimization completed.
    -- Stationary point found.
 Normal termination of Gaussian 16 at Tue Oct 27 21:41:47 2020.
