 Gaussian 16, Revision C.01,
 Gaussian 16:  ES64L-G16RevC.01  3-Jul-2019

 ----------------------------------------------------------------------
 #p opt=addgic freq wb97xd/cc-pvdz nosymm int=ultrafine scrf=(solvent=C
 arbonTetraChloride)
 ----------------------------------------------------------------------

 ------------------------------------------------
 NM 2D-scan of HBT TD-WB97XD pVDZ in CTC Relaxed.
 ------------------------------------------------
 Symbolic Z-matrix:
 Charge =  0 Multiplicity = 1

 SCF Done:  E(RwB97XD) =  -1028.65125842     A.U. after   16 cycles
 SCF Done:  E(RwB97XD) =  -1028.76529429     A.U. after   13 cycles
 SCF Done:  E(RwB97XD) =  -1028.78473906     A.U. after   14 cycles
 SCF Done:  E(RwB97XD) =  -1028.80218083     A.U. after   14 cycles
 SCF Done:  E(RwB97XD) =  -1028.80244641     A.U. after   11 cycles
 SCF Done:  E(RwB97XD) =  -1028.80246109     A.U. after   11 cycles
 SCF Done:  E(RwB97XD) =  -1028.80246379     A.U. after    9 cycles
 Optimization completed.
    -- Stationary point found.
 Normal termination of Gaussian 16 at Wed Oct 28 00:04:03 2020.

 --------------------------------------------------------------------
 #P Geom=AllCheck Guess=TCheck SCRF=Check GenChk RwB97XD/CC-pVDZ Freq
 --------------------------------------------------------------------

 Structure from the checkpoint file:  "config_11_14.chk"
 ------------------------------------------------
 NM 2D-scan of HBT TD-WB97XD pVDZ in CTC Relaxed.
 ------------------------------------------------
 Charge =  0 Multiplicity = 1

                          Input orientation:
 ---------------------------------------------------------------------
 Center     Atomic      Atomic             Coordinates (Angstroms)
 Number     Number       Type             X           Y           Z
 ---------------------------------------------------------------------
      1          6           0        1.591539   -3.279570   -0.000041
      2          6           0        1.004083   -2.021182   -0.000019
      3          6           0        1.774848   -0.869503   -0.000001
      4          6           0        3.168233   -0.927715   -0.000005
      5          6           0        3.758238   -2.191031   -0.000028
      6          6           0        2.981520   -3.353953   -0.000046
      7          1           0        0.980292   -4.181833   -0.000057
      8          1           0        3.771374   -0.019007    0.000009
      9          1           0        4.846189   -2.268087   -0.000032
     10          1           0        3.467500   -4.329932   -0.000065
     11          7           0        0.959992    0.251596    0.000017
     12         16           0       -0.713260   -1.612256   -0.000010
     13          6           0       -1.347158    1.118009    0.000045
     14          6           0       -2.731245    0.803135    0.000036
     15          6           0       -0.872770    2.499797    0.000103
     16          6           0       -3.689055    1.785902    0.000048
     17          1           0       -3.041695   -0.245951    0.000013
     18          6           0       -1.949783    3.495079    0.000026
     19          6           0       -3.275647    3.147224    0.000029
     20          1           0       -4.748327    1.527906    0.000043
     21          1           0       -1.646928    4.544180   -0.000016
     22          1           0       -4.038423    3.930442    0.000010
     23          6           0       -0.378087    0.091396    0.000018
     24          8           0        0.339005    2.767593   -0.000019
     25          1           0        1.437119    1.123115    0.000031
 ---------------------------------------------------------------------

 SCF Done:  E(RwB97XD) =  -1028.80246379     A.U. after    1 cycles

 Alpha  occ. eigenvalues --  -89.09818 -19.21150 -14.52221 -10.41591 -10.37076
 Alpha  occ. eigenvalues --  -10.35971 -10.35769 -10.33256 -10.33126 -10.32638
 Alpha  occ. eigenvalues --  -10.32298 -10.31088 -10.30666 -10.30321 -10.29081
 Alpha  occ. eigenvalues --  -10.28583  -8.11891  -6.06776  -6.06382  -6.05894
 Alpha  occ. eigenvalues --   -1.13094  -1.10069  -0.98644  -0.95499  -0.93293
 Alpha  occ. eigenvalues --   -0.89188  -0.86690  -0.83895  -0.81654  -0.75510
 Alpha  occ. eigenvalues --   -0.74051  -0.71936  -0.69394  -0.67852  -0.64566
 Alpha  occ. eigenvalues --   -0.60915  -0.59762  -0.56651  -0.56006  -0.55997
 Alpha  occ. eigenvalues --   -0.55025  -0.53746  -0.52985  -0.50163  -0.49407
 Alpha  occ. eigenvalues --   -0.48998  -0.48289  -0.46745  -0.45658  -0.44730
 Alpha  occ. eigenvalues --   -0.44516  -0.42891  -0.41852  -0.40381  -0.36906
 Alpha  occ. eigenvalues --   -0.33601  -0.31665  -0.31283  -0.26115
 Alpha virt. eigenvalues --   -0.01296   0.03762   0.05888   0.07002   0.09553
 Alpha virt. eigenvalues --    0.11311   0.13799   0.14659   0.15993   0.16941
 Alpha virt. eigenvalues --    0.18163   0.19794   0.21008   0.21596   0.22906

 Mulliken charges:
               1
     1  C    0.015228
     2  C   -0.237815
     3  C    0.220930
     4  C   -0.011939
     5  C    0.010392
     6  C    0.004252
     7  H    0.023898
     8  H    0.030567
     9  H    0.027536
    10  H    0.025991
    11  N   -0.105573
    12  S    0.179046
    13  C   -0.097349
    14  C   -0.015797
    15  C    0.099652
    16  C   -0.034006
    17  H    0.008876
    18  C   -0.040931
    19  C    0.028725
    20  H    0.001982
    21  H    0.001329
    22  H    0.013749
    23  C    0.096932
    24  O   -0.364518
    25  H    0.118840
 Sum of Mulliken charges =  -0.00000

 Dipole moment (field-independent basis, Debye):
    X=              2.1406    Y=             -5.3569    Z=              0.0001  Tot=              5.7688
 Quadrupole moment (field-independent basis, Debye-Ang):
   XX=            -81.2790   YY=            -95.9032   ZZ=           -103.9802
   XY=             -6.4878   XZ=              0.0001   YZ=              0.0004

  Exact polarizability:     289.974     -90.833     288.194      -0.002       0.002      62.890
 Approx polarizability:     267.239     -34.835     254.893      -0.002       0.002      81.887

                      1                      2                      3
                      A                      A                      A
 Frequencies --     24.0439                63.3492               105.7102
 Red. masses --      4.5809                 6.3916                 5.7166
 Frc consts  --      0.0016                 0.0151                 0.0376
 IR Inten    --      2.0152                 1.4055                 1.0967

                      4                      5                      6
                      A                      A                      A
 Frequencies --    115.3959               191.1393               225.4696
 Red. masses --      5.4086                 5.8921                 5.7822
 Frc consts  --      0.0424                 0.1268                 0.1732
 IR Inten    --      0.2780                 0.1060                 1.8510

                      7                      8                      9
                      A                      A                      A
 Frequencies --    266.4352               296.9237               304.1229
 Red. masses --      7.8432                 7.0070                 4.6728
 Frc consts  --      0.3280                 0.3640                 0.2546
 IR Inten    --      5.0552                 2.8112                 4.0147

                     10                     11                     12
                      A                      A                      A
 Frequencies --    391.1211               422.2440               443.2249
 Red. masses --      7.9335                 3.0786                 3.4818
 Frc consts  --      0.7151                 0.3234                 0.4030
 IR Inten    --      4.6128                 5.0318                11.2296

                     13                     14                     15
                      A                      A                      A
 Frequencies --    487.9888               503.9484               523.5234
 Red. masses --      1.1878                 7.9795                 2.4274
 Frc consts  --      0.1667                 1.1940                 0.3920
 IR Inten    --     72.0884                 9.9196                 0.0039

                     16                     17                     18
                      A                      A                      A
 Frequencies --    532.6930               546.4637               562.5697
 Red. masses --      7.2638                 7.1672                 3.8226
 Frc consts  --      1.2144                 1.2610                 0.7128
 IR Inten    --      6.6710                 9.8085                 0.0184

                     19                     20                     21
                      A                      A                      A
 Frequencies --    580.6703               634.1240               657.6491
 Red. masses --      7.3289                 6.7617                 6.1507
 Frc consts  --      1.4560                 1.6020                 1.5673
 IR Inten    --     38.5010                 2.9927                 2.7942

                     22                     23                     24
                      A                      A                      A
 Frequencies --    709.8926               741.1510               751.0064
 Red. masses --      5.5603                 7.3305                 2.5862
 Frc consts  --      1.6509                 2.3724                 0.8594
 IR Inten    --     56.5624                48.2712                13.7194

                     25                     26                     27
                      A                      A                      A
 Frequencies --    758.7754               774.5458               779.4655
 Red. masses --      1.4235                 1.5825                 2.4493
 Frc consts  --      0.4829                 0.5593                 0.8768
 IR Inten    --     48.1869                47.3224                20.7232

                     28                     29                     30
                      A                      A                      A
 Frequencies --    831.2786               875.9852               880.9847
 Red. masses --      6.2516                 2.0585                 1.3776
 Frc consts  --      2.5453                 0.9307                 0.6300
 IR Inten    --     21.5710                15.7047                 0.9743

                     31                     32                     33
                      A                      A                      A
 Frequencies --    891.2288               965.4085               966.8311
 Red. masses --      5.0697                 1.3232                 3.9864
 Frc consts  --      2.3725                 0.7266                 2.1955
 IR Inten    --      0.5808                 0.1068                30.1579

                     34                     35                     36
                      A                      A                      A
 Frequencies --    969.5110              1013.2446              1017.6946
 Red. masses --      1.3606                 1.3031                 1.3068
 Frc consts  --      0.7535                 0.7883                 0.7974
 IR Inten    --      1.5743                 0.0070                 0.3374

                     37                     38                     39
                      A                      A                      A
 Frequencies --   1043.5352              1056.6589              1092.9484
 Red. masses --      2.1190                 2.0708                 3.1681
 Frc consts  --      1.3596                 1.3623                 2.2297
 IR Inten    --     11.3388                13.0014                21.4188

                     40                     41                     42
                      A                      A                      A
 Frequencies --   1112.9265              1156.9793              1161.3104
 Red. masses --      2.0693                 1.3698                 1.2141
 Frc consts  --      1.5101                 1.0803                 0.9647
 IR Inten    --     37.0564                 0.5835                64.8679

                     43                     44                     45
                      A                      A                      A
 Frequencies --   1180.6511              1192.9960              1234.8366
 Red. masses --      1.1507                 1.2047                 2.2515
 Frc consts  --      0.9450                 1.0102                 2.0227
 IR Inten    --     29.2226                11.3370                28.3657

                     46                     47                     48
                      A                      A                      A
 Frequencies --   1281.7782              1299.8147              1355.7916
 Red. masses --      2.1522                 1.8436                 2.6342
 Frc consts  --      2.0833                 1.8352                 2.8529
 IR Inten    --     95.3473               112.1419                31.8184

                     49                     50                     51
                      A                      A                      A
 Frequencies --   1388.4435              1395.6191              1412.4540
 Red. masses --      6.4861                 5.6106                 2.1411
 Frc consts  --      7.3670                 6.4386                 2.5167
 IR Inten    --    171.1017                28.5475                 4.6520

                     52                     53                     54
                      A                      A                      A
 Frequencies --   1492.0882              1506.2634              1529.1003
 Red. masses --      2.9088                 3.0028                 3.0578
 Frc consts  --      3.8155                 4.0140                 4.2124
 IR Inten    --     93.4233               655.7200                99.8951

                     55                     56                     57
                      A                      A                      A
 Frequencies --   1541.4386              1596.0157              1654.2339
 Red. masses --      4.7534                 7.0613                 6.2061
 Frc consts  --      6.6543                10.5976                10.0061
 IR Inten    --   1679.1532                68.4307                68.4497

                     58                     59                     60
                      A                      A                      A
 Frequencies --   1680.8151              1694.7488              1732.9425
 Red. masses --      7.1936                 7.7518                 8.9652
 Frc consts  --     11.9738                13.1179                15.8628
 IR Inten    --     48.9322                28.5303               459.2976

                     61                     62                     63
                      A                      A                      A
 Frequencies --   3183.2844              3193.5415              3217.1609
 Red. masses --      1.0886                 1.0878                 1.0864
 Frc consts  --      6.4995                 6.5363                 6.6250
 IR Inten    --      3.3199                14.2623                 1.4494

                     64                     65                     66
                      A                      A                      A
 Frequencies --   3217.7672              3227.1134              3230.5865
 Red. masses --      1.0944                 1.0908                 1.0974
 Frc consts  --      6.6762                 6.6929                 6.7481
 IR Inten    --     32.1030                 2.0840                20.0624

                     67                     68                     69
                      A                      A                      A
 Frequencies --   3235.3294              3243.1045              3851.3543
 Red. masses --      1.0961                 1.0997                 1.0792
 Frc consts  --      6.7598                 6.8148                 9.4315
 IR Inten    --      4.4447                11.9050               122.0897

 - Thermochemistry -
 -------------------
 Temperature   298.150 Kelvin.  Pressure   1.00000 Atm.
 Atom     1 has atomic number  6 and mass  12.00000

 Molecular mass:   227.04049 amu.
 Principal axes and moments of inertia in atomic units:
                           1         2         3
     Eigenvalues --  1275.406506409.641287685.04778
           X           -0.70519   0.70902   0.00001
           Y            0.70902   0.70519  -0.00001
           Z            0.00001   0.00000   1.00000
 This molecule is an asymmetric top.
 Rotational symmetry number  1.
 Warning -- assumption of classical behavior for rotation
           may cause significant error
 Rotational temperatures (Kelvin)      0.06791     0.01351     0.01127
 Rotational constants (GHZ):           1.41503     0.28157     0.23484
 Zero-point vibrational energy     497643.2 (Joules/Mol)
                                  118.93958 (Kcal/Mol)
 Warning -- explicit consideration of  19 degrees of freedom as
           vibrations may cause significant error
 Vibrational temperatures:     34.59    91.15   152.09   166.03   275.01
          (Kelvin)            324.40   383.34   427.21   437.57   562.74
                              607.52   637.70   702.11   725.07   753.23
                              766.43   786.24   809.41   835.46   912.36
                              946.21  1021.38  1066.35  1080.53  1091.71
                             1114.40  1121.48  1196.02  1260.35  1267.54
                             1282.28  1389.01  1391.05  1394.91  1457.83
                             1464.24  1501.41  1520.30  1572.51  1601.25
                             1664.64  1670.87  1698.69  1716.46  1776.65
                             1844.19  1870.14  1950.68  1997.66  2007.98
                             2032.21  2146.78  2167.18  2200.03  2217.79
                             2296.31  2380.07  2418.32  2438.37  2493.32
                             4580.04  4594.79  4628.78  4629.65  4643.10
                             4648.09  4654.92  4666.10  5541.24

 Zero-point correction=                           0.189542 (Hartree/Particle)
 Thermal correction to Energy=                    0.201741
 Thermal correction to Enthalpy=                  0.202685
 Thermal correction to Gibbs Free Energy=         0.149827
 Sum of electronic and zero-point Energies=          -1028.612922
 Sum of electronic and thermal Energies=             -1028.600723
 Sum of electronic and thermal Enthalpies=           -1028.599778
 Sum of electronic and thermal Free Energies=        -1028.652637

                     E (Thermal)             CV                S
                      KCal/Mol        Cal/Mol-Kelvin    Cal/Mol-Kelvin
 Total                  126.595             48.974            111.250
 Electronic               0.000              0.000              0.000
 Translational            0.889              2.981             42.162
 Rotational               0.889              2.981             32.507
 Vibrational            124.817             43.013             36.581
 Vibration     1          0.593              1.985              6.269
 Vibration     2          0.597              1.972              4.350
 Vibration     3          0.605              1.945              3.346
 Vibration     4          0.608              1.937              3.176
 Vibration     5          0.634              1.852              2.217
 Vibration     6          0.650              1.802              1.915
 Vibration     7          0.672              1.735              1.619
 Vibration     8          0.691              1.679              1.434
 Vibration     9          0.695              1.666              1.394
 Vibration    10          0.759              1.489              0.996
 Vibration    11          0.785              1.422              0.884
 Vibration    12          0.803              1.376              0.817
 Vibration    13          0.844              1.277              0.689
 Vibration    14          0.859              1.241              0.648
 Vibration    15          0.878              1.198              0.602
 Vibration    16          0.888              1.178              0.581
 Vibration    17          0.902              1.147              0.552
 Vibration    18          0.918              1.112              0.519
 Vibration    19          0.937              1.073              0.484

 Optimization completed.
    -- Stationary point found.
 Normal termination of Gaussian 16 at Wed Oct 28 00:10:16 2020.
