 Gaussian 16, Revision C.01,
 Gaussian 16:  ES64L-G16RevC.01  3-Jul-2019

 ----------------------------------------------------------------------
 #p opt=addgic freq wb97xd/cc-pvdz nosymm int=ultrafine scrf=(solvent=C
 arbonTetraChloride)
 ----------------------------------------------------------------------

 ------------------------------------------------
 NM 2D-scan of HBT TD-WB97XD pVDZ in CTC Relaxed.
 ------------------------------------------------
 Symbolic Z-matrix:
 Charge =  0 Multiplicity = 1

 SCF Done:  E(RwB97XD) =  -1028.81859896     A.U. after   15 cycles
 SCF Done:  E(RwB97XD) =  -1028.82527553     A.U. after   13 cycles
 SCF Done:  E(RwB97XD) =  -1028.82559242     A.U. after   12 cycles
 SCF Done:  E(RwB97XD) =  -1028.82644984     A.U. after   11 cycles
 SCF Done:  E(RwB97XD) =  -1028.82648720     A.U. after   10 cycles
 SCF Done:  E(RwB97XD) =  -1028.82648881     A.U. after    9 cycles
 SCF Done:  E(RwB97XD) =  -1028.82648859     A.U. after    8 cycles
 SCF Done:  E(RwB97XD) =  -1028.82648906     A.U. after    7 cycles
 Optimization completed.
    -- Stationary point found.
 Normal termination of Gaussian 16 at Tue Oct 27 22:34:31 2020.

 --------------------------------------------------------------------
 #P Geom=AllCheck Guess=TCheck SCRF=Check GenChk RwB97XD/CC-pVDZ Freq
 --------------------------------------------------------------------

 Structure from the checkpoint file:  "config_5_7.chk"
 ------------------------------------------------
 NM 2D-scan of HBT TD-WB97XD pVDZ in CTC Relaxed.
 ------------------------------------------------
 Charge =  0 Multiplicity = 1

                          Input orientation:
 ---------------------------------------------------------------------
 Center     Atomic      Atomic             Coordinates (Angstroms)
 Number     Number       Type             X           Y           Z
 ---------------------------------------------------------------------
      1          6           0        1.677894   -3.274824   -0.000043
      2          6           0        0.996069   -2.056388   -0.000022
      3          6           0        1.693548   -0.840206   -0.000000
      4          6           0        3.092451   -0.818063    0.000005
      5          6           0        3.769646   -2.028585   -0.000015
      6          6           0        3.068353   -3.244923   -0.000039
      7          1           0        1.139481   -4.222828   -0.000061
      8          1           0        3.620161    0.136089    0.000023
      9          1           0        4.860489   -2.036653   -0.000012
     10          1           0        3.621408   -4.185238   -0.000055
     11          7           0        0.873425    0.265117    0.000012
     12         16           0       -0.735031   -1.741329   -0.000021
     13          6           0       -1.382203    1.069011    0.000012
     14          6           0       -2.769366    0.858428    0.000017
     15          6           0       -0.871767    2.401069    0.000019
     16          6           0       -3.658198    1.923807    0.000034
     17          1           0       -3.152689   -0.165274    0.000009
     18          6           0       -1.790952    3.469064    0.000038
     19          6           0       -3.156145    3.232255    0.000047
     20          1           0       -4.733035    1.742271    0.000039
     21          1           0       -1.390247    4.483505    0.000046
     22          1           0       -3.846415    4.078289    0.000062
     23          6           0       -0.403225   -0.015198    0.000002
     24          8           0        0.424043    2.659903    0.000005
     25          1           0        0.901155    1.746332   -0.000007
 ---------------------------------------------------------------------

 SCF Done:  E(RwB97XD) =  -1028.82648906     A.U. after    1 cycles

 Alpha  occ. eigenvalues --  -89.09043 -19.26745 -14.47087 -10.39721 -10.37100
 Alpha  occ. eigenvalues --  -10.35129 -10.35025 -10.32533 -10.32093 -10.31841
 Alpha  occ. eigenvalues --  -10.31767 -10.31744 -10.31659 -10.31250 -10.30029
 Alpha  occ. eigenvalues --  -10.29828  -8.11050  -6.05910  -6.05547  -6.05096
 Alpha  occ. eigenvalues --   -1.15794  -1.09324  -0.97386  -0.95988  -0.91764
 Alpha  occ. eigenvalues --   -0.88656  -0.85443  -0.84307  -0.83064  -0.75579
 Alpha  occ. eigenvalues --   -0.71400  -0.70515  -0.69352  -0.68330  -0.63188
 Alpha  occ. eigenvalues --   -0.60708  -0.58964  -0.58199  -0.56226  -0.54495
 Alpha  occ. eigenvalues --   -0.54374  -0.53353  -0.52557  -0.51038  -0.50107
 Alpha  occ. eigenvalues --   -0.49595  -0.47447  -0.46065  -0.45338  -0.45047
 Alpha  occ. eigenvalues --   -0.43883  -0.42865  -0.42670  -0.39960  -0.36400
 Alpha  occ. eigenvalues --   -0.36238  -0.32383  -0.31593  -0.28773
 Alpha virt. eigenvalues --   -0.00542   0.04661   0.06883   0.07425   0.07552
 Alpha virt. eigenvalues --    0.11278   0.13906   0.15086   0.16264   0.17895
 Alpha virt. eigenvalues --    0.19036   0.20857   0.21766   0.22603   0.22621

 Mulliken charges:
               1
     1  C    0.009254
     2  C   -0.226650
     3  C    0.252073
     4  C   -0.012683
     5  C    0.007120
     6  C    0.000964
     7  H    0.020228
     8  H    0.021192
     9  H    0.021201
    10  H    0.022391
    11  N   -0.339445
    12  S    0.154585
    13  C   -0.079225
    14  C   -0.018794
    15  C    0.083112
    16  C   -0.012023
    17  H    0.009766
    18  C    0.002068
    19  C    0.021351
    20  H    0.008737
    21  H    0.013704
    22  H    0.017563
    23  C    0.083275
    24  O   -0.233686
    25  H    0.173919
 Sum of Mulliken charges =  -0.00000

 Dipole moment (field-independent basis, Debye):
    X=              0.2737    Y=             -2.9089    Z=             -0.0000  Tot=              2.9217
 Quadrupole moment (field-independent basis, Debye-Ang):
   XX=            -82.7360   YY=            -90.4351   ZZ=           -104.0732
   XY=             -7.1903   XZ=             -0.0001   YZ=              0.0003

  Exact polarizability:     275.847     -68.063     257.175      -0.001       0.002      62.962
 Approx polarizability:     263.216     -23.822     243.242      -0.000       0.002      82.202

                      1                      2                      3
                      A                      A                      A
 Frequencies --     31.0781                62.8119               125.7871
 Red. masses --      5.4554                 6.0258                 5.6356
 Frc consts  --      0.0031                 0.0140                 0.0525
 IR Inten    --      0.0159                 1.3831                 1.8246

                      4                      5                      6
                      A                      A                      A
 Frequencies --    153.4351               198.2208               244.6659
 Red. masses --      4.9990                 5.8919                 5.7511
 Frc consts  --      0.0693                 0.1364                 0.2028
 IR Inten    --      0.1131                 0.5148                 0.0834

                      7                      8                      9
                      A                      A                      A
 Frequencies --    273.8575               327.2914               336.6000
 Red. masses --      7.3971                 5.1565                 6.2632
 Frc consts  --      0.3269                 0.3254                 0.4181
 IR Inten    --      0.8699                 0.3039                10.1857

                     10                     11                     12
                      A                      A                      A
 Frequencies --    411.3379               437.1334               463.9225
 Red. masses --     10.1821                 3.1351                 3.6654
 Frc consts  --      1.0150                 0.3530                 0.4648
 IR Inten    --      0.1065                 2.1051                 8.0870

                     13                     14                     15
                      A                      A                      A
 Frequencies --    515.6358               528.3302               539.4595
 Red. masses --      8.5814                 5.3966                 3.4661
 Frc consts  --      1.3443                 0.8875                 0.5943
 IR Inten    --      0.0671                19.0941                 3.6096

                     16                     17                     18
                      A                      A                      A
 Frequencies --    555.0342               574.5070               593.1430
 Red. masses --      7.3808                 3.6927                 7.6407
 Frc consts  --      1.3396                 0.7181                 1.5838
 IR Inten    --      5.3242                 0.0728                 3.8143

                     19                     20                     21
                      A                      A                      A
 Frequencies --    648.4337               686.0024               717.0145
 Red. masses --      6.3366                 6.3631                 6.7081
 Frc consts  --      1.5698                 1.7643                 2.0319
 IR Inten    --      0.0070                 9.6933                23.0791

                     22                     23                     24
                      A                      A                      A
 Frequencies --    752.7177               755.6264               767.6641
 Red. masses --     10.2983                 2.0739                 2.9371
 Frc consts  --      3.4378                 0.6977                 1.0198
 IR Inten    --     14.2962                24.2364                 3.0237

                     25                     26                     27
                      A                      A                      A
 Frequencies --    776.2642               785.8276               849.4746
 Red. masses --      1.4059                 1.8516                 5.9719
 Frc consts  --      0.4991                 0.6737                 2.5390
 IR Inten    --     62.0719                37.8711                17.1996

                     28                     29                     30
                      A                      A                      A
 Frequencies --    883.5914               887.0480               908.5718
 Red. masses --      1.5666                 1.4117                 6.6838
 Frc consts  --      0.7206                 0.6545                 3.2508
 IR Inten    --      5.1299                 0.2197                 1.2169

                     31                     32                     33
                      A                      A                      A
 Frequencies --    970.5413               976.0905               999.4436
 Red. masses --      1.3553                 1.3597                 7.4734
 Frc consts  --      0.7522                 0.7632                 4.3983
 IR Inten    --      1.5697                 0.3681                56.8821

                     34                     35                     36
                      A                      A                      A
 Frequencies --   1006.7388              1011.0356              1016.4492
 Red. masses --      1.0863                 1.2844                 1.3005
 Frc consts  --      0.6487                 0.7735                 0.7916
 IR Inten    --     65.2846                 7.7527                 1.3241

                     37                     38                     39
                      A                      A                      A
 Frequencies --   1053.4691              1067.6600              1099.1075
 Red. masses --      2.0151                 1.9361                 4.1393
 Frc consts  --      1.3176                 1.3003                 2.9462
 IR Inten    --      8.6841                 8.9683                 5.2401

                     40                     41                     42
                      A                      A                      A
 Frequencies --   1148.6871              1153.7675              1173.7863
 Red. masses --      1.4767                 1.3050                 1.1292
 Frc consts  --      1.1480                 1.0235                 0.9167
 IR Inten    --     12.3236                 3.0762                46.7750

                     43                     44                     45
                      A                      A                      A
 Frequencies --   1185.1911              1258.7063              1287.9299
 Red. masses --      1.1876                 1.8794                 1.5385
 Frc consts  --      0.9829                 1.7544                 1.5036
 IR Inten    --      0.2070               103.3479                 0.7188

                     46                     47                     48
                      A                      A                      A
 Frequencies --   1302.1100              1339.6199              1352.0362
 Red. masses --      2.7579                 3.6387                 5.1937
 Frc consts  --      2.7550                 3.8473                 5.5938
 IR Inten    --    192.1486                31.8297                 1.1213

                     49                     50                     51
                      A                      A                      A
 Frequencies --   1378.1589              1381.0835              1487.3449
 Red. masses --      6.1942                 3.3813                 2.4564
 Frc consts  --      6.9316                 3.8000                 3.2016
 IR Inten    --     10.5355                19.5444                 4.6497

                     52                     53                     54
                      A                      A                      A
 Frequencies --   1491.8241              1497.4279              1522.8193
 Red. masses --      2.8716                 2.8252                 4.1116
 Frc consts  --      3.7654                 3.7324                 5.6176
 IR Inten    --      3.0246                41.5737               107.5886

                     55                     56                     57
                      A                      A                      A
 Frequencies --   1580.1056              1598.4296              1654.3651
 Red. masses --      5.8580                 2.9046                 6.8144
 Frc consts  --      8.6174                 4.3724                10.9885
 IR Inten    --    272.3821                29.6277                 8.7831

                     58                     59                     60
                      A                      A                      A
 Frequencies --   1677.6663              1694.2814              1712.8847
 Red. masses --      6.1392                 3.4721                 2.6082
 Frc consts  --     10.1805                 5.8724                 4.5087
 IR Inten    --     73.2758               205.7274               248.1814

                     61                     62                     63
                      A                      A                      A
 Frequencies --   2558.2697              3193.6238              3205.0543
 Red. masses --      1.0841                 1.0893                 1.0885
 Frc consts  --      4.1804                 6.5460                 6.5880
 IR Inten    --   1532.2875                 4.2379                 6.2254

                     64                     65                     66
                      A                      A                      A
 Frequencies --   3212.9001              3224.2556              3226.6686
 Red. masses --      1.0864                 1.0907                 1.0940
 Frc consts  --      6.6072                 6.6806                 6.7111
 IR Inten    --      2.0540                 3.8954                12.3711

                     67                     68                     69
                      A                      A                      A
 Frequencies --   3234.9390              3236.0312              3240.5840
 Red. masses --      1.0960                 1.0983                 1.0997
 Frc consts  --      6.7575                 6.7764                 6.8039
 IR Inten    --      9.1541                17.6425                12.8381

 - Thermochemistry -
 -------------------
 Temperature   298.150 Kelvin.  Pressure   1.00000 Atm.
 Atom     1 has atomic number  6 and mass  12.00000

 Molecular mass:   227.04049 amu.
 Principal axes and moments of inertia in atomic units:
                           1         2         3
     Eigenvalues --  1307.107046289.869167596.97620
           X           -0.70303   0.71116   0.00000
           Y            0.71116   0.70303  -0.00001
           Z            0.00001   0.00001   1.00000
 This molecule is an asymmetric top.
 Rotational symmetry number  1.
 Warning -- assumption of classical behavior for rotation
           may cause significant error
 Rotational temperatures (Kelvin)      0.06626     0.01377     0.01140
 Rotational constants (GHZ):           1.38071     0.28693     0.23756
 Zero-point vibrational energy     497655.9 (Joules/Mol)
                                  118.94262 (Kcal/Mol)
 Warning -- explicit consideration of  18 degrees of freedom as
           vibrations may cause significant error
 Vibrational temperatures:     44.71    90.37   180.98   220.76   285.20
          (Kelvin)            352.02   394.02   470.90   484.29   591.82
                              628.94   667.48   741.88   760.15   776.16
                              798.57   826.59   853.40   932.95   987.00
                             1031.62  1082.99  1087.18  1104.50  1116.87
                             1130.63  1222.20  1271.29  1276.26  1307.23
                             1396.39  1404.38  1437.98  1448.47  1454.65
                             1462.44  1515.71  1536.12  1581.37  1652.70
                             1660.01  1688.82  1705.23  1811.00  1853.04
                             1873.45  1927.41  1945.28  1982.86  1987.07
                             2139.96  2146.40  2154.46  2191.00  2273.42
                             2299.78  2380.26  2413.79  2437.69  2464.46
                             3680.78  4594.91  4611.36  4622.65  4638.98
                             4642.46  4654.36  4655.93  4662.48

 Zero-point correction=                           0.189547 (Hartree/Particle)
 Thermal correction to Energy=                    0.201150
 Thermal correction to Enthalpy=                  0.202094
 Thermal correction to Gibbs Free Energy=         0.150689
 Sum of electronic and zero-point Energies=          -1028.636942
 Sum of electronic and thermal Energies=             -1028.625339
 Sum of electronic and thermal Enthalpies=           -1028.624395
 Sum of electronic and thermal Free Energies=        -1028.675800

                     E (Thermal)             CV                S
                      KCal/Mol        Cal/Mol-Kelvin    Cal/Mol-Kelvin
 Total                  126.223             47.142            108.192
 Electronic               0.000              0.000              0.000
 Translational            0.889              2.981             42.162
 Rotational               0.889              2.981             32.502
 Vibrational            124.446             41.180             33.528
 Vibration     1          0.594              1.983              5.759
 Vibration     2          0.597              1.972              4.367
 Vibration     3          0.611              1.927              3.009
 Vibration     4          0.619              1.899              2.629
 Vibration     5          0.637              1.842              2.150
 Vibration     6          0.660              1.772              1.769
 Vibration     7          0.676              1.722              1.572
 Vibration     8          0.711              1.621              1.273
 Vibration     9          0.717              1.602              1.228
 Vibration    10          0.775              1.446              0.922
 Vibration    11          0.797              1.389              0.836
 Vibration    12          0.821              1.330              0.755
 Vibration    13          0.871              1.215              0.620
 Vibration    14          0.883              1.187              0.591
 Vibration    15          0.895              1.163              0.566
 Vibration    16          0.910              1.129              0.534
 Vibration    17          0.931              1.086              0.496
 Vibration    18          0.951              1.046              0.462

 Optimization completed.
    -- Stationary point found.
 Normal termination of Gaussian 16 at Tue Oct 27 22:40:48 2020.
