 Gaussian 16, Revision C.01,
 Gaussian 16:  ES64L-G16RevC.01  3-Jul-2019

 ----------------------------------------------------------------------
 #p opt=addgic freq wb97xd/cc-pvdz nosymm int=ultrafine scrf=(solvent=C
 arbonTetraChloride)
 ----------------------------------------------------------------------

 ------------------------------------------------
 NM 2D-scan of HBT TD-WB97XD pVDZ in CTC Relaxed.
 ------------------------------------------------
 Symbolic Z-matrix:
 Charge =  0 Multiplicity = 1

 SCF Done:  E(RwB97XD) =  -1028.78053511     A.U. after   15 cycles
 SCF Done:  E(RwB97XD) =  -1028.82460243     A.U. after   13 cycles
 SCF Done:  E(RwB97XD) =  -1028.82790131     A.U. after   13 cycles
 SCF Done:  E(RwB97XD) =  -1028.82827285     A.U. after   11 cycles
 SCF Done:  E(RwB97XD) =  -1028.82828829     A.U. after   10 cycles
 SCF Done:  E(RwB97XD) =  -1028.82829116     A.U. after    9 cycles
 SCF Done:  E(RwB97XD) =  -1028.82829137     A.U. after    7 cycles
 SCF Done:  E(RwB97XD) =  -1028.82829137     A.U. after    7 cycles
 SCF Done:  E(RwB97XD) =  -1028.82829141     A.U. after    6 cycles
 Optimization completed.
    -- Stationary point found.
 Normal termination of Gaussian 16 at Tue Oct 27 22:37:22 2020.

 --------------------------------------------------------------------
 #P Geom=AllCheck Guess=TCheck SCRF=Check GenChk RwB97XD/CC-pVDZ Freq
 --------------------------------------------------------------------

 Structure from the checkpoint file:  "config_3_7.chk"
 ------------------------------------------------
 NM 2D-scan of HBT TD-WB97XD pVDZ in CTC Relaxed.
 ------------------------------------------------
 Charge =  0 Multiplicity = 1

                          Input orientation:
 ---------------------------------------------------------------------
 Center     Atomic      Atomic             Coordinates (Angstroms)
 Number     Number       Type             X           Y           Z
 ---------------------------------------------------------------------
      1          6           0        1.685529   -3.303364   -0.000016
      2          6           0        0.980569   -2.093817   -0.000025
      3          6           0        1.675557   -0.871747   -0.000026
      4          6           0        3.073619   -0.831602   -0.000020
      5          6           0        3.769278   -2.027660   -0.000013
      6          6           0        3.077410   -3.251068   -0.000011
      7          1           0        1.167001   -4.262575   -0.000019
      8          1           0        3.579961    0.134127   -0.000020
      9          1           0        4.860127   -2.023686   -0.000009
     10          1           0        3.641509   -4.185069   -0.000008
     11          7           0        0.884622    0.250333   -0.000028
     12         16           0       -0.749408   -1.765605   -0.000049
     13          6           0       -1.367540    1.077392   -0.000004
     14          6           0       -2.760623    0.868210   -0.000006
     15          6           0       -0.891336    2.422128    0.000026
     16          6           0       -3.654574    1.927486    0.000030
     17          1           0       -3.142818   -0.155818   -0.000033
     18          6           0       -1.808284    3.483152    0.000066
     19          6           0       -3.168707    3.242696    0.000070
     20          1           0       -4.727757    1.736222    0.000029
     21          1           0       -1.403112    4.495557    0.000092
     22          1           0       -3.864809    4.083533    0.000102
     23          6           0       -0.389158   -0.017445   -0.000026
     24          8           0        0.398438    2.770988    0.000013
     25          1           0        0.925851    1.936793   -0.000014
 ---------------------------------------------------------------------

 SCF Done:  E(RwB97XD) =  -1028.82829141     A.U. after    1 cycles

 Alpha  occ. eigenvalues --  -89.08857 -19.27997 -14.46758 -10.39573 -10.37385
 Alpha  occ. eigenvalues --  -10.34972 -10.34723 -10.32586 -10.32455 -10.31883
 Alpha  occ. eigenvalues --  -10.31631 -10.31535 -10.31446 -10.31318 -10.30215
 Alpha  occ. eigenvalues --  -10.29965  -8.10804  -6.05669  -6.05312  -6.04847
 Alpha  occ. eigenvalues --   -1.16456  -1.09000  -0.97222  -0.96066  -0.91358
 Alpha  occ. eigenvalues --   -0.88549  -0.85281  -0.84484  -0.82962  -0.75488
 Alpha  occ. eigenvalues --   -0.71319  -0.70579  -0.69447  -0.68171  -0.63039
 Alpha  occ. eigenvalues --   -0.60421  -0.58700  -0.58362  -0.56344  -0.54474
 Alpha  occ. eigenvalues --   -0.53966  -0.53181  -0.52562  -0.50939  -0.50303
 Alpha  occ. eigenvalues --   -0.49351  -0.47754  -0.45861  -0.45326  -0.44952
 Alpha  occ. eigenvalues --   -0.43799  -0.42887  -0.42652  -0.39744  -0.37150
 Alpha  occ. eigenvalues --   -0.36167  -0.32156  -0.31676  -0.29025
 Alpha virt. eigenvalues --   -0.00453   0.04810   0.06863   0.07205   0.07527
 Alpha virt. eigenvalues --    0.11462   0.13510   0.15128   0.16083   0.17840
 Alpha virt. eigenvalues --    0.18969   0.20667   0.21717   0.22523   0.22772

 Mulliken charges:
               1
     1  C    0.003635
     2  C   -0.216883
     3  C    0.234221
     4  C   -0.013000
     5  C    0.007305
     6  C   -0.001032
     7  H    0.020188
     8  H    0.017734
     9  H    0.019623
    10  H    0.021594
    11  N   -0.338357
    12  S    0.142633
    13  C   -0.069219
    14  C   -0.018945
    15  C    0.069088
    16  C   -0.008117
    17  H    0.011106
    18  C    0.013321
    19  C    0.020046
    20  H    0.009978
    21  H    0.016136
    22  H    0.018164
    23  C    0.080944
    24  O   -0.199794
    25  H    0.159630
 Sum of Mulliken charges =  -0.00000

 Dipole moment (field-independent basis, Debye):
    X=              0.1110    Y=             -2.3482    Z=             -0.0000  Tot=              2.3509
 Quadrupole moment (field-independent basis, Debye-Ang):
   XX=            -82.7184   YY=            -89.9198   ZZ=           -104.1845
   XY=             -7.0585   XZ=             -0.0001   YZ=              0.0002

  Exact polarizability:     275.138     -66.259     256.256      -0.001       0.002      63.054
 Approx polarizability:     263.094     -22.772     243.133      -0.000       0.002      82.245

                      1                      2                      3
                      A                      A                      A
 Frequencies --     49.3033                57.1008               118.7399
 Red. masses --      5.7453                 5.6019                 5.6619
 Frc consts  --      0.0082                 0.0108                 0.0470
 IR Inten    --      0.1599                 1.0866                 1.2570

                      4                      5                      6
                      A                      A                      A
 Frequencies --    152.5006               199.5603               245.5645
 Red. masses --      4.9255                 5.8378                 5.7860
 Frc consts  --      0.0675                 0.1370                 0.2056
 IR Inten    --      0.0071                 0.5279                 0.0438

                      7                      8                      9
                      A                      A                      A
 Frequencies --    268.2869               305.0528               326.6755
 Red. masses --      7.8900                 6.3862                 5.0964
 Frc consts  --      0.3346                 0.3501                 0.3204
 IR Inten    --      1.4242                 6.8329                 0.3398

                     10                     11                     12
                      A                      A                      A
 Frequencies --    404.0108               439.1027               468.1031
 Red. masses --      9.0945                 3.1540                 3.7271
 Frc consts  --      0.8746                 0.3583                 0.4812
 IR Inten    --      0.2335                 2.1115                 8.2157

                     13                     14                     15
                      A                      A                      A
 Frequencies --    510.0297               514.9993               539.0505
 Red. masses --      4.9225                 8.2656                 3.4681
 Frc consts  --      0.7544                 1.2916                 0.5937
 IR Inten    --      6.9643                 0.1555                 3.8292

                     16                     17                     18
                      A                      A                      A
 Frequencies --    547.9900               574.1499               593.9523
 Red. masses --      8.5424                 3.7135                 7.6935
 Frc consts  --      1.5114                 0.7212                 1.5991
 IR Inten    --      2.5673                 0.0296                 5.9464

                     19                     20                     21
                      A                      A                      A
 Frequencies --    645.5629               679.9059               705.5659
 Red. masses --      5.7277                 6.4555                 7.8770
 Frc consts  --      1.4064                 1.7582                 2.3104
 IR Inten    --      0.3351                 7.6343                38.5576

                     22                     23                     24
                      A                      A                      A
 Frequencies --    727.8170               754.1919               757.7448
 Red. masses --      8.5370                 2.1542                 2.0289
 Frc consts  --      2.6644                 0.7220                 0.6864
 IR Inten    --      3.8895                43.9431                 0.0517

                     25                     26                     27
                      A                      A                      A
 Frequencies --    776.5938               786.0353               811.7648
 Red. masses --      1.3747                 1.8465                 1.3134
 Frc consts  --      0.4885                 0.6722                 0.5099
 IR Inten    --     69.0377                25.8417                69.7591

                     28                     29                     30
                      A                      A                      A
 Frequencies --    843.2600               885.1589               887.7295
 Red. masses --      6.0315                 1.5360                 1.4286
 Frc consts  --      2.5270                 0.7091                 0.6633
 IR Inten    --     22.0104                 4.0446                 1.2602

                     31                     32                     33
                      A                      A                      A
 Frequencies --    897.3698               972.6231               976.2642
 Red. masses --      6.4955                 1.3554                 1.3635
 Frc consts  --      3.0818                 0.7555                 0.7657
 IR Inten    --      1.6346                 1.1979                 1.5681

                     34                     35                     36
                      A                      A                      A
 Frequencies --    984.4271              1011.2682              1015.6147
 Red. masses --      7.5881                 1.3004                 1.3048
 Frc consts  --      4.3326                 0.7836                 0.7929
 IR Inten    --     65.7577                 0.3251                 0.0121

                     37                     38                     39
                      A                      A                      A
 Frequencies --   1051.9131              1069.7349              1095.6474
 Red. masses --      2.0227                 1.9945                 4.4747
 Frc consts  --      1.3187                 1.3447                 3.1649
 IR Inten    --      8.1642                11.3903                 6.0341

                     40                     41                     42
                      A                      A                      A
 Frequencies --   1147.1632              1151.2965              1175.8304
 Red. masses --      1.5082                 1.2856                 1.1270
 Frc consts  --      1.1694                 1.0040                 0.9181
 IR Inten    --      6.8011                 4.5073                47.7907

                     43                     44                     45
                      A                      A                      A
 Frequencies --   1184.5749              1245.7976              1284.5058
 Red. masses --      1.1899                 1.8244                 1.6251
 Frc consts  --      0.9838                 1.6683                 1.5798
 IR Inten    --      0.2551               146.6728                 8.0854

                     46                     47                     48
                      A                      A                      A
 Frequencies --   1286.6359              1324.7582              1352.1508
 Red. masses --      2.1594                 5.3132                 3.0917
 Frc consts  --      2.1062                 5.4939                 3.3304
 IR Inten    --    105.4525                17.7110                12.7744

                     49                     50                     51
                      A                      A                      A
 Frequencies --   1371.4573              1377.9637              1453.3894
 Red. masses --      8.1632                 3.2820                 1.7194
 Frc consts  --      9.0464                 3.6717                 2.1398
 IR Inten    --     16.0029                13.5336                58.1677

                     52                     53                     54
                      A                      A                      A
 Frequencies --   1491.9429              1500.4326              1520.5178
 Red. masses --      2.6401                 3.1027                 3.7433
 Frc consts  --      3.4623                 4.1156                 5.0990
 IR Inten    --     27.4973                11.5068               126.3295

                     55                     56                     57
                      A                      A                      A
 Frequencies --   1545.0623              1595.8068              1646.4503
 Red. masses --      2.3796                 7.7046                 6.6066
 Frc consts  --      3.3469                11.5600                10.5517
 IR Inten    --     80.5925               204.9329                 9.3843

                     58                     59                     60
                      A                      A                      A
 Frequencies --   1657.6034              1682.7268              1708.7513
 Red. masses --      4.5575                 6.8824                 6.1786
 Frc consts  --      7.3779                11.4820                10.6292
 IR Inten    --    125.7627                10.6357               112.7437

                     61                     62                     63
                      A                      A                      A
 Frequencies --   3194.1064              3208.4171              3211.6420
 Red. masses --      1.0894                 1.0883                 1.0862
 Frc consts  --      6.5486                 6.6005                 6.6009
 IR Inten    --      2.8533                 7.9291                 1.5794

                     64                     65                     66
                      A                      A                      A
 Frequencies --   3222.7031              3228.7270              3233.1029
 Red. masses --      1.0905                 1.0941                 1.0959
 Frc consts  --      6.6729                 6.7202                 6.7496
 IR Inten    --      4.8847                 9.9455                11.7716

                     67                     68                     69
                      A                      A                      A
 Frequencies --   3236.8185              3239.1140              3347.6857
 Red. masses --      1.0989                 1.0998                 1.0678
 Frc consts  --      6.7836                 6.7984                 7.0505
 IR Inten    --     18.1806                13.8451               842.2208

 - Thermochemistry -
 -------------------
 Temperature   298.150 Kelvin.  Pressure   1.00000 Atm.
 Atom     1 has atomic number  6 and mass  12.00000

 Molecular mass:   227.04049 amu.
 Principal axes and moments of inertia in atomic units:
                           1         2         3
     Eigenvalues --  1330.257246346.492137676.74936
           X           -0.69722   0.71686  -0.00000
           Y            0.71686   0.69722  -0.00001
           Z            0.00001   0.00001   1.00000
 This molecule is an asymmetric top.
 Rotational symmetry number  1.
 Warning -- assumption of classical behavior for rotation
           may cause significant error
 Rotational temperatures (Kelvin)      0.06511     0.01365     0.01128
 Rotational constants (GHZ):           1.35669     0.28437     0.23509
 Zero-point vibrational energy     499306.3 (Joules/Mol)
                                  119.33708 (Kcal/Mol)
 Warning -- explicit consideration of  18 degrees of freedom as
           vibrations may cause significant error
 Vibrational temperatures:     70.94    82.16   170.84   219.41   287.12
          (Kelvin)            353.31   386.01   438.90   470.01   581.28
                              631.77   673.50   733.82   740.97   775.57
                              788.44   826.07   854.56   928.82   978.23
                             1015.15  1047.17  1085.11  1090.23  1117.35
                             1130.93  1167.95  1213.26  1273.55  1277.24
                             1291.12  1399.39  1404.63  1416.37  1454.99
                             1461.24  1513.47  1539.11  1576.39  1650.51
                             1656.46  1691.76  1704.34  1792.42  1848.12
                             1851.18  1906.03  1945.44  1973.22  1982.58
                             2091.10  2146.57  2158.79  2187.69  2223.00
                             2296.01  2368.87  2384.92  2421.07  2458.51
                             4595.61  4616.20  4620.84  4636.75  4645.42
                             4651.71  4657.06  4660.36  4816.57

 Zero-point correction=                           0.190176 (Hartree/Particle)
 Thermal correction to Energy=                    0.201898
 Thermal correction to Enthalpy=                  0.202842
 Thermal correction to Gibbs Free Energy=         0.151496
 Sum of electronic and zero-point Energies=          -1028.638116
 Sum of electronic and thermal Energies=             -1028.626394
 Sum of electronic and thermal Enthalpies=           -1028.625449
 Sum of electronic and thermal Free Energies=        -1028.676795

                     E (Thermal)             CV                S
                      KCal/Mol        Cal/Mol-Kelvin    Cal/Mol-Kelvin
 Total                  126.693             47.731            108.066
 Electronic               0.000              0.000              0.000
 Translational            0.889              2.981             42.162
 Rotational               0.889              2.981             32.538
 Vibrational            124.915             41.769             33.365
 Vibration     1          0.595              1.978              4.845
 Vibration     2          0.596              1.975              4.555
 Vibration     3          0.609              1.934              3.121
 Vibration     4          0.619              1.900              2.641
 Vibration     5          0.638              1.840              2.137
 Vibration     6          0.660              1.770              1.762
 Vibration     7          0.673              1.731              1.607
 Vibration     8          0.696              1.664              1.389
 Vibration     9          0.710              1.622              1.276
 Vibration    10          0.769              1.461              0.948
 Vibration    11          0.799              1.385              0.829
 Vibration    12          0.825              1.321              0.743
 Vibration    13          0.865              1.228              0.634
 Vibration    14          0.870              1.217              0.622
 Vibration    15          0.894              1.164              0.567
 Vibration    16          0.903              1.144              0.548
 Vibration    17          0.930              1.087              0.496
 Vibration    18          0.952              1.045              0.460

 Optimization completed.
    -- Stationary point found.
 Normal termination of Gaussian 16 at Tue Oct 27 22:43:46 2020.
