 Gaussian 16, Revision C.01,
 Gaussian 16:  ES64L-G16RevC.01  3-Jul-2019

 ----------------------------------------------------------------------
 #p opt=addgic freq wb97xd/cc-pvdz nosymm int=ultrafine scrf=(solvent=C
 arbonTetraChloride)
 ----------------------------------------------------------------------

 ------------------------------------------------
 NM 2D-scan of HBT TD-WB97XD pVDZ in CTC Relaxed.
 ------------------------------------------------
 Symbolic Z-matrix:
 Charge =  0 Multiplicity = 1

 SCF Done:  E(RwB97XD) =  -1028.70326299     A.U. after   15 cycles
 SCF Done:  E(RwB97XD) =  -1028.80770295     A.U. after   13 cycles
 SCF Done:  E(RwB97XD) =  -1028.80897827     A.U. after   15 cycles
 SCF Done:  E(RwB97XD) =  -1028.82827957     A.U. after   13 cycles
 SCF Done:  E(RwB97XD) =  -1028.82929387     A.U. after   11 cycles
 SCF Done:  E(RwB97XD) =  -1028.82943108     A.U. after   11 cycles
 SCF Done:  E(RwB97XD) =  -1028.82944703     A.U. after    9 cycles
 Optimization completed.
    -- Stationary point found.
 Normal termination of Gaussian 16 at Wed Oct 28 01:14:20 2020.

 --------------------------------------------------------------------
 #P Geom=AllCheck Guess=TCheck SCRF=Check GenChk RwB97XD/CC-pVDZ Freq
 --------------------------------------------------------------------

 Structure from the checkpoint file:  "config_1_18.chk"
 ------------------------------------------------
 NM 2D-scan of HBT TD-WB97XD pVDZ in CTC Relaxed.
 ------------------------------------------------
 Charge =  0 Multiplicity = 1

                          Input orientation:
 ---------------------------------------------------------------------
 Center     Atomic      Atomic             Coordinates (Angstroms)
 Number     Number       Type             X           Y           Z
 ---------------------------------------------------------------------
      1          6           0        1.534466   -3.301438   -0.000028
      2          6           0        0.979249   -2.021450   -0.000015
      3          6           0        1.768671   -0.854745   -0.000008
      4          6           0        3.165140   -0.982539   -0.000016
      5          6           0        3.723474   -2.255020   -0.000028
      6          6           0        2.918228   -3.406292   -0.000034
      7          1           0        0.900230   -4.188300   -0.000033
      8          1           0        3.790508   -0.089065   -0.000011
      9          1           0        4.809173   -2.362606   -0.000033
     10          1           0        3.384032   -4.392787   -0.000043
     11          7           0        1.046422    0.334716    0.000007
     12         16           0       -0.704530   -1.588520   -0.000004
     13          6           0       -1.279205    1.136913    0.000025
     14          6           0       -2.636268    0.765613    0.000031
     15          6           0       -0.944003    2.509535    0.000029
     16          6           0       -3.646757    1.708629    0.000033
     17          1           0       -2.903486   -0.292971    0.000031
     18          6           0       -1.975829    3.462594    0.000028
     19          6           0       -3.304363    3.066740    0.000029
     20          1           0       -4.690829    1.396138    0.000036
     21          1           0       -1.698394    4.517323    0.000028
     22          1           0       -4.088269    3.826314    0.000028
     23          6           0       -0.238874    0.110501    0.000012
     24          8           0        0.322004    2.947292    0.000033
     25          1           0        0.915611    2.162321    0.000029
 ---------------------------------------------------------------------

 SCF Done:  E(RwB97XD) =  -1028.82944703     A.U. after    1 cycles

 Alpha  occ. eigenvalues --  -89.08262 -19.28863 -14.47041 -10.39253 -10.37610
 Alpha  occ. eigenvalues --  -10.34894 -10.34536 -10.32395 -10.32138 -10.31912
 Alpha  occ. eigenvalues --  -10.31587 -10.31552 -10.31487 -10.31356 -10.30396
 Alpha  occ. eigenvalues --  -10.30381  -8.10360  -6.05205  -6.04849  -6.04412
 Alpha  occ. eigenvalues --   -1.16865  -1.08633  -0.97315  -0.96294  -0.91629
 Alpha  occ. eigenvalues --   -0.88557  -0.85464  -0.84751  -0.82770  -0.75448
 Alpha  occ. eigenvalues --   -0.71619  -0.70697  -0.69372  -0.68132  -0.63264
 Alpha  occ. eigenvalues --   -0.60368  -0.58765  -0.58535  -0.56635  -0.54576
 Alpha  occ. eigenvalues --   -0.53876  -0.53148  -0.52989  -0.50696  -0.50547
 Alpha  occ. eigenvalues --   -0.49082  -0.47761  -0.45876  -0.45464  -0.45040
 Alpha  occ. eigenvalues --   -0.44048  -0.43128  -0.42295  -0.39643  -0.37528
 Alpha  occ. eigenvalues --   -0.36204  -0.31997  -0.31743  -0.29306
 Alpha virt. eigenvalues --   -0.00429   0.04950   0.06720   0.07041   0.08138
 Alpha virt. eigenvalues --    0.11535   0.14385   0.15269   0.17008   0.18114
 Alpha virt. eigenvalues --    0.18804   0.20547   0.21517   0.22506   0.22583

 Mulliken charges:
               1
     1  C    0.012961
     2  C   -0.202925
     3  C    0.200213
     4  C   -0.018175
     5  C    0.003578
     6  C    0.001183
     7  H    0.017503
     8  H    0.016907
     9  H    0.019000
    10  H    0.020753
    11  N   -0.343309
    12  S    0.137921
    13  C   -0.033198
    14  C   -0.033134
    15  C    0.054050
    16  C   -0.002375
    17  H    0.023159
    18  C    0.011139
    19  C    0.021258
    20  H    0.010396
    21  H    0.018431
    22  H    0.019446
    23  C    0.080225
    24  O   -0.194474
    25  H    0.159466
 Sum of Mulliken charges =  -0.00000

 Dipole moment (field-independent basis, Debye):
    X=             -0.3123    Y=             -2.2640    Z=             -0.0000  Tot=              2.2855
 Quadrupole moment (field-independent basis, Debye-Ang):
   XX=            -82.6990   YY=            -89.9635   ZZ=           -104.0995
   XY=             -7.0632   XZ=             -0.0001   YZ=              0.0001

  Exact polarizability:     272.894     -66.806     254.100      -0.001       0.001      62.905
 Approx polarizability:     261.233     -22.678     242.014      -0.001       0.001      82.131

                      1                      2                      3
                      A                      A                      A
 Frequencies --     35.5823                62.1363               122.9838
 Red. masses --      5.7767                 5.3816                 5.7167
 Frc consts  --      0.0043                 0.0122                 0.0509
 IR Inten    --      0.1818                 0.9186                 1.3728

                      4                      5                      6
                      A                      A                      A
 Frequencies --    150.3945               197.6151               246.8371
 Red. masses --      5.0002                 6.0297                 5.5754
 Frc consts  --      0.0666                 0.1387                 0.2001
 IR Inten    --      0.0027                 0.8111                 0.0047

                      7                      8                      9
                      A                      A                      A
 Frequencies --    268.2423               300.3372               329.5530
 Red. masses --      8.0062                 6.3264                 5.0526
 Frc consts  --      0.3394                 0.3362                 0.3233
 IR Inten    --      3.2779                 5.6683                 0.0642

                     10                     11                     12
                      A                      A                      A
 Frequencies --    413.6573               438.6854               469.2479
 Red. masses --      9.0504                 3.1160                 3.6791
 Frc consts  --      0.9124                 0.3533                 0.4773
 IR Inten    --      0.3483                 1.7991                 8.1509

                     13                     14                     15
                      A                      A                      A
 Frequencies --    511.5687               517.7798               536.3743
 Red. masses --      5.0421                 8.6508                 3.4208
 Frc consts  --      0.7774                 1.3665                 0.5798
 IR Inten    --      6.3334                 0.2481                 3.9661

                     16                     17                     18
                      A                      A                      A
 Frequencies --    549.8447               576.2678               591.4504
 Red. masses --      8.1837                 3.7611                 7.7270
 Frc consts  --      1.4577                 0.7359                 1.5926
 IR Inten    --      1.8007                 0.0181                 6.4279

                     19                     20                     21
                      A                      A                      A
 Frequencies --    644.5113               675.5841               726.2641
 Red. masses --      5.2781                 6.7304                 7.6877
 Frc consts  --      1.2918                 1.8099                 2.3891
 IR Inten    --      1.0670                 2.6500                34.3099

                     22                     23                     24
                      A                      A                      A
 Frequencies --    736.1629               737.3833               756.5117
 Red. masses --      8.2819                 1.3013                 1.8610
 Frc consts  --      2.6444                 0.4169                 0.6275
 IR Inten    --      3.4389                73.4301                25.8780

                     25                     26                     27
                      A                      A                      A
 Frequencies --    770.9748               780.4627               788.6110
 Red. masses --      1.8878                 1.5752                 2.0073
 Frc consts  --      0.6611                 0.5653                 0.7355
 IR Inten    --     61.4740                 6.2792                48.9082

                     28                     29                     30
                      A                      A                      A
 Frequencies --    847.0270               882.7928               885.3464
 Red. masses --      6.0778                 1.5506                 6.4857
 Frc consts  --      2.5691                 0.7120                 2.9952
 IR Inten    --     19.2519                 4.2228                 4.9162

                     31                     32                     33
                      A                      A                      A
 Frequencies --    887.9036               968.7774               975.9866
 Red. masses --      1.4242                 1.3645                 1.3679
 Frc consts  --      0.6615                 0.7545                 0.7677
 IR Inten    --      0.7727                 1.0264                 1.6168

                     34                     35                     36
                      A                      A                      A
 Frequencies --    992.8409              1011.6970              1015.0112
 Red. masses --      7.7849                 1.3047                 1.3057
 Frc consts  --      4.5213                 0.7868                 0.7926
 IR Inten    --     54.9506                 0.4122                 0.0199

                     37                     38                     39
                      A                      A                      A
 Frequencies --   1051.3331              1076.4590              1106.0266
 Red. masses --      1.9889                 1.9613                 3.5972
 Frc consts  --      1.2952                 1.3390                 2.5926
 IR Inten    --      8.5030                 9.7818                 6.5061

                     40                     41                     42
                      A                      A                      A
 Frequencies --   1155.8632              1156.3663              1181.3157
 Red. masses --      1.3869                 1.3966                 1.2077
 Frc consts  --      1.0917                 1.1003                 0.9930
 IR Inten    --      1.4822                 5.5360                25.1001

                     43                     44                     45
                      A                      A                      A
 Frequencies --   1186.1373              1248.7799              1278.3354
 Red. masses --      1.2797                 2.1993                 2.0636
 Frc consts  --      1.0608                 2.0207                 1.9869
 IR Inten    --     12.8108               167.3485                30.9143

                     46                     47                     48
                      A                      A                      A
 Frequencies --   1295.9029              1324.1467              1336.4955
 Red. masses --      1.6760                 2.7597                 3.8106
 Frc consts  --      1.6583                 2.8509                 4.0103
 IR Inten    --     48.6800                28.8596                17.6143

                     49                     50                     51
                      A                      A                      A
 Frequencies --   1369.2896              1379.9628              1454.4037
 Red. masses --      7.6379                 4.1463                 1.6762
 Frc consts  --      8.4375                 4.6520                 2.0890
 IR Inten    --     14.9749                11.2179                62.4353

                     52                     53                     54
                      A                      A                      A
 Frequencies --   1485.7648              1504.0388              1529.3186
 Red. masses --      2.6156                 2.8830                 2.5959
 Frc consts  --      3.4019                 3.8425                 3.5771
 IR Inten    --     45.7592                12.1995                40.9266

                     55                     56                     57
                      A                      A                      A
 Frequencies --   1546.2026              1596.5087              1644.1173
 Red. masses --      2.6936                 8.0516                 6.7671
 Frc consts  --      3.7941                12.0913                10.7775
 IR Inten    --    161.8245               183.7635                 4.9792

                     58                     59                     60
                      A                      A                      A
 Frequencies --   1666.1983              1680.7086              1709.2942
 Red. masses --      5.0910                 6.8801                 5.7349
 Frc consts  --      8.3273                11.4507                 9.8722
 IR Inten    --    121.1967                 6.4451               106.4460

                     61                     62                     63
                      A                      A                      A
 Frequencies --   3208.7934              3209.2746              3214.7485
 Red. masses --      1.0864                 1.0860                 1.0897
 Frc consts  --      6.5905                 6.5900                 6.6354
 IR Inten    --      1.6534                 1.2711                10.7335

                     64                     65                     66
                      A                      A                      A
 Frequencies --   3219.9845              3230.0631              3230.9563
 Red. masses --      1.0903                 1.0959                 1.0945
 Frc consts  --      6.6607                 6.7369                 6.7320
 IR Inten    --      4.2642                10.5984                11.1485

                     67                     68                     69
                      A                      A                      A
 Frequencies --   3236.3628              3240.5329              3463.6203
 Red. masses --      1.0997                 1.0995                 1.0673
 Frc consts  --      6.7866                 6.8026                 7.5438
 IR Inten    --     17.3859                13.3594               587.5111

 - Thermochemistry -
 -------------------
 Temperature   298.150 Kelvin.  Pressure   1.00000 Atm.
 Atom     1 has atomic number  6 and mass  12.00000

 Molecular mass:   227.04049 amu.
 Principal axes and moments of inertia in atomic units:
                           1         2         3
     Eigenvalues --  1296.763776376.444847673.20860
           X           -0.69602   0.71803   0.00000
           Y            0.71803   0.69602  -0.00001
           Z            0.00001   0.00000   1.00000
 This molecule is an asymmetric top.
 Rotational symmetry number  1.
 Warning -- assumption of classical behavior for rotation
           may cause significant error
 Rotational temperatures (Kelvin)      0.06679     0.01358     0.01129
 Rotational constants (GHZ):           1.39173     0.28303     0.23520
 Zero-point vibrational energy     500157.0 (Joules/Mol)
                                  119.54038 (Kcal/Mol)
 Warning -- explicit consideration of  18 degrees of freedom as
           vibrations may cause significant error
 Vibrational temperatures:     51.19    89.40   176.95   216.38   284.32
          (Kelvin)            355.14   385.94   432.12   474.15   595.16
                              631.17   675.14   736.03   744.97   771.72
                              791.10   829.12   850.97   927.31   972.01
                             1044.93  1059.17  1060.93  1088.45  1109.26
                             1122.91  1134.64  1218.68  1270.14  1273.82
                             1277.50  1393.85  1404.23  1428.48  1455.61
                             1460.37  1512.63  1548.78  1591.33  1663.03
                             1663.75  1699.65  1706.59  1796.72  1839.24
                             1864.52  1905.15  1922.92  1970.10  1985.46
                             2092.56  2137.68  2163.98  2200.35  2224.64
                             2297.02  2365.52  2397.29  2418.16  2459.29
                             4616.74  4617.43  4625.31  4632.84  4647.34
                             4648.63  4656.40  4662.40  4983.38

 Zero-point correction=                           0.190500 (Hartree/Particle)
 Thermal correction to Energy=                    0.202234
 Thermal correction to Enthalpy=                  0.203178
 Thermal correction to Gibbs Free Energy=         0.151638
 Sum of electronic and zero-point Energies=          -1028.638947
 Sum of electronic and thermal Energies=             -1028.627213
 Sum of electronic and thermal Enthalpies=           -1028.626269
 Sum of electronic and thermal Free Energies=        -1028.677810

                     E (Thermal)             CV                S
                      KCal/Mol        Cal/Mol-Kelvin    Cal/Mol-Kelvin
 Total                  126.904             47.733            108.477
 Electronic               0.000              0.000              0.000
 Translational            0.889              2.981             42.162
 Rotational               0.889              2.981             32.517
 Vibrational            125.126             41.772             33.798
 Vibration     1          0.594              1.982              5.491
 Vibration     2          0.597              1.972              4.388
 Vibration     3          0.610              1.930              3.053
 Vibration     4          0.618              1.902              2.667
 Vibration     5          0.637              1.843              2.155
 Vibration     6          0.661              1.768              1.753
 Vibration     7          0.673              1.732              1.608
 Vibration     8          0.693              1.673              1.415
 Vibration     9          0.712              1.616              1.262
 Vibration    10          0.777              1.441              0.914
 Vibration    11          0.799              1.386              0.831
 Vibration    12          0.826              1.318              0.740
 Vibration    13          0.867              1.224              0.630
 Vibration    14          0.873              1.211              0.615
 Vibration    15          0.891              1.170              0.573
 Vibration    16          0.905              1.140              0.544
 Vibration    17          0.933              1.083              0.492
 Vibration    18          0.949              1.050              0.465

 Optimization completed.
    -- Stationary point found.
 Normal termination of Gaussian 16 at Wed Oct 28 01:20:20 2020.
