 Gaussian 16, Revision C.01,
 Gaussian 16:  ES64L-G16RevC.01  3-Jul-2019

 ----------------------------------------------------------------------
 #p opt=addgic freq wb97xd/cc-pvdz nosymm int=ultrafine scrf=(solvent=C
 arbonTetraChloride)
 ----------------------------------------------------------------------

 ------------------------------------------------
 NM 2D-scan of HBT TD-WB97XD pVDZ in CTC Relaxed.
 ------------------------------------------------
 Symbolic Z-matrix:
 Charge =  0 Multiplicity = 1

 SCF Done:  E(RwB97XD) =  -1028.81863791     A.U. after   15 cycles
 SCF Done:  E(RwB97XD) =  -1028.82683418     A.U. after   13 cycles
 SCF Done:  E(RwB97XD) =  -1028.82757265     A.U. after   12 cycles
 SCF Done:  E(RwB97XD) =  -1028.82763827     A.U. after   11 cycles
 SCF Done:  E(RwB97XD) =  -1028.82770213     A.U. after    9 cycles
 SCF Done:  E(RwB97XD) =  -1028.82770430     A.U. after    9 cycles
 SCF Done:  E(RwB97XD) =  -1028.82770428     A.U. after    8 cycles
 SCF Done:  E(RwB97XD) =  -1028.82770448     A.U. after    7 cycles
 Optimization completed.
    -- Stationary point found.
 Normal termination of Gaussian 16 at Wed Oct 28 00:52:39 2020.

 --------------------------------------------------------------------
 #P Geom=AllCheck Guess=TCheck SCRF=Check GenChk RwB97XD/CC-pVDZ Freq
 --------------------------------------------------------------------

 Structure from the checkpoint file:  "config_4_14.chk"
 ------------------------------------------------
 NM 2D-scan of HBT TD-WB97XD pVDZ in CTC Relaxed.
 ------------------------------------------------
 Charge =  0 Multiplicity = 1

                          Input orientation:
 ---------------------------------------------------------------------
 Center     Atomic      Atomic             Coordinates (Angstroms)
 Number     Number       Type             X           Y           Z
 ---------------------------------------------------------------------
      1          6           0        1.579536   -3.269313   -0.000076
      2          6           0        0.996007   -2.004372   -0.000066
      3          6           0        1.754533   -0.822515    0.000006
      4          6           0        3.153538   -0.912017    0.000069
      5          6           0        3.740706   -2.173485    0.000060
      6          6           0        2.965005   -3.343280   -0.000012
      7          1           0        0.964465   -4.169539   -0.000130
      8          1           0        3.760335   -0.005924    0.000127
      9          1           0        4.828724   -2.254432    0.000111
     10          1           0        3.453555   -4.318560   -0.000017
     11          7           0        0.974751    0.328256    0.000008
     12         16           0       -0.707216   -1.626187   -0.000125
     13          6           0       -1.329892    1.102716   -0.000028
     14          6           0       -2.694412    0.786147    0.000025
     15          6           0       -0.902120    2.452511   -0.000031
     16          6           0       -3.657065    1.782450    0.000097
     17          1           0       -3.003788   -0.261756    0.000029
     18          6           0       -1.893274    3.456153    0.000053
     19          6           0       -3.241922    3.119937    0.000114
     20          1           0       -4.716652    1.526925    0.000147
     21          1           0       -1.574249    4.499242    0.000049
     22          1           0       -3.988403    3.916847    0.000168
     23          6           0       -0.308550    0.067518   -0.000057
     24          8           0        0.387739    2.752695   -0.000144
     25          1           0        0.904926    1.867690   -0.000266
 ---------------------------------------------------------------------

 SCF Done:  E(RwB97XD) =  -1028.82770448     A.U. after    1 cycles

 Alpha  occ. eigenvalues --  -89.08672 -19.27301 -14.47256 -10.39433 -10.37220
 Alpha  occ. eigenvalues --  -10.35257 -10.34756 -10.32324 -10.31890 -10.31886
 Alpha  occ. eigenvalues --  -10.31797 -10.31655 -10.31598 -10.31415 -10.30166
 Alpha  occ. eigenvalues --  -10.30134  -8.10784  -6.05629  -6.05269  -6.04835
 Alpha  occ. eigenvalues --   -1.16017  -1.09087  -0.97376  -0.96227  -0.91954
 Alpha  occ. eigenvalues --   -0.88644  -0.85555  -0.84465  -0.82995  -0.75536
 Alpha  occ. eigenvalues --   -0.71514  -0.70638  -0.69414  -0.68131  -0.63313
 Alpha  occ. eigenvalues --   -0.60698  -0.58970  -0.58361  -0.56374  -0.54543
 Alpha  occ. eigenvalues --   -0.54310  -0.53343  -0.52843  -0.50900  -0.50257
 Alpha  occ. eigenvalues --   -0.49384  -0.47325  -0.46048  -0.45438  -0.45066
 Alpha  occ. eigenvalues --   -0.44040  -0.42853  -0.42711  -0.39904  -0.36849
 Alpha  occ. eigenvalues --   -0.36246  -0.32210  -0.31679  -0.29000
 Alpha virt. eigenvalues --   -0.00508   0.04761   0.06785   0.07278   0.07887
 Alpha virt. eigenvalues --    0.11329   0.14524   0.15184   0.16909   0.18019
 Alpha virt. eigenvalues --    0.18973   0.21042   0.21697   0.22606   0.22644

 Mulliken charges:
               1
     1  C    0.015149
     2  C   -0.217217
     3  C    0.231489
     4  C   -0.016638
     5  C    0.004388
     6  C    0.002540
     7  H    0.018734
     8  H    0.020676
     9  H    0.020845
    10  H    0.021840
    11  N   -0.353557
    12  S    0.153376
    13  C   -0.055863
    14  C   -0.028493
    15  C    0.077749
    16  C   -0.008208
    17  H    0.017122
    18  C   -0.000704
    19  C    0.021244
    20  H    0.009075
    21  H    0.015414
    22  H    0.018537
    23  C    0.086177
    24  O   -0.227815
    25  H    0.174141
 Sum of Mulliken charges =  -0.00000

 Dipole moment (field-independent basis, Debye):
    X=             -0.0147    Y=             -2.8802    Z=             -0.0001  Tot=              2.8803
 Quadrupole moment (field-independent basis, Debye-Ang):
   XX=            -82.7018   YY=            -90.4524   ZZ=           -104.0127
   XY=             -7.2816   XZ=             -0.0003   YZ=              0.0004

  Exact polarizability:     274.193     -68.038     254.934      -0.000       0.003      62.868
 Approx polarizability:     261.975     -23.472     242.080       0.000       0.003      82.144

                      1                      2                      3
                      A                      A                      A
 Frequencies --     19.5211                64.1002               126.1263
 Red. masses --      5.4284                 5.9373                 5.6173
 Frc consts  --      0.0012                 0.0144                 0.0526
 IR Inten    --      0.0347                 1.2575                 2.0561

                      4                      5                      6
                      A                      A                      A
 Frequencies --    151.9308               197.3537               244.5649
 Red. masses --      5.0455                 6.0452                 5.6191
 Frc consts  --      0.0686                 0.1387                 0.1980
 IR Inten    --      0.1315                 0.6706                 0.0469

                      7                      8                      9
                      A                      A                      A
 Frequencies --    276.2766               326.3643               329.3459
 Red. masses --      7.4236                 6.2940                 5.1163
 Frc consts  --      0.3339                 0.3950                 0.3270
 IR Inten    --      0.7779                10.4147                 0.1115

                     10                     11                     12
                      A                      A                      A
 Frequencies --    418.5514               436.6352               464.2241
 Red. masses --     10.2271                 3.1070                 3.6126
 Frc consts  --      1.0556                 0.3490                 0.4587
 IR Inten    --      0.0251                 1.8028                 8.1606

                     13                     14                     15
                      A                      A                      A
 Frequencies --    516.7478               524.4103               537.5645
 Red. masses --      8.2097                 5.6752                 3.4641
 Frc consts  --      1.2916                 0.9195                 0.5898
 IR Inten    --      0.5179                16.0077                 3.4836

                     16                     17                     18
                      A                      A                      A
 Frequencies --    557.0798               576.0540               591.1574
 Red. masses --      7.3361                 3.7264                 7.6507
 Frc consts  --      1.3414                 0.7286                 1.5753
 IR Inten    --      3.9661                 0.0420                 3.7163

                     19                     20                     21
                      A                      A                      A
 Frequencies --    647.8450               683.9066               729.0358
 Red. masses --      6.2825                 6.5199                 6.5367
 Frc consts  --      1.5536                 1.7967                 2.0469
 IR Inten    --      0.0029                 5.2698                19.0400

                     22                     23                     24
                      A                      A                      A
 Frequencies --    756.0889               757.8349               767.5885
 Red. masses --      1.9730                10.2131                 3.2493
 Frc consts  --      0.6645                 3.4559                 1.1280
 IR Inten    --     28.3638                18.6250                 1.0959

                     25                     26                     27
                      A                      A                      A
 Frequencies --    774.9131               785.6303               852.8251
 Red. masses --      1.3522                 1.9445                 5.9489
 Frc consts  --      0.4784                 0.7071                 2.5492
 IR Inten    --     59.8480                39.7159                16.0965

                     28                     29                     30
                      A                      A                      A
 Frequencies --    882.3875               886.7788               899.7363
 Red. masses --      1.5641                 1.4115                 6.6881
 Frc consts  --      0.7175                 0.6540                 3.1899
 IR Inten    --      5.3098                 0.2817                 3.9185

                     31                     32                     33
                      A                      A                      A
 Frequencies --    967.4398               975.0682               979.6730
 Red. masses --      1.3612                 1.3409                 1.0866
 Frc consts  --      0.7506                 0.7511                 0.6144
 IR Inten    --      2.8318                 0.8683                73.9849

                     34                     35                     36
                      A                      A                      A
 Frequencies --   1006.7561              1011.0031              1015.5073
 Red. masses --      7.6095                 1.3031                 1.3053
 Frc consts  --      4.5442                 0.7847                 0.7931
 IR Inten    --     48.2991                 0.8943                 0.0908

                     37                     38                     39
                      A                      A                      A
 Frequencies --   1052.3693              1068.2686              1105.0385
 Red. masses --      1.9987                 1.9018                 3.5680
 Frc consts  --      1.3042                 1.2787                 2.5670
 IR Inten    --      8.9792                 8.9750                 5.5254

                     40                     41                     42
                      A                      A                      A
 Frequencies --   1153.1399              1157.4127              1174.8917
 Red. masses --      1.4499                 1.3663                 1.1266
 Frc consts  --      1.1359                 1.0784                 0.9163
 IR Inten    --      9.6466                 2.9470                40.1609

                     43                     44                     45
                      A                      A                      A
 Frequencies --   1183.9996              1260.3994              1286.5540
 Red. masses --      1.2323                 1.8974                 1.6666
 Frc consts  --      1.0178                 1.7759                 1.6253
 IR Inten    --      0.3428                75.9749                 7.0762

                     46                     47                     48
                      A                      A                      A
 Frequencies --   1298.3834              1323.5177              1359.6911
 Red. masses --      3.0498                 2.7547                 3.9968
 Frc consts  --      3.0292                 2.8431                 4.3536
 IR Inten    --    200.0528                26.8504                16.6447

                     49                     50                     51
                      A                      A                      A
 Frequencies --   1376.9500              1379.0833              1483.9235
 Red. masses --      6.0624                 5.0000                 2.6519
 Frc consts  --      6.7722                 5.6027                 3.4406
 IR Inten    --     14.2021                11.8110                12.0590

                     52                     53                     54
                      A                      A                      A
 Frequencies --   1492.1242              1503.8510              1527.9469
 Red. masses --      2.5847                 2.8594                 4.0540
 Frc consts  --      3.3906                 3.8101                 5.5764
 IR Inten    --     34.3874                14.7241               114.5620

                     55                     56                     57
                      A                      A                      A
 Frequencies --   1577.9858              1602.9144              1652.0843
 Red. masses --      5.9272                 2.5969                 6.9272
 Frc consts  --      8.6957                 3.9312                11.1396
 IR Inten    --    284.8279                10.5486                 7.1564

                     58                     59                     60
                      A                      A                      A
 Frequencies --   1677.4557              1693.4298              1717.2025
 Red. masses --      6.8169                 4.0166                 2.3223
 Frc consts  --     11.3016                 6.7865                 4.0347
 IR Inten    --     32.0157               190.3085               209.6636

                     61                     62                     63
                      A                      A                      A
 Frequencies --   2673.7685              3201.4458              3209.9094
 Red. masses --      1.0812                 1.0882                 1.0890
 Frc consts  --      4.5541                 6.5714                 6.6111
 IR Inten    --   1423.3190                 3.7419                 6.7422

                     64                     65                     66
                      A                      A                      A
 Frequencies --   3211.5491              3222.0802              3229.0942
 Red. masses --      1.0861                 1.0905                 1.0939
 Frc consts  --      6.6000                 6.6706                 6.7201
 IR Inten    --      1.5462                 3.4052                13.0717

                     67                     68                     69
                      A                      A                      A
 Frequencies --   3232.1281              3237.3321              3238.3683
 Red. masses --      1.0959                 1.0991                 1.0997
 Frc consts  --      6.7455                 6.7868                 6.7949
 IR Inten    --      9.0719                18.7461                12.3209

 - Thermochemistry -
 -------------------
 Temperature   298.150 Kelvin.  Pressure   1.00000 Atm.
 Atom     1 has atomic number  6 and mass  12.00000

 Molecular mass:   227.04049 amu.
 Principal axes and moments of inertia in atomic units:
                           1         2         3
     Eigenvalues --  1283.415256294.668297578.08353
           X           -0.70339   0.71080  -0.00000
           Y            0.71080   0.70339  -0.00001
           Z            0.00001   0.00001   1.00000
 This molecule is an asymmetric top.
 Rotational symmetry number  1.
 Warning -- assumption of classical behavior for rotation
           may cause significant error
 Rotational temperatures (Kelvin)      0.06749     0.01376     0.01143
 Rotational constants (GHZ):           1.40620     0.28671     0.23815
 Zero-point vibrational energy     498258.5 (Joules/Mol)
                                  119.08664 (Kcal/Mol)
 Warning -- explicit consideration of  18 degrees of freedom as
           vibrations may cause significant error
 Vibrational temperatures:     28.09    92.23   181.47   218.59   283.95
          (Kelvin)            351.87   397.50   469.57   473.86   602.20
                              628.22   667.91   743.48   754.51   773.44
                              801.51   828.81   850.54   932.10   983.99
                             1048.92  1087.84  1090.36  1104.39  1114.93
                             1130.35  1227.03  1269.56  1275.88  1294.52
                             1391.93  1402.91  1409.53  1448.50  1454.61
                             1461.09  1514.12  1537.00  1589.90  1659.11
                             1665.26  1690.41  1703.51  1813.43  1851.06
                             1868.08  1904.25  1956.29  1981.12  1984.19
                             2135.03  2146.83  2163.71  2198.37  2270.37
                             2306.24  2376.98  2413.48  2436.47  2470.67
                             3846.96  4606.17  4618.34  4620.70  4635.85
                             4645.95  4650.31  4657.80  4659.29

 Zero-point correction=                           0.189777 (Hartree/Particle)
 Thermal correction to Energy=                    0.201407
 Thermal correction to Enthalpy=                  0.202351
 Thermal correction to Gibbs Free Energy=         0.150523
 Sum of electronic and zero-point Energies=          -1028.637928
 Sum of electronic and thermal Energies=             -1028.626298
 Sum of electronic and thermal Enthalpies=           -1028.625354
 Sum of electronic and thermal Free Energies=        -1028.677182

                     E (Thermal)             CV                S
                      KCal/Mol        Cal/Mol-Kelvin    Cal/Mol-Kelvin
 Total                  126.385             47.156            109.082
 Electronic               0.000              0.000              0.000
 Translational            0.889              2.981             42.162
 Rotational               0.889              2.981             32.482
 Vibrational            124.607             41.194             34.438
 Vibration     1          0.593              1.986              6.682
 Vibration     2          0.597              1.971              4.327
 Vibration     3          0.611              1.927              3.004
 Vibration     4          0.619              1.901              2.648
 Vibration     5          0.637              1.844              2.158
 Vibration     6          0.660              1.772              1.769
 Vibration     7          0.678              1.717              1.557
 Vibration     8          0.710              1.623              1.278
 Vibration     9          0.712              1.617              1.263
 Vibration    10          0.781              1.430              0.897
 Vibration    11          0.797              1.390              0.837
 Vibration    12          0.822              1.329              0.754
 Vibration    13          0.872              1.213              0.618
 Vibration    14          0.879              1.196              0.600
 Vibration    15          0.893              1.167              0.571
 Vibration    16          0.913              1.124              0.530
 Vibration    17          0.932              1.083              0.493
 Vibration    18          0.949              1.051              0.465

 Optimization completed.
    -- Stationary point found.
 Normal termination of Gaussian 16 at Wed Oct 28 01:01:02 2020.
