 Gaussian 16, Revision C.01,
 Gaussian 16:  ES64L-G16RevC.01  3-Jul-2019

 ----------------------------------------------------------------------
 #p opt=addgic freq wb97xd/cc-pvdz nosymm int=ultrafine scrf=(solvent=C
 arbonTetraChloride)
 ----------------------------------------------------------------------

 ------------------------------------------------
 NM 2D-scan of HBT TD-WB97XD pVDZ in CTC Relaxed.
 ------------------------------------------------
 Symbolic Z-matrix:
 Charge =  0 Multiplicity = 1

 SCF Done:  E(RwB97XD) =  -1028.78090586     A.U. after   16 cycles
 SCF Done:  E(RwB97XD) =  -1028.80724000     A.U. after   13 cycles
 SCF Done:  E(RwB97XD) =  -1028.80825847     A.U. after   13 cycles
 SCF Done:  E(RwB97XD) =  -1028.80928789     A.U. after   12 cycles
 SCF Done:  E(RwB97XD) =  -1028.80946763     A.U. after   11 cycles
 SCF Done:  E(RwB97XD) =  -1028.80947267     A.U. after    9 cycles
 Optimization completed.
    -- Stationary point found.
 Normal termination of Gaussian 16 at Tue Oct 27 21:47:58 2020.

 --------------------------------------------------------------------
 #P Geom=AllCheck Guess=TCheck SCRF=Check GenChk RwB97XD/CC-pVDZ Freq
 --------------------------------------------------------------------

 Structure from the checkpoint file:  "config_10_6.chk"
 ------------------------------------------------
 NM 2D-scan of HBT TD-WB97XD pVDZ in CTC Relaxed.
 ------------------------------------------------
 Charge =  0 Multiplicity = 1

                          Input orientation:
 ---------------------------------------------------------------------
 Center     Atomic      Atomic             Coordinates (Angstroms)
 Number     Number       Type             X           Y           Z
 ---------------------------------------------------------------------
      1          6           0        1.696146   -3.269698   -0.000036
      2          6           0        1.007179   -2.059016   -0.000021
      3          6           0        1.706064   -0.855371   -0.000007
      4          6           0        3.099144   -0.806419   -0.000004
      5          6           0        3.782896   -2.016264   -0.000017
      6          6           0        3.089318   -3.232953   -0.000034
      7          1           0        1.163616   -4.220746   -0.000048
      8          1           0        3.621632    0.150369    0.000008
      9          1           0        4.873503   -2.015883   -0.000016
     10          1           0        3.645942   -4.170687   -0.000045
     11          7           0        0.844669    0.215334   -0.000002
     12         16           0       -0.740810   -1.745382   -0.000014
     13          6           0       -1.394825    1.066442    0.000005
     14          6           0       -2.800521    0.873876    0.000005
     15          6           0       -0.826009    2.417564    0.000021
     16          6           0       -3.671823    1.937020    0.000030
     17          1           0       -3.195355   -0.146512   -0.000012
     18          6           0       -1.799812    3.491027    0.000048
     19          6           0       -3.149724    3.257951    0.000055
     20          1           0       -4.748891    1.769231    0.000031
     21          1           0       -1.398651    4.506112    0.000061
     22          1           0       -3.841554    4.104116    0.000075
     23          6           0       -0.470535   -0.014510   -0.000006
     24          8           0        0.409953    2.644736   -0.000005
     25          1           0        1.144476    1.194993    0.000009
 ---------------------------------------------------------------------

 SCF Done:  E(RwB97XD) =  -1028.80947267     A.U. after    1 cycles

 Alpha  occ. eigenvalues --  -89.10162 -19.21676 -14.51210 -10.41452 -10.36911
 Alpha  occ. eigenvalues --  -10.36231 -10.36001 -10.33349 -10.32869 -10.32536
 Alpha  occ. eigenvalues --  -10.32302 -10.31227 -10.30827 -10.30673 -10.29133
 Alpha  occ. eigenvalues --  -10.28575  -8.12146  -6.07033  -6.06648  -6.06154
 Alpha  occ. eigenvalues --   -1.13349  -1.10063  -0.98555  -0.95115  -0.93147
 Alpha  occ. eigenvalues --   -0.89307  -0.86467  -0.84008  -0.81847  -0.75757
 Alpha  occ. eigenvalues --   -0.73136  -0.71751  -0.69246  -0.67960  -0.64648
 Alpha  occ. eigenvalues --   -0.60888  -0.59766  -0.56747  -0.55951  -0.55832
 Alpha  occ. eigenvalues --   -0.54993  -0.53631  -0.52962  -0.50561  -0.49701
 Alpha  occ. eigenvalues --   -0.49078  -0.48191  -0.46709  -0.45593  -0.44800
 Alpha  occ. eigenvalues --   -0.44519  -0.43007  -0.41790  -0.40498  -0.36814
 Alpha  occ. eigenvalues --   -0.33544  -0.32002  -0.31650  -0.26452
 Alpha virt. eigenvalues --   -0.01264   0.03788   0.06113   0.06699   0.09197
 Alpha virt. eigenvalues --    0.11077   0.12944   0.14666   0.16009   0.17335
 Alpha virt. eigenvalues --    0.18962   0.20086   0.21210   0.21635   0.23058

 Mulliken charges:
               1
     1  C    0.011746
     2  C   -0.246806
     3  C    0.259196
     4  C   -0.009794
     5  C    0.012310
     6  C    0.002020
     7  H    0.025365
     8  H    0.031992
     9  H    0.027159
    10  H    0.026005
    11  N   -0.116892
    12  S    0.181802
    13  C   -0.130120
    14  C   -0.005574
    15  C    0.114492
    16  C   -0.032620
    17  H    0.002903
    18  C   -0.021692
    19  C    0.027283
    20  H    0.002879
    21  H    0.001901
    22  H    0.013457
    23  C    0.080035
    24  O   -0.392495
    25  H    0.135448
 Sum of Mulliken charges =  -0.00000

 Dipole moment (field-independent basis, Debye):
    X=              1.7269    Y=             -5.0588    Z=              0.0000  Tot=              5.3454
 Quadrupole moment (field-independent basis, Debye-Ang):
   XX=            -82.2104   YY=            -94.4374   ZZ=           -104.0363
   XY=             -6.9509   XZ=             -0.0000   YZ=              0.0003

  Exact polarizability:     287.524     -86.342     284.953      -0.001       0.003      62.973
 Approx polarizability:     267.161     -33.157     255.891      -0.001       0.002      82.026

                      1                      2                      3
                      A                      A                      A
 Frequencies --     49.7329                66.5687               112.2906
 Red. masses --      4.8559                 6.2785                 5.6567
 Frc consts  --      0.0071                 0.0164                 0.0420
 IR Inten    --      0.0120                 2.6497                 1.2121

                      4                      5                      6
                      A                      A                      A
 Frequencies --    133.7854               196.5019               233.7977
 Red. masses --      5.2383                 6.0098                 6.0118
 Frc consts  --      0.0552                 0.1367                 0.1936
 IR Inten    --      1.0053                 0.0000                 0.7421

                      7                      8                      9
                      A                      A                      A
 Frequencies --    266.8958               308.2113               321.1685
 Red. masses --      7.4576                 5.3532                 6.3207
 Frc consts  --      0.3130                 0.2996                 0.3841
 IR Inten    --      4.9397                 1.2956                 6.4826

                     10                     11                     12
                      A                      A                      A
 Frequencies --    400.2893               429.7167               447.4693
 Red. masses --     10.2743                 3.2596                 3.5894
 Frc consts  --      0.9700                 0.3546                 0.4234
 IR Inten    --      4.4048                 0.5188                10.2471

                     13                     14                     15
                      A                      A                      A
 Frequencies --    506.8942               530.1571               539.4930
 Red. masses --      8.3270                 2.8282                 8.5695
 Frc consts  --      1.2606                 0.4683                 1.4695
 IR Inten    --      9.0529                 6.1672                 8.3248

                     16                     17                     18
                      A                      A                      A
 Frequencies --    558.9117               562.1102               585.6796
 Red. masses --      6.6446                 3.7547                 7.0129
 Frc consts  --      1.2229                 0.6990                 1.4173
 IR Inten    --      1.4535                 0.0040                36.6414

                     19                     20                     21
                      A                      A                      A
 Frequencies --    634.7868               656.1920               706.8581
 Red. masses --      5.4483                 5.7085                 6.2527
 Frc consts  --      1.2935                 1.4482                 1.8407
 IR Inten    --      0.5751                 5.4516                33.7923

                     22                     23                     24
                      A                      A                      A
 Frequencies --    739.2202               751.4200               760.7156
 Red. masses --      8.3297                 2.6618                 1.5395
 Frc consts  --      2.6818                 0.8855                 0.5249
 IR Inten    --     59.0989                 7.0200                53.7303

                     25                     26                     27
                      A                      A                      A
 Frequencies --    772.7864               777.3604               825.4813
 Red. masses --      1.8912                 1.5643                 1.1916
 Frc consts  --      0.6654                 0.5570                 0.4784
 IR Inten    --     18.1774                33.5363                72.4845

                     28                     29                     30
                      A                      A                      A
 Frequencies --    833.9566               879.2092               881.9473
 Red. masses --      5.9391                 1.9514                 3.9795
 Frc consts  --      2.4336                 0.8888                 1.8237
 IR Inten    --     20.5925                21.1550                 4.0936

                     31                     32                     33
                      A                      A                      A
 Frequencies --    883.4196               958.5641               969.2841
 Red. masses --      1.3826                 4.6034                 1.3226
 Frc consts  --      0.6357                 2.4922                 0.7321
 IR Inten    --      3.4879                42.9511                 0.2573

                     34                     35                     36
                      A                      A                      A
 Frequencies --    972.4983              1015.4716              1016.4221
 Red. masses --      1.3574                 1.3029                 1.3044
 Frc consts  --      0.7564                 0.7916                 0.7940
 IR Inten    --      1.4951                 0.0179                 0.3890

                     37                     38                     39
                      A                      A                      A
 Frequencies --   1043.0513              1055.6559              1080.9728
 Red. masses --      2.1626                 2.0663                 3.7443
 Frc consts  --      1.3862                 1.3567                 2.5778
 IR Inten    --     11.0511                12.5743                30.9708

                     40                     41                     42
                      A                      A                      A
 Frequencies --   1119.3721              1154.5346              1159.7947
 Red. masses --      2.1823                 1.3356                 1.1980
 Frc consts  --      1.6111                 1.0489                 0.9494
 IR Inten    --    107.0919                 5.7911                66.8843

                     43                     44                     45
                      A                      A                      A
 Frequencies --   1183.0358              1193.3487              1258.0377
 Red. masses --      1.1435                 1.2419                 1.8737
 Frc consts  --      0.9430                 1.0420                 1.7472
 IR Inten    --     12.3041                15.8004                 7.7029

                     46                     47                     48
                      A                      A                      A
 Frequencies --   1289.8189              1307.6879              1368.5190
 Red. masses --      1.5443                 2.7645                 2.9174
 Frc consts  --      1.5137                 2.7853                 3.2192
 IR Inten    --      8.6155               145.0528                43.1607

                     49                     50                     51
                      A                      A                      A
 Frequencies --   1386.0428              1390.6327              1419.0458
 Red. masses --      6.4809                 5.9183                 2.3802
 Frc consts  --      7.3356                 6.7433                 2.8240
 IR Inten    --     54.0195                72.1672                16.0531

                     52                     53                     54
                      A                      A                      A
 Frequencies --   1492.8775              1506.1033              1526.0618
 Red. masses --      2.7210                 2.8640                 3.2211
 Frc consts  --      3.5729                 3.8277                 4.4198
 IR Inten    --     30.5742               408.2800               176.7452

                     55                     56                     57
                      A                      A                      A
 Frequencies --   1563.9865              1604.0357              1629.1441
 Red. masses --      4.3457                 5.8084                 7.3844
 Frc consts  --      6.2629                 8.8051                11.5474
 IR Inten    --   1228.8384               262.2404               234.2550

                     58                     59                     60
                      A                      A                      A
 Frequencies --   1679.3759              1685.3143              1713.9926
 Red. masses --      7.2619                 7.2313                 6.8157
 Frc consts  --     12.0669                12.1013                11.7971
 IR Inten    --      1.2290               195.5695               245.8110

                     61                     62                     63
                      A                      A                      A
 Frequencies --   3178.6786              3192.0081              3217.1940
 Red. masses --      1.0895                 1.0880                 1.0866
 Frc consts  --      6.4861                 6.5314                 6.6265
 IR Inten    --      5.0577                15.3511                 1.8738

                     64                     65                     66
                      A                      A                      A
 Frequencies --   3219.3769              3227.8728              3232.3911
 Red. masses --      1.0944                 1.0908                 1.0968
 Frc consts  --      6.6833                 6.6961                 6.7522
 IR Inten    --     24.1409                 2.3019                19.4261

                     67                     68                     69
                      A                      A                      A
 Frequencies --   3236.5550              3243.3865              3318.7813
 Red. masses --      1.0965                 1.0999                 1.0884
 Frc consts  --      6.7674                 6.8169                 7.0633
 IR Inten    --      4.4809                12.3576               307.0980

 - Thermochemistry -
 -------------------
 Temperature   298.150 Kelvin.  Pressure   1.00000 Atm.
 Atom     1 has atomic number  6 and mass  12.00000

 Molecular mass:   227.04049 amu.
 Principal axes and moments of inertia in atomic units:
                           1         2         3
     Eigenvalues --  1307.819096325.691267633.51035
           X           -0.70492   0.70928   0.00000
           Y            0.70928   0.70492  -0.00001
           Z            0.00001   0.00000   1.00000
 This molecule is an asymmetric top.
 Rotational symmetry number  1.
 Warning -- assumption of classical behavior for rotation
           may cause significant error
 Rotational temperatures (Kelvin)      0.06623     0.01369     0.01135
 Rotational constants (GHZ):           1.37996     0.28530     0.23642
 Zero-point vibrational energy     497418.9 (Joules/Mol)
                                  118.88598 (Kcal/Mol)
 Warning -- explicit consideration of  18 degrees of freedom as
           vibrations may cause significant error
 Vibrational temperatures:     71.55    95.78   161.56   192.49   282.72
          (Kelvin)            336.38   384.00   443.45   462.09   575.93
                              618.27   643.81   729.31   762.78   776.21
                              804.15   808.75   842.66   913.32   944.11
                             1017.01  1063.57  1081.13  1094.50  1111.87
                             1118.45  1187.68  1199.88  1264.99  1268.93
                             1271.04  1379.16  1394.58  1399.21  1461.04
                             1462.40  1500.72  1518.85  1555.28  1610.53
                             1661.12  1668.69  1702.12  1716.96  1810.04
                             1855.76  1881.47  1968.99  1994.21  2000.81
                             2041.69  2147.92  2166.95  2195.66  2250.23
                             2307.85  2343.98  2416.25  2424.79  2466.05
                             4573.41  4592.59  4628.82  4631.97  4644.19
                             4650.69  4656.68  4666.51  4774.99

 Zero-point correction=                           0.189457 (Hartree/Particle)
 Thermal correction to Energy=                    0.201291
 Thermal correction to Enthalpy=                  0.202235
 Thermal correction to Gibbs Free Energy=         0.150729
 Sum of electronic and zero-point Energies=          -1028.620016
 Sum of electronic and thermal Energies=             -1028.608182
 Sum of electronic and thermal Enthalpies=           -1028.607238
 Sum of electronic and thermal Free Energies=        -1028.658744

                     E (Thermal)             CV                S
                      KCal/Mol        Cal/Mol-Kelvin    Cal/Mol-Kelvin
 Total                  126.312             48.081            108.403
 Electronic               0.000              0.000              0.000
 Translational            0.889              2.981             42.162
 Rotational               0.889              2.981             32.513
 Vibrational            124.534             42.119             33.729
 Vibration     1          0.595              1.978              4.828
 Vibration     2          0.598              1.970              4.252
 Vibration     3          0.607              1.939              3.229
 Vibration     4          0.613              1.920              2.891
 Vibration     5          0.636              1.845              2.166
 Vibration     6          0.654              1.789              1.850
 Vibration     7          0.672              1.734              1.616
 Vibration     8          0.698              1.658              1.372
 Vibration     9          0.707              1.633              1.304
 Vibration    10          0.766              1.469              0.962
 Vibration    11          0.791              1.406              0.860
 Vibration    12          0.807              1.366              0.803
 Vibration    13          0.862              1.235              0.641
 Vibration    14          0.885              1.183              0.587
 Vibration    15          0.895              1.163              0.566
 Vibration    16          0.914              1.120              0.526
 Vibration    17          0.918              1.113              0.520
 Vibration    18          0.943              1.062              0.475

 Optimization completed.
    -- Stationary point found.
 Normal termination of Gaussian 16 at Tue Oct 27 21:54:56 2020.
