 Gaussian 16, Revision C.01,
 Gaussian 16:  ES64L-G16RevC.01  3-Jul-2019

 ----------------------------------------------------------------------
 #p opt=addgic freq wb97xd/cc-pvdz nosymm int=ultrafine scrf=(solvent=C
 arbonTetraChloride)
 ----------------------------------------------------------------------

 ------------------------------------------------
 NM 2D-scan of HBT TD-WB97XD pVDZ in CTC Relaxed.
 ------------------------------------------------
 Symbolic Z-matrix:
 Charge =  0 Multiplicity = 1

 SCF Done:  E(RwB97XD) =  -1028.81072265     A.U. after   15 cycles
 SCF Done:  E(RwB97XD) =  -1028.82017957     A.U. after   13 cycles
 SCF Done:  E(RwB97XD) =  -1028.82097513     A.U. after   12 cycles
 SCF Done:  E(RwB97XD) =  -1028.82101243     A.U. after   11 cycles
 SCF Done:  E(RwB97XD) =  -1028.82109520     A.U. after   10 cycles
 SCF Done:  E(RwB97XD) =  -1028.82109897     A.U. after    9 cycles
 SCF Done:  E(RwB97XD) =  -1028.82109879     A.U. after    8 cycles
 SCF Done:  E(RwB97XD) =  -1028.82109927     A.U. after    8 cycles
 Optimization completed.
    -- Stationary point found.
 Normal termination of Gaussian 16 at Wed Oct 28 02:34:06 2020.

 --------------------------------------------------------------------
 #P Geom=AllCheck Guess=TCheck SCRF=Check GenChk RwB97XD/CC-pVDZ Freq
 --------------------------------------------------------------------

 Structure from the checkpoint file:  "config_4_19.chk"
 ------------------------------------------------
 NM 2D-scan of HBT TD-WB97XD pVDZ in CTC Relaxed.
 ------------------------------------------------
 Charge =  0 Multiplicity = 1

                          Input orientation:
 ---------------------------------------------------------------------
 Center     Atomic      Atomic             Coordinates (Angstroms)
 Number     Number       Type             X           Y           Z
 ---------------------------------------------------------------------
      1          6           0        1.508680   -3.249718   -0.000176
      2          6           0        1.007008   -1.953224   -0.000115
      3          6           0        1.807480   -0.799468    0.000030
      4          6           0        3.201501   -0.977840    0.000118
      5          6           0        3.714528   -2.276701    0.000064
      6          6           0        2.883965   -3.407659   -0.000082
      7          1           0        0.832968   -4.105412   -0.000285
      8          1           0        3.870953   -0.116794    0.000237
      9          1           0        4.797056   -2.413741    0.000140
     10          1           0        3.319589   -4.407555   -0.000118
     11          7           0        1.042803    0.377656    0.000093
     12         16           0       -0.675767   -1.539470   -0.000177
     13          6           0       -1.299181    1.123714    0.000069
     14          6           0       -2.642044    0.734143    0.000168
     15          6           0       -0.918880    2.480381   -0.000036
     16          6           0       -3.653246    1.679627    0.000150
     17          1           0       -2.901595   -0.326355    0.000272
     18          6           0       -1.962305    3.437383   -0.000066
     19          6           0       -3.296805    3.032990    0.000021
     20          1           0       -4.699301    1.373436    0.000230
     21          1           0       -1.705004    4.497541   -0.000167
     22          1           0       -4.079468    3.794606   -0.000008
     23          6           0       -0.246189    0.126588    0.000025
     24          8           0        0.368500    2.781667   -0.000140
     25          1           0        0.904017    1.889280   -0.000129
 ---------------------------------------------------------------------

 SCF Done:  E(RwB97XD) =  -1028.82109927     A.U. after    1 cycles

 Alpha  occ. eigenvalues --  -89.08451 -19.27227 -14.47571 -10.39334 -10.37225
 Alpha  occ. eigenvalues --  -10.35558 -10.34584 -10.32226 -10.32104 -10.31773
 Alpha  occ. eigenvalues --  -10.31691 -10.31637 -10.31627 -10.31496 -10.30315
 Alpha  occ. eigenvalues --  -10.30189  -8.10666  -6.05500  -6.05138  -6.04720
 Alpha  occ. eigenvalues --   -1.15869  -1.09025  -0.97442  -0.96369  -0.92227
 Alpha  occ. eigenvalues --   -0.88662  -0.85717  -0.84486  -0.82950  -0.75536
 Alpha  occ. eigenvalues --   -0.71659  -0.70798  -0.69387  -0.67924  -0.63443
 Alpha  occ. eigenvalues --   -0.60781  -0.59070  -0.58410  -0.56429  -0.54584
 Alpha  occ. eigenvalues --   -0.54407  -0.53489  -0.52941  -0.50860  -0.50271
 Alpha  occ. eigenvalues --   -0.49229  -0.47057  -0.46116  -0.45510  -0.45116
 Alpha  occ. eigenvalues --   -0.44161  -0.42886  -0.42638  -0.39932  -0.36838
 Alpha  occ. eigenvalues --   -0.36268  -0.32204  -0.31684  -0.29058
 Alpha virt. eigenvalues --   -0.00531   0.04749   0.06654   0.07266   0.08181
 Alpha virt. eigenvalues --    0.11271   0.14739   0.15247   0.17477   0.18040
 Alpha virt. eigenvalues --    0.19063   0.21133   0.21622   0.22556   0.22614

 Mulliken charges:
               1
     1  C    0.020332
     2  C   -0.211829
     3  C    0.223727
     4  C   -0.021294
     5  C    0.001783
     6  C    0.004694
     7  H    0.018495
     8  H    0.022300
     9  H    0.021334
    10  H    0.021869
    11  N   -0.361131
    12  S    0.155643
    13  C   -0.046617
    14  C   -0.035471
    15  C    0.083887
    16  C   -0.007554
    17  H    0.023380
    18  C   -0.008218
    19  C    0.021582
    20  H    0.008945
    21  H    0.015884
    22  H    0.018963
    23  C    0.088493
    24  O   -0.240135
    25  H    0.180938
 Sum of Mulliken charges =  -0.00000

 Dipole moment (field-independent basis, Debye):
    X=             -0.1395    Y=             -3.0839    Z=             -0.0000  Tot=              3.0870
 Quadrupole moment (field-independent basis, Debye-Ang):
   XX=            -82.6436   YY=            -90.7485   ZZ=           -103.9518
   XY=             -7.3671   XZ=              0.0001   YZ=              0.0004

  Exact polarizability:     273.377     -68.606     253.939       0.001       0.002      62.808
 Approx polarizability:     261.294     -23.449     241.660       0.002       0.002      82.138

 ******    1 imaginary frequencies (negative Signs) ******

                      1                      2                      3
                      A                      A                      A
 Frequencies --    -41.4836                65.3726               129.8791
 Red. masses --      5.4237                 6.0483                 5.6217
 Frc consts  --      0.0055                 0.0152                 0.0559
 IR Inten    --      0.0263                 1.1844                 3.0261

                      4                      5                      6
                      A                      A                      A
 Frequencies --    150.7567               196.9427               243.7902
 Red. masses --      5.0178                 6.1633                 5.4938
 Frc consts  --      0.0672                 0.1408                 0.1924
 IR Inten    --      0.2352                 0.7100                 0.0409

                      7                      8                      9
                      A                      A                      A
 Frequencies --    280.2788               329.2972               330.5178
 Red. masses --      7.3725                 6.1894                 5.0946
 Frc consts  --      0.3412                 0.3954                 0.3279
 IR Inten    --      0.7557                13.5089                 0.0293

                     10                     11                     12
                      A                      A                      A
 Frequencies --    428.6360               435.9657               462.9935
 Red. masses --     10.6201                 3.0820                 3.5484
 Frc consts  --      1.1496                 0.3451                 0.4482
 IR Inten    --      0.0503                 1.4507                 8.3953

                     13                     14                     15
                      A                      A                      A
 Frequencies --    515.6189               526.0830               536.2316
 Red. masses --      7.3245                 6.6521                 3.4550
 Frc consts  --      1.1473                 1.0847                 0.5853
 IR Inten    --      4.5780                15.8411                 3.4053

                     16                     17                     18
                      A                      A                      A
 Frequencies --    564.1697               577.2085               589.5863
 Red. masses --      6.9690                 3.7460                 7.5812
 Frc consts  --      1.3069                 0.7353                 1.5527
 IR Inten    --      5.4507                 0.0444                 2.4438

                     19                     20                     21
                      A                      A                      A
 Frequencies --    647.8190               683.4218               739.6174
 Red. masses --      6.3211                 6.6124                 6.4507
 Frc consts  --      1.5630                 1.8197                 2.0791
 IR Inten    --      0.0102                 4.1661                15.1904

                     22                     23                     24
                      A                      A                      A
 Frequencies --    756.6388               767.8552               770.5992
 Red. masses --      1.9911                 3.4271                 9.6705
 Frc consts  --      0.6716                 1.1905                 3.3834
 IR Inten    --     29.4318                 0.3201                22.6641

                     25                     26                     27
                      A                      A                      A
 Frequencies --    772.6885               785.2777               855.9282
 Red. masses --      1.3345                 1.9416                 6.0041
 Frc consts  --      0.4694                 0.7054                 2.5916
 IR Inten    --     56.5286                43.6583                13.8767

                     28                     29                     30
                      A                      A                      A
 Frequencies --    879.9559               886.7964               894.6551
 Red. masses --      1.5693                 1.4045                 6.8324
 Frc consts  --      0.7160                 0.6508                 3.2221
 IR Inten    --      5.6162                 0.3832                 6.8943

                     31                     32                     33
                      A                      A                      A
 Frequencies --    964.0946               975.2023              1010.3901
 Red. masses --      1.3686                 1.3665                 1.2947
 Frc consts  --      0.7495                 0.7657                 0.7788
 IR Inten    --      1.3767                 1.3246                 0.8386

                     34                     35                     36
                      A                      A                      A
 Frequencies --   1015.4066              1016.9857              1019.3766
 Red. masses --      1.2992                 7.7318                 1.0749
 Frc consts  --      0.7892                 4.7115                 0.6581
 IR Inten    --      1.4583                38.9679                73.1113

                     37                     38                     39
                      A                      A                      A
 Frequencies --   1052.4592              1067.7815              1110.5758
 Red. masses --      2.0091                 1.8619                 3.1437
 Frc consts  --      1.3112                 1.2507                 2.2845
 IR Inten    --      9.4088                 8.0089                 4.9202

                     40                     41                     42
                      A                      A                      A
 Frequencies --   1156.6170              1162.6293              1175.2272
 Red. masses --      1.4326                 1.3933                 1.1456
 Frc consts  --      1.1292                 1.1096                 0.9322
 IR Inten    --      9.7234                 2.1263                38.2649

                     43                     44                     45
                      A                      A                      A
 Frequencies --   1185.2684              1259.5206              1279.3184
 Red. masses --      1.3040                 2.1095                 3.0779
 Frc consts  --      1.0794                 1.9717                 2.9680
 IR Inten    --      1.4727                44.0509               113.0621

                     46                     47                     48
                      A                      A                      A
 Frequencies --   1293.2566              1312.5023              1362.4138
 Red. masses --      1.7812                 2.3279                 3.2540
 Frc consts  --      1.7552                 2.3628                 3.5587
 IR Inten    --     86.7767                80.7034                30.0358

                     49                     50                     51
                      A                      A                      A
 Frequencies --   1373.4779              1381.9410              1480.2281
 Red. masses --      5.2322                 7.9229                 2.7064
 Frc consts  --      5.8154                 8.9148                 3.4938
 IR Inten    --     14.5564                 1.7759                23.3227

                     52                     53                     54
                      A                      A                      A
 Frequencies --   1492.0636              1502.6634              1535.4095
 Red. masses --      2.6329                 2.8155                 4.0531
 Frc consts  --      3.4535                 3.7456                 5.6297
 IR Inten    --     23.2375                29.5872                91.0932

                     55                     56                     57
                      A                      A                      A
 Frequencies --   1575.1617              1622.8200              1651.4259
 Red. masses --      6.8949                 3.2473                 6.9336
 Frc consts  --     10.0793                 5.0386                11.1410
 IR Inten    --    274.5891                 7.6945                 9.7214

                     58                     59                     60
                      A                      A                      A
 Frequencies --   1676.4175              1696.6396              1748.5967
 Red. masses --      6.7562                 6.7887                 1.4407
 Frc consts  --     11.1871                11.5138                 2.5955
 IR Inten    --     41.9315               184.0680               219.9339

                     61                     62                     63
                      A                      A                      A
 Frequencies --   2438.5960              3203.3607              3209.1260
 Red. masses --      1.0950                 1.0876                 1.0896
 Frc consts  --      3.8367                 6.5757                 6.6116
 IR Inten    --   1601.4490                 2.6169                 8.2121

                     64                     65                     66
                      A                      A                      A
 Frequencies --   3209.4778              3219.3448              3226.6508
 Red. masses --      1.0862                 1.0904                 1.0940
 Frc consts  --      6.5919                 6.6584                 6.7109
 IR Inten    --      1.7196                 2.2310                14.7642

                     67                     68                     69
                      A                      A                      A
 Frequencies --   3228.5401              3236.2199              3238.0098
 Red. masses --      1.0958                 1.1001                 1.0989
 Frc consts  --      6.7298                 6.7883                 6.7882
 IR Inten    --      9.2491                17.2185                13.5154

 - Thermochemistry -
 -------------------
 Temperature   298.150 Kelvin.  Pressure   1.00000 Atm.
 Atom     1 has atomic number  6 and mass  12.00000

 Molecular mass:   227.04049 amu.
 Principal axes and moments of inertia in atomic units:
                           1         2         3
     Eigenvalues --  1262.620326277.499567540.11985
           X           -0.70528   0.70893  -0.00000
           Y            0.70893   0.70528  -0.00002
           Z            0.00001   0.00002   1.00000
 This molecule is an asymmetric top.
 Rotational symmetry number  1.
 Warning -- assumption of classical behavior for rotation
           may cause significant error
 Rotational temperatures (Kelvin)      0.06860     0.01380     0.01149
 Rotational constants (GHZ):           1.42936     0.28749     0.23935
    1 imaginary frequencies ignored.
 Zero-point vibrational energy     497465.7 (Joules/Mol)
                                  118.89717 (Kcal/Mol)
 Warning -- explicit consideration of  17 degrees of freedom as
           vibrations may cause significant error
 Vibrational temperatures:     94.06   186.87   216.91   283.36   350.76
          (Kelvin)            403.26   473.79   475.54   616.71   627.26
                              666.14   741.86   756.92   771.52   811.71
                              830.47   848.28   932.07   983.29  1064.14
                             1088.63  1104.77  1108.72  1111.73  1129.84
                             1231.49  1266.06  1275.90  1287.21  1387.12
                             1403.10  1453.73  1460.94  1463.22  1466.66
                             1514.25  1536.30  1597.87  1664.11  1672.76
                             1690.89  1705.34  1812.17  1840.65  1860.71
                             1888.40  1960.21  1976.13  1988.30  2129.72
                             2146.75  2162.00  2209.11  2266.31  2334.88
                             2376.03  2411.99  2441.09  2515.84  3508.60
                             4608.92  4617.22  4617.72  4631.92  4642.43
                             4645.15  4656.20  4658.77

 Zero-point correction=                           0.189475 (Hartree/Particle)
 Thermal correction to Energy=                    0.200164
 Thermal correction to Enthalpy=                  0.201108
 Thermal correction to Gibbs Free Energy=         0.152558
 Sum of electronic and zero-point Energies=          -1028.631625
 Sum of electronic and thermal Energies=             -1028.620935
 Sum of electronic and thermal Enthalpies=           -1028.619991
 Sum of electronic and thermal Free Energies=        -1028.668541

                     E (Thermal)             CV                S
                      KCal/Mol        Cal/Mol-Kelvin    Cal/Mol-Kelvin
 Total                  125.605             45.035            102.183
 Electronic               0.000              0.000              0.000
 Translational            0.889              2.981             42.162
 Rotational               0.889              2.981             32.458
 Vibrational            123.827             39.073             27.563
 Vibration     1          0.597              1.971              4.288
 Vibration     2          0.612              1.923              2.948
 Vibration     3          0.618              1.902              2.663
 Vibration     4          0.636              1.844              2.161
 Vibration     5          0.659              1.773              1.775
 Vibration     6          0.680              1.710              1.532
 Vibration     7          0.712              1.617              1.264
 Vibration     8          0.713              1.615              1.258
 Vibration     9          0.790              1.408              0.863
 Vibration    10          0.796              1.392              0.839
 Vibration    11          0.821              1.332              0.757
 Vibration    12          0.871              1.215              0.620
 Vibration    13          0.881              1.192              0.596
 Vibration    14          0.891              1.170              0.573
 Vibration    15          0.920              1.109              0.516
 Vibration    16          0.934              1.081              0.491
 Vibration    17          0.947              1.054              0.468

 Optimization completed.
    -- Stationary point found.
 Normal termination of Gaussian 16 at Wed Oct 28 02:40:47 2020.
