 Gaussian 16, Revision C.01,
 Gaussian 16:  ES64L-G16RevC.01  3-Jul-2019

 ----------------------------------------------------------------------
 #p opt=addgic freq wb97xd/cc-pvdz nosymm int=ultrafine scrf=(solvent=C
 arbonTetraChloride)
 ----------------------------------------------------------------------

 ------------------------------------------------
 NM 2D-scan of HBT TD-WB97XD pVDZ in CTC Relaxed.
 ------------------------------------------------
 Symbolic Z-matrix:
 Charge =  0 Multiplicity = 1

 SCF Done:  E(RwB97XD) =  -1028.81854447     A.U. after   15 cycles
 SCF Done:  E(RwB97XD) =  -1028.82530999     A.U. after   13 cycles
 SCF Done:  E(RwB97XD) =  -1028.82549038     A.U. after   12 cycles
 SCF Done:  E(RwB97XD) =  -1028.82630060     A.U. after   11 cycles
 SCF Done:  E(RwB97XD) =  -1028.82639924     A.U. after   10 cycles
 SCF Done:  E(RwB97XD) =  -1028.82640077     A.U. after    9 cycles
 SCF Done:  E(RwB97XD) =  -1028.82639928     A.U. after    9 cycles
 SCF Done:  E(RwB97XD) =  -1028.82640127     A.U. after    8 cycles
 Optimization completed.
    -- Stationary point found.
 Normal termination of Gaussian 16 at Tue Oct 27 23:27:44 2020.

 --------------------------------------------------------------------
 #P Geom=AllCheck Guess=TCheck SCRF=Check GenChk RwB97XD/CC-pVDZ Freq
 --------------------------------------------------------------------

 Structure from the checkpoint file:  "config_5_10.chk"
 ------------------------------------------------
 NM 2D-scan of HBT TD-WB97XD pVDZ in CTC Relaxed.
 ------------------------------------------------
 Charge =  0 Multiplicity = 1

                          Input orientation:
 ---------------------------------------------------------------------
 Center     Atomic      Atomic             Coordinates (Angstroms)
 Number     Number       Type             X           Y           Z
 ---------------------------------------------------------------------
      1          6           0        1.634098   -3.267442   -0.000049
      2          6           0        0.998835   -2.026588   -0.000022
      3          6           0        1.723284   -0.825977    0.000002
      4          6           0        3.123205   -0.855358    0.000001
      5          6           0        3.758349   -2.091376   -0.000025
      6          6           0        3.022919   -3.286720   -0.000051
      7          1           0        1.058329   -4.193216   -0.000069
      8          1           0        3.689593    0.076391    0.000020
      9          1           0        4.848477   -2.133221   -0.000026
     10          1           0        3.546256   -4.243795   -0.000072
     11          7           0        0.913918    0.295347    0.000025
     12         16           0       -0.721095   -1.687460   -0.000012
     13          6           0       -1.362737    1.081654    0.000033
     14          6           0       -2.740009    0.824690    0.000040
     15          6           0       -0.879562    2.419358    0.000026
     16          6           0       -3.660016    1.862170    0.000035
     17          1           0       -3.091703   -0.210177    0.000046
     18          6           0       -1.831635    3.461606    0.000016
     19          6           0       -3.191353    3.182557    0.000021
     20          1           0       -4.729371    1.651073    0.000040
     21          1           0       -1.466956    4.489650    0.000008
     22          1           0       -3.905036    4.009065    0.000015
     23          6           0       -0.366446    0.020593    0.000023
     24          8           0        0.413890    2.678621    0.000028
     25          1           0        0.903406    1.758604    0.000049
 ---------------------------------------------------------------------

 SCF Done:  E(RwB97XD) =  -1028.82640127     A.U. after    1 cycles

 Alpha  occ. eigenvalues --  -89.08939 -19.26645 -14.47272 -10.39634 -10.37080
 Alpha  occ. eigenvalues --  -10.35288 -10.34941 -10.32468 -10.31935 -10.31874
 Alpha  occ. eigenvalues --  -10.31747 -10.31738 -10.31682 -10.31293 -10.30032
 Alpha  occ. eigenvalues --  -10.29906  -8.11002  -6.05855  -6.05493  -6.05051
 Alpha  occ. eigenvalues --   -1.15672  -1.09304  -0.97425  -0.96062  -0.91945
 Alpha  occ. eigenvalues --   -0.88675  -0.85549  -0.84302  -0.83058  -0.75583
 Alpha  occ. eigenvalues --   -0.71450  -0.70586  -0.69358  -0.68256  -0.63284
 Alpha  occ. eigenvalues --   -0.60751  -0.59032  -0.58205  -0.56251  -0.54521
 Alpha  occ. eigenvalues --   -0.54441  -0.53384  -0.52667  -0.50995  -0.50111
 Alpha  occ. eigenvalues --   -0.49557  -0.47308  -0.46112  -0.45362  -0.45078
 Alpha  occ. eigenvalues --   -0.43981  -0.42862  -0.42680  -0.39996  -0.36375
 Alpha  occ. eigenvalues --   -0.36258  -0.32365  -0.31610  -0.28785
 Alpha virt. eigenvalues --   -0.00549   0.04666   0.06825   0.07440   0.07668
 Alpha virt. eigenvalues --    0.11269   0.14311   0.15108   0.16551   0.17935
 Alpha virt. eigenvalues --    0.19023   0.20931   0.21761   0.22575   0.22646

 Mulliken charges:
               1
     1  C    0.013025
     2  C   -0.224603
     3  C    0.247504
     4  C   -0.013956
     5  C    0.005987
     6  C    0.002079
     7  H    0.019638
     8  H    0.021603
     9  H    0.021425
    10  H    0.022362
    11  N   -0.342226
    12  S    0.157059
    13  C   -0.071009
    14  C   -0.022649
    15  C    0.084518
    16  C   -0.011495
    17  H    0.012235
    18  C   -0.001784
    19  C    0.021440
    20  H    0.008483
    21  H    0.013734
    22  H    0.017786
    23  C    0.083397
    24  O   -0.242084
    25  H    0.177531
 Sum of Mulliken charges =  -0.00000

 Dipole moment (field-independent basis, Debye):
    X=              0.2119    Y=             -3.0405    Z=             -0.0000  Tot=              3.0479
 Quadrupole moment (field-independent basis, Debye-Ang):
   XX=            -82.7143   YY=            -90.6085   ZZ=           -104.0231
   XY=             -7.2308   XZ=             -0.0001   YZ=              0.0002

  Exact polarizability:     275.494     -68.598     256.657      -0.001       0.002      62.904
 Approx polarizability:     262.784     -23.975     242.912      -0.001       0.002      82.165

                      1                      2                      3
                      A                      A                      A
 Frequencies --     25.9896                64.3250               126.5832
 Red. masses --      5.3848                 6.0515                 5.6206
 Frc consts  --      0.0021                 0.0148                 0.0531
 IR Inten    --      0.0175                 1.3514                 2.2945

                      4                      5                      6
                      A                      A                      A
 Frequencies --    152.9574               197.6053               244.2025
 Red. masses --      5.0454                 5.9791                 5.6995
 Frc consts  --      0.0695                 0.1376                 0.2003
 IR Inten    --      0.1720                 0.5405                 0.0846

                      7                      8                      9
                      A                      A                      A
 Frequencies --    276.1402               328.1368               336.4714
 Red. masses --      7.3899                 5.1552                 6.1496
 Frc consts  --      0.3320                 0.3270                 0.4102
 IR Inten    --      0.7511                 0.2223                13.2408

                     10                     11                     12
                      A                      A                      A
 Frequencies --    416.1691               436.2107               463.1733
 Red. masses --     10.3791                 3.1176                 3.6356
 Frc consts  --      1.0591                 0.3495                 0.4595
 IR Inten    --      0.0688                 2.0207                 8.0635

                     13                     14                     15
                      A                      A                      A
 Frequencies --    516.0886               526.3027               538.7480
 Red. masses --      8.2524                 5.6888                 3.4555
 Frc consts  --      1.2950                 0.9284                 0.5909
 IR Inten    --      0.8086                22.6964                 3.5359

                     16                     17                     18
                      A                      A                      A
 Frequencies --    558.1374               575.0381               591.5031
 Red. masses --      7.1339                 3.7001                 7.6245
 Frc consts  --      1.3094                 0.7209                 1.5717
 IR Inten    --      6.7469                 0.0639                 3.0836

                     19                     20                     21
                      A                      A                      A
 Frequencies --    648.4691               686.0918               723.4454
 Red. masses --      6.3598                 6.3931                 6.6139
 Frc consts  --      1.5757                 1.7731                 2.0395
 IR Inten    --      0.0090                 8.3014                21.1276

                     22                     23                     24
                      A                      A                      A
 Frequencies --    755.8955               760.0176               768.3440
 Red. masses --      2.0560                10.1986                 2.8363
 Frc consts  --      0.6922                 3.4709                 0.9865
 IR Inten    --     25.1330                17.0207                 4.2846

                     25                     26                     27
                      A                      A                      A
 Frequencies --    775.6915               785.2110               852.0292
 Red. masses --      1.4389                 1.8716                 6.0039
 Frc consts  --      0.5101                 0.6799                 2.5680
 IR Inten    --     58.5431                39.9635                15.8860

                     28                     29                     30
                      A                      A                      A
 Frequencies --    882.8573               886.6470               907.6120
 Red. masses --      1.5697                 1.4097                 6.7117
 Frc consts  --      0.7208                 0.6530                 3.2575
 IR Inten    --      5.2790                 0.3243                 2.9914

                     31                     32                     33
                      A                      A                      A
 Frequencies --    969.0148               975.5850              1004.6564
 Red. masses --      1.3578                 1.3631                 7.5111
 Frc consts  --      0.7512                 0.7644                 4.4667
 IR Inten    --      1.3380                 0.9342                52.7556

                     34                     35                     36
                      A                      A                      A
 Frequencies --   1010.5690              1016.0601              1036.8439
 Red. masses --      1.3005                 1.3043                 1.0667
 Frc consts  --      0.7825                 0.7933                 0.6757
 IR Inten    --      0.0299                 0.1021                73.3670

                     37                     38                     39
                      A                      A                      A
 Frequencies --   1053.2559              1068.4353              1101.4943
 Red. masses --      2.0003                 1.9184                 3.9092
 Frc consts  --      1.3074                 1.2903                 2.7945
 IR Inten    --      9.1490                 8.4133                 5.2126

                     40                     41                     42
                      A                      A                      A
 Frequencies --   1151.0144              1155.6961              1174.4191
 Red. masses --      1.4655                 1.3331                 1.1383
 Frc consts  --      1.1440                 1.0491                 0.9250
 IR Inten    --     12.6847                 2.6911                43.4039

                     43                     44                     45
                      A                      A                      A
 Frequencies --   1185.4137              1261.9744              1288.2407
 Red. masses --      1.2011                 1.9011                 1.5632
 Frc consts  --      0.9944                 1.7838                 1.5285
 IR Inten    --      0.1551                92.1576                 1.4204

                     46                     47                     48
                      A                      A                      A
 Frequencies --   1306.4972              1327.7797              1359.7065
 Red. masses --      2.9438                 3.2512                 4.8487
 Frc consts  --      2.9606                 3.3771                 5.2816
 IR Inten    --    215.9456                34.7784                 3.4560

                     49                     50                     51
                      A                      A                      A
 Frequencies --   1379.1273              1380.8497              1489.4941
 Red. masses --      4.6343                 4.6141                 3.0471
 Frc consts  --      5.1933                 5.1836                 3.9830
 IR Inten    --     12.3352                16.1861                 9.9796

                     52                     53                     54
                      A                      A                      A
 Frequencies --   1491.8154              1496.6265              1520.7420
 Red. masses --      2.4266                 2.8153                 3.9886
 Frc consts  --      3.1818                 3.7153                 5.4348
 IR Inten    --      4.9878                35.2465               102.2610

                     55                     56                     57
                      A                      A                      A
 Frequencies --   1578.3949              1607.0638              1655.4193
 Red. masses --      6.4541                 3.1383                 6.8807
 Frc consts  --      9.4737                 4.7754                11.1096
 IR Inten    --    279.6039                10.7396                11.4440

                     58                     59                     60
                      A                      A                      A
 Frequencies --   1676.1659              1699.2070              1726.1514
 Red. masses --      6.5216                 5.8295                 1.6982
 Frc consts  --     10.7954                 9.9168                 2.9812
 IR Inten    --     76.4698               195.4847               333.8459

                     61                     62                     63
                      A                      A                      A
 Frequencies --   2380.3057              3196.5258              3206.1378
 Red. masses --      1.0966                 1.0890                 1.0887
 Frc consts  --      3.6607                 6.5561                 6.5937
 IR Inten    --   1619.0539                 4.2563                 6.9234

                     64                     65                     66
                      A                      A                      A
 Frequencies --   3213.4921              3224.5486              3227.7360
 Red. masses --      1.0862                 1.0907                 1.0939
 Frc consts  --      6.6090                 6.6819                 6.7144
 IR Inten    --      1.9162                 3.8136                13.3321

                     67                     68                     69
                      A                      A                      A
 Frequencies --   3235.1443              3236.9204              3240.8809
 Red. masses --      1.0960                 1.0984                 1.0996
 Frc consts  --      6.7584                 6.7808                 6.8047
 IR Inten    --      9.0902                17.3377                12.8601

 - Thermochemistry -
 -------------------
 Temperature   298.150 Kelvin.  Pressure   1.00000 Atm.
 Atom     1 has atomic number  6 and mass  12.00000

 Molecular mass:   227.04049 amu.
 Principal axes and moments of inertia in atomic units:
                           1         2         3
     Eigenvalues --  1292.141236281.935207574.07643
           X           -0.70441   0.70979   0.00000
           Y            0.70979   0.70441  -0.00001
           Z            0.00001   0.00001   1.00000
 This molecule is an asymmetric top.
 Rotational symmetry number  1.
 Warning -- assumption of classical behavior for rotation
           may cause significant error
 Rotational temperatures (Kelvin)      0.06703     0.01379     0.01144
 Rotational constants (GHZ):           1.39671     0.28729     0.23828
 Zero-point vibrational energy     497141.1 (Joules/Mol)
                                  118.81957 (Kcal/Mol)
 Warning -- explicit consideration of  18 degrees of freedom as
           vibrations may cause significant error
 Vibrational temperatures:     37.39    92.55   182.12   220.07   284.31
          (Kelvin)            351.35   397.30   472.12   484.11   598.77
                              627.61   666.40   742.54   757.23   775.14
                              803.04   827.35   851.04   933.00   987.13
                             1040.88  1087.57  1093.50  1105.48  1116.05
                             1129.74  1225.88  1270.23  1275.69  1305.85
                             1394.20  1403.65  1445.48  1453.98  1461.88
                             1491.79  1515.40  1537.24  1584.80  1656.05
                             1662.79  1689.73  1705.55  1815.70  1853.49
                             1879.76  1910.38  1956.31  1984.26  1986.73
                             2143.05  2146.39  2153.31  2188.01  2270.96
                             2312.21  2381.78  2411.63  2444.78  2483.55
                             3424.73  4599.09  4612.92  4623.50  4639.41
                             4643.99  4654.65  4657.21  4662.90

 Zero-point correction=                           0.189351 (Hartree/Particle)
 Thermal correction to Energy=                    0.200946
 Thermal correction to Enthalpy=                  0.201890
 Thermal correction to Gibbs Free Energy=         0.150372
 Sum of electronic and zero-point Energies=          -1028.637050
 Sum of electronic and thermal Energies=             -1028.625456
 Sum of electronic and thermal Enthalpies=           -1028.624512
 Sum of electronic and thermal Free Energies=        -1028.676030

                     E (Thermal)             CV                S
                      KCal/Mol        Cal/Mol-Kelvin    Cal/Mol-Kelvin
 Total                  126.095             47.062            108.429
 Electronic               0.000              0.000              0.000
 Translational            0.889              2.981             42.162
 Rotational               0.889              2.981             32.486
 Vibrational            124.318             41.100             33.781
 Vibration     1          0.593              1.985              6.114
 Vibration     2          0.597              1.971              4.320
 Vibration     3          0.611              1.927              2.997
 Vibration     4          0.619              1.899              2.635
 Vibration     5          0.637              1.843              2.155
 Vibration     6          0.660              1.772              1.772
 Vibration     7          0.678              1.718              1.557
 Vibration     8          0.711              1.619              1.269
 Vibration     9          0.717              1.603              1.229
 Vibration    10          0.779              1.435              0.905
 Vibration    11          0.797              1.391              0.839
 Vibration    12          0.821              1.332              0.757
 Vibration    13          0.871              1.214              0.619
 Vibration    14          0.881              1.192              0.596
 Vibration    15          0.894              1.164              0.568
 Vibration    16          0.914              1.122              0.528
 Vibration    17          0.931              1.085              0.495
 Vibration    18          0.949              1.050              0.465

 Optimization completed.
    -- Stationary point found.
 Normal termination of Gaussian 16 at Tue Oct 27 23:33:59 2020.
