 Gaussian 16, Revision C.01,
 Gaussian 16:  ES64L-G16RevC.01  3-Jul-2019

 ----------------------------------------------------------------------
 #p opt=addgic freq wb97xd/cc-pvdz nosymm int=ultrafine scrf=(solvent=C
 arbonTetraChloride)
 ----------------------------------------------------------------------

 ------------------------------------------------
 NM 2D-scan of HBT TD-WB97XD pVDZ in CTC Relaxed.
 ------------------------------------------------
 Symbolic Z-matrix:
 Charge =  0 Multiplicity = 1

 SCF Done:  E(RwB97XD) =  -1028.61448921     A.U. after   16 cycles
 SCF Done:  E(RwB97XD) =  -1028.75230955     A.U. after   13 cycles
 SCF Done:  E(RwB97XD) =  -1028.77291000     A.U. after   14 cycles
 SCF Done:  E(RwB97XD) =  -1028.79059992     A.U. after   14 cycles
 SCF Done:  E(RwB97XD) =  -1028.79132168     A.U. after   13 cycles
 SCF Done:  E(RwB97XD) =  -1028.79171859     A.U. after   12 cycles
 SCF Done:  E(RwB97XD) =  -1028.79174971     A.U. after   10 cycles
 SCF Done:  E(RwB97XD) =  -1028.79175244     A.U. after    9 cycles
 Optimization completed.
    -- Stationary point found.
 Normal termination of Gaussian 16 at Tue Oct 27 21:50:39 2020.

 --------------------------------------------------------------------
 #P Geom=AllCheck Guess=TCheck SCRF=Check GenChk RwB97XD/CC-pVDZ Freq
 --------------------------------------------------------------------

 Structure from the checkpoint file:  "config_12_5.chk"
 ------------------------------------------------
 NM 2D-scan of HBT TD-WB97XD pVDZ in CTC Relaxed.
 ------------------------------------------------
 Charge =  0 Multiplicity = 1

                          Input orientation:
 ---------------------------------------------------------------------
 Center     Atomic      Atomic             Coordinates (Angstroms)
 Number     Number       Type             X           Y           Z
 ---------------------------------------------------------------------
      1          6           0        1.721706   -3.279202    0.000125
      2          6           0        1.018519   -2.078366    0.000059
      3          6           0        1.708899   -0.886612   -0.000076
      4          6           0        3.099587   -0.806394   -0.000120
      5          6           0        3.798245   -2.008703   -0.000041
      6          6           0        3.115458   -3.228989    0.000073
      7          1           0        1.201458   -4.236542    0.000209
      8          1           0        3.610685    0.157161   -0.000214
      9          1           0        4.888733   -1.995814   -0.000072
     10          1           0        3.680239   -4.161609    0.000120
     11          7           0        0.829251    0.170655   -0.000174
     12         16           0       -0.737666   -1.745961    0.000093
     13          6           0       -1.421982    1.074830   -0.000081
     14          6           0       -2.826632    0.900996   -0.000156
     15          6           0       -0.826429    2.420881    0.000080
     16          6           0       -3.695061    1.973292   -0.000059
     17          1           0       -3.232299   -0.115396   -0.000306
     18          6           0       -1.810821    3.506855    0.000237
     19          6           0       -3.164824    3.289083    0.000164
     20          1           0       -4.772868    1.808941   -0.000131
     21          1           0       -1.407116    4.521356    0.000407
     22          1           0       -3.851159    4.140051    0.000275
     23          6           0       -0.500867   -0.013846   -0.000089
     24          8           0        0.399329    2.597299    0.000106
     25          1           0        1.332552    1.016361   -0.000357
 ---------------------------------------------------------------------

 SCF Done:  E(RwB97XD) =  -1028.79175244     A.U. after    1 cycles

 Alpha  occ. eigenvalues --  -89.10175 -19.21165 -14.51534 -10.41912 -10.36720
 Alpha  occ. eigenvalues --  -10.36079 -10.35925 -10.33450 -10.33085 -10.32708
 Alpha  occ. eigenvalues --  -10.32366 -10.31110 -10.30713 -10.30563 -10.29025
 Alpha  occ. eigenvalues --  -10.28480  -8.12154  -6.07053  -6.06650  -6.06154
 Alpha  occ. eigenvalues --   -1.13499  -1.10306  -0.98694  -0.95124  -0.93238
 Alpha  occ. eigenvalues --   -0.89298  -0.86500  -0.84116  -0.81520  -0.75710
 Alpha  occ. eigenvalues --   -0.74244  -0.71524  -0.69569  -0.67742  -0.64358
 Alpha  occ. eigenvalues --   -0.60893  -0.59836  -0.56632  -0.56075  -0.55989
 Alpha  occ. eigenvalues --   -0.55033  -0.53535  -0.52851  -0.50471  -0.49397
 Alpha  occ. eigenvalues --   -0.49029  -0.48165  -0.46672  -0.45658  -0.44731
 Alpha  occ. eigenvalues --   -0.44528  -0.42877  -0.41705  -0.40407  -0.36935
 Alpha  occ. eigenvalues --   -0.33651  -0.31711  -0.31233  -0.26096
 Alpha virt. eigenvalues --   -0.01360   0.03678   0.06110   0.06747   0.09596
 Alpha virt. eigenvalues --    0.11171   0.12301   0.14566   0.15900   0.16928
 Alpha virt. eigenvalues --    0.18525   0.19810   0.21120   0.21638   0.22993

 Mulliken charges:
               1
     1  C    0.008478
     2  C   -0.251403
     3  C    0.226459
     4  C   -0.013615
     5  C    0.013163
     6  C    0.002587
     7  H    0.025541
     8  H    0.034001
     9  H    0.028108
    10  H    0.026350
    11  N   -0.074172
    12  S    0.176777
    13  C   -0.130003
    14  C   -0.004067
    15  C    0.113745
    16  C   -0.036542
    17  H    0.001062
    18  C   -0.039859
    19  C    0.028972
    20  H    0.002604
    21  H    0.000430
    22  H    0.013233
    23  C    0.102980
    24  O   -0.368254
    25  H    0.113425
 Sum of Mulliken charges =  -0.00000

 Dipole moment (field-independent basis, Debye):
    X=              2.1925    Y=             -5.1619    Z=             -0.0005  Tot=              5.6082
 Quadrupole moment (field-independent basis, Debye-Ang):
   XX=            -81.6524   YY=            -94.7155   ZZ=           -104.0502
   XY=             -6.7449   XZ=             -0.0009   YZ=             -0.0009

  Exact polarizability:     291.702     -91.146     289.758      -0.002       0.003      63.009
 Approx polarizability:     269.380     -36.510     256.059      -0.002       0.001      82.016

 ******    1 imaginary frequencies (negative Signs) ******

                      1                      2                      3
                      A                      A                      A
 Frequencies --    -63.3364                46.7153                78.3654
 Red. masses --      3.7138                 5.4675                 5.3705
 Frc consts  --      0.0088                 0.0070                 0.0194
 IR Inten    --      4.9153                 0.0600                 2.6830

                      4                      5                      6
                      A                      A                      A
 Frequencies --    107.4490               184.7858               222.7495
 Red. masses --      5.6461                 4.9385                 5.2289
 Frc consts  --      0.0384                 0.0994                 0.1529
 IR Inten    --      0.5790                 1.7386                 7.6470

                      7                      8                      9
                      A                      A                      A
 Frequencies --    264.5895               285.2469               321.4254
 Red. masses --      7.3717                 2.9568                 6.9628
 Frc consts  --      0.3041                 0.1417                 0.4238
 IR Inten    --      3.3655                18.2148                 5.2657

                     10                     11                     12
                      A                      A                      A
 Frequencies --    371.3468               379.8481               434.9715
 Red. masses --      1.7569                 8.3276                 2.7243
 Frc consts  --      0.1427                 0.7079                 0.3037
 IR Inten    --     41.1847                 6.1890                 8.3127

                     13                     14                     15
                      A                      A                      A
 Frequencies --    441.6390               498.1247               525.5279
 Red. masses --      3.4625                 7.7077                 2.7178
 Frc consts  --      0.3979                 1.1268                 0.4422
 IR Inten    --      4.5735                 8.1669                 2.5202

                     16                     17                     18
                      A                      A                      A
 Frequencies --    537.0476               549.5183               561.9591
 Red. masses --      8.8260                 6.5678                 3.7484
 Frc consts  --      1.4998                 1.1685                 0.6974
 IR Inten    --     10.1956                 1.8338                 0.0766

                     19                     20                     21
                      A                      A                      A
 Frequencies --    582.9670               633.1165               661.9260
 Red. masses --      7.3648                 6.9221                 5.9874
 Frc consts  --      1.4747                 1.6348                 1.5456
 IR Inten    --     40.3024                 1.5500                 5.0309

                     22                     23                     24
                      A                      A                      A
 Frequencies --    691.5784               738.1033               749.8103
 Red. masses --      5.8869                 7.4960                 2.6896
 Frc consts  --      1.6589                 2.4061                 0.8909
 IR Inten    --     41.9579                38.8251                 8.6114

                     25                     26                     27
                      A                      A                      A
 Frequencies --    759.6376               775.5642               778.5272
 Red. masses --      1.4232                 1.5499                 2.4378
 Frc consts  --      0.4839                 0.5493                 0.8706
 IR Inten    --     48.3573                47.5649                27.4741

                     28                     29                     30
                      A                      A                      A
 Frequencies --    825.6662               875.5736               879.0030
 Red. masses --      6.2047                 1.9974                 1.3770
 Frc consts  --      2.4922                 0.9022                 0.6269
 IR Inten    --     27.7255                14.7548                 1.0131

                     31                     32                     33
                      A                      A                      A
 Frequencies --    906.7463               965.3361               968.0629
 Red. masses --      5.9120                 3.8235                 1.3243
 Frc consts  --      2.8639                 2.0993                 0.7312
 IR Inten    --      4.8172                32.0387                 0.1927

                     34                     35                     36
                      A                      A                      A
 Frequencies --    971.1236              1014.6908              1016.0121
 Red. masses --      1.3566                 1.3021                 1.3032
 Frc consts  --      0.7538                 0.7899                 0.7926
 IR Inten    --      1.3364                 0.0013                 0.3313

                     37                     38                     39
                      A                      A                      A
 Frequencies --   1045.9141              1059.2907              1082.2660
 Red. masses --      2.0969                 2.2154                 2.2346
 Frc consts  --      1.3515                 1.4646                 1.5421
 IR Inten    --      6.8040                11.8282                61.7969

                     40                     41                     42
                      A                      A                      A
 Frequencies --   1093.5222              1154.4635              1156.1591
 Red. masses --      2.9308                 1.2807                 1.3274
 Frc consts  --      2.0649                 1.0057                 1.0454
 IR Inten    --     25.5729                41.0485                 3.1986

                     43                     44                     45
                      A                      A                      A
 Frequencies --   1179.8160              1187.3886              1225.6297
 Red. masses --      1.1586                 1.1483                 2.2613
 Frc consts  --      0.9502                 0.9539                 2.0013
 IR Inten    --     55.1708                 2.6944                62.2847

                     46                     47                     48
                      A                      A                      A
 Frequencies --   1284.5597              1302.9978              1367.0176
 Red. masses --      2.1177                 1.6674                 2.6010
 Frc consts  --      2.0588                 1.6679                 2.8638
 IR Inten    --    125.1504               117.6977                97.0817

                     49                     50                     51
                      A                      A                      A
 Frequencies --   1371.7010              1397.4387              1414.0610
 Red. masses --      5.7832                 6.2667                 2.2449
 Frc consts  --      6.4112                 7.2103                 2.6447
 IR Inten    --     20.7173               102.3968                 9.2906

                     52                     53                     54
                      A                      A                      A
 Frequencies --   1482.7771              1503.1727              1532.6301
 Red. masses --      3.0869                 3.1136                 3.1306
 Frc consts  --      3.9987                 4.1450                 4.3326
 IR Inten    --    656.5548               777.5595               655.1964

                     55                     56                     57
                      A                      A                      A
 Frequencies --   1546.3550              1587.5839              1651.7559
 Red. masses --      4.0460                 6.6831                 6.1221
 Frc consts  --      5.7003                 9.9244                 9.8411
 IR Inten    --    294.0437                70.9376                49.7726

                     58                     59                     60
                      A                      A                      A
 Frequencies --   1679.4357              1711.7280              1738.4278
 Red. masses --      7.0999                 8.1129                 9.0683
 Frc consts  --     11.7986                14.0054                16.1469
 IR Inten    --     50.6711                51.3152               411.6643

                     61                     62                     63
                      A                      A                      A
 Frequencies --   3174.4271              3188.4417              3213.7685
 Red. masses --      1.0896                 1.0877                 1.0946
 Frc consts  --      6.4694                 6.5148                 6.6607
 IR Inten    --      6.3988                14.3018                28.8075

                     64                     65                     66
                      A                      A                      A
 Frequencies --   3217.9537              3228.7416              3230.1138
 Red. masses --      1.0868                 1.0910                 1.0965
 Frc consts  --      6.6305                 6.7013                 6.7405
 IR Inten    --      2.3283                 1.2133                19.7527

                     67                     68                     69
                      A                      A                      A
 Frequencies --   3236.4601              3245.5413              3943.0245
 Red. masses --      1.0965                 1.0991                 1.0785
 Frc consts  --      6.7672                 6.8211                 9.8793
 IR Inten    --      3.8023                12.7373               124.1018

 - Thermochemistry -
 -------------------
 Temperature   298.150 Kelvin.  Pressure   1.00000 Atm.
 Atom     1 has atomic number  6 and mass  12.00000

 Molecular mass:   227.04049 amu.
 Principal axes and moments of inertia in atomic units:
                           1         2         3
     Eigenvalues --  1294.434916397.922317692.35720
           X           -0.70699   0.70723   0.00001
           Y            0.70723   0.70699  -0.00000
           Z            0.00001  -0.00000   1.00000
 This molecule is an asymmetric top.
 Rotational symmetry number  1.
 Warning -- assumption of classical behavior for rotation
           may cause significant error
 Rotational temperatures (Kelvin)      0.06691     0.01354     0.01126
 Rotational constants (GHZ):           1.39423     0.28208     0.23461
    1 imaginary frequencies ignored.
 Zero-point vibrational energy     496685.4 (Joules/Mol)
                                  118.71067 (Kcal/Mol)
 Warning -- explicit consideration of  18 degrees of freedom as
           vibrations may cause significant error
 Vibrational temperatures:     67.21   112.75   154.60   265.87   320.49
          (Kelvin)            380.69   410.41   462.46   534.29   546.52
                              625.83   635.42   716.69   756.12   772.69
                              790.63   808.53   838.76   910.91   952.36
                              995.03  1061.97  1078.81  1092.95  1115.86
                             1120.13  1187.95  1259.76  1264.69  1304.61
                             1388.90  1392.83  1397.23  1459.91  1461.81
                             1504.84  1524.08  1557.14  1573.33  1661.02
                             1663.46  1697.49  1708.39  1763.41  1848.19
                             1874.72  1966.83  1973.57  2010.60  2034.52
                             2133.39  2162.73  2205.11  2224.86  2284.18
                             2376.51  2416.33  2462.79  2501.21  4567.29
                             4587.46  4623.90  4629.92  4645.44  4647.41
                             4656.54  4669.61  5673.13

 Zero-point correction=                           0.189177 (Hartree/Particle)
 Thermal correction to Energy=                    0.200712
 Thermal correction to Enthalpy=                  0.201656
 Thermal correction to Gibbs Free Energy=         0.150910
 Sum of electronic and zero-point Energies=          -1028.602575
 Sum of electronic and thermal Energies=             -1028.591040
 Sum of electronic and thermal Enthalpies=           -1028.590096
 Sum of electronic and thermal Free Energies=        -1028.640842

                     E (Thermal)             CV                S
                      KCal/Mol        Cal/Mol-Kelvin    Cal/Mol-Kelvin
 Total                  125.949             47.326            106.804
 Electronic               0.000              0.000              0.000
 Translational            0.889              2.981             42.162
 Rotational               0.889              2.981             32.521
 Vibrational            124.171             41.364             32.121
 Vibration     1          0.595              1.979              4.952
 Vibration     2          0.600              1.964              3.931
 Vibration     3          0.606              1.943              3.314
 Vibration     4          0.631              1.861              2.280
 Vibration     5          0.648              1.806              1.937
 Vibration     6          0.671              1.738              1.631
 Vibration     7          0.683              1.701              1.502
 Vibration     8          0.707              1.632              1.303
 Vibration     9          0.743              1.531              1.074
 Vibration    10          0.750              1.513              1.040
 Vibration    11          0.796              1.394              0.843
 Vibration    12          0.801              1.379              0.821
 Vibration    13          0.854              1.254              0.663
 Vibration    14          0.880              1.193              0.597
 Vibration    15          0.892              1.168              0.572
 Vibration    16          0.905              1.141              0.545
 Vibration    17          0.918              1.114              0.520
 Vibration    18          0.940              1.068              0.480

 Optimization completed.
    -- Stationary point found.
 Normal termination of Gaussian 16 at Tue Oct 27 21:56:35 2020.
