 Gaussian 16, Revision C.01,
 Gaussian 16:  ES64L-G16RevC.01  3-Jul-2019

 ----------------------------------------------------------------------
 #p opt=addgic freq wb97xd/cc-pvdz nosymm int=ultrafine scrf=(solvent=C
 arbonTetraChloride)
 ----------------------------------------------------------------------

 ------------------------------------------------
 NM 2D-scan of HBT TD-WB97XD pVDZ in CTC Relaxed.
 ------------------------------------------------
 Symbolic Z-matrix:
 Charge =  0 Multiplicity = 1

 SCF Done:  E(RwB97XD) =  -1028.76984543     A.U. after   15 cycles
 SCF Done:  E(RwB97XD) =  -1028.82448726     A.U. after   13 cycles
 SCF Done:  E(RwB97XD) =  -1028.82861829     A.U. after   13 cycles
 SCF Done:  E(RwB97XD) =  -1028.83055578     A.U. after   12 cycles
 SCF Done:  E(RwB97XD) =  -1028.83066008     A.U. after   11 cycles
 SCF Done:  E(RwB97XD) =  -1028.83068352     A.U. after    9 cycles
 SCF Done:  E(RwB97XD) =  -1028.83068472     A.U. after    9 cycles
 SCF Done:  E(RwB97XD) =  -1028.83068477     A.U. after    7 cycles
 Optimization completed.
    -- Stationary point found.
 Normal termination of Gaussian 16 at Wed Oct 28 00:27:58 2020.

 --------------------------------------------------------------------
 #P Geom=AllCheck Guess=TCheck SCRF=Check GenChk RwB97XD/CC-pVDZ Freq
 --------------------------------------------------------------------

 Structure from the checkpoint file:  "config_2_15.chk"
 ------------------------------------------------
 NM 2D-scan of HBT TD-WB97XD pVDZ in CTC Relaxed.
 ------------------------------------------------
 Charge =  0 Multiplicity = 1

                          Input orientation:
 ---------------------------------------------------------------------
 Center     Atomic      Atomic             Coordinates (Angstroms)
 Number     Number       Type             X           Y           Z
 ---------------------------------------------------------------------
      1          6           0        1.572815   -3.296668    0.000053
      2          6           0        0.980930   -2.032665    0.000053
      3          6           0        1.746150   -0.851232   -0.000076
      4          6           0        3.144754   -0.937327   -0.000217
      5          6           0        3.737165   -2.193245   -0.000212
      6          6           0        2.960040   -3.363449   -0.000077
      7          1           0        0.965475   -4.202214    0.000144
      8          1           0        3.742788   -0.025395   -0.000317
      9          1           0        4.825243   -2.273222   -0.000316
     10          1           0        3.450648   -4.337884   -0.000083
     11          7           0        1.000061    0.318590   -0.000035
     12         16           0       -0.716543   -1.630412    0.000153
     13          6           0       -1.306979    1.117475    0.000162
     14          6           0       -2.673645    0.788271    0.000100
     15          6           0       -0.924530    2.480795    0.000139
     16          6           0       -3.651709    1.767023   -0.000082
     17          1           0       -2.971383   -0.262773    0.000129
     18          6           0       -1.924581    3.466978   -0.000078
     19          6           0       -3.265142    3.113468   -0.000194
     20          1           0       -4.706121    1.490944   -0.000163
     21          1           0       -1.612674    4.512012   -0.000087
     22          1           0       -4.024735    3.897480   -0.000334
     23          6           0       -0.282356    0.076759    0.000151
     24          8           0        0.353123    2.871687    0.000468
     25          1           0        0.916572    2.057715    0.000836
 ---------------------------------------------------------------------

 SCF Done:  E(RwB97XD) =  -1028.83068477     A.U. after    1 cycles

 Alpha  occ. eigenvalues --  -89.08467 -19.28426 -14.47011 -10.39323 -10.37484
 Alpha  occ. eigenvalues --  -10.34915 -10.34668 -10.32310 -10.32231 -10.31898
 Alpha  occ. eigenvalues --  -10.31614 -10.31538 -10.31489 -10.31412 -10.30327
 Alpha  occ. eigenvalues --  -10.30259  -8.10536  -6.05384  -6.05029  -6.04586
 Alpha  occ. eigenvalues --   -1.16650  -1.08785  -0.97288  -0.96252  -0.91632
 Alpha  occ. eigenvalues --   -0.88568  -0.85429  -0.84663  -0.82856  -0.75465
 Alpha  occ. eigenvalues --   -0.71524  -0.70640  -0.69414  -0.68145  -0.63222
 Alpha  occ. eigenvalues --   -0.60440  -0.58768  -0.58494  -0.56523  -0.54543
 Alpha  occ. eigenvalues --   -0.53968  -0.53172  -0.52902  -0.50775  -0.50450
 Alpha  occ. eigenvalues --   -0.49201  -0.47687  -0.45889  -0.45437  -0.45017
 Alpha  occ. eigenvalues --   -0.43996  -0.43042  -0.42464  -0.39711  -0.37409
 Alpha  occ. eigenvalues --   -0.36201  -0.32021  -0.31761  -0.29206
 Alpha virt. eigenvalues --   -0.00442   0.04897   0.06774   0.07103   0.07943
 Alpha virt. eigenvalues --    0.11487   0.14321   0.15226   0.16776   0.18056
 Alpha virt. eigenvalues --    0.18875   0.20819   0.21585   0.22537   0.22813

 Mulliken charges:
               1
     1  C    0.011402
     2  C   -0.208612
     3  C    0.212544
     4  C   -0.016557
     5  C    0.004564
     6  C    0.000853
     7  H    0.018213
     8  H    0.017618
     9  H    0.019420
    10  H    0.021093
    11  N   -0.347603
    12  S    0.142160
    13  C   -0.044365
    14  C   -0.029474
    15  C    0.060990
    16  C   -0.004352
    17  H    0.019280
    18  C    0.009761
    19  C    0.020828
    20  H    0.010110
    21  H    0.017465
    22  H    0.019081
    23  C    0.083645
    24  O   -0.199512
    25  H    0.161448
 Sum of Mulliken charges =  -0.00000

 Dipole moment (field-independent basis, Debye):
    X=             -0.1864    Y=             -2.3896    Z=              0.0003  Tot=              2.3969
 Quadrupole moment (field-independent basis, Debye-Ang):
   XX=            -82.7143   YY=            -90.0093   ZZ=           -104.0987
   XY=             -7.1323   XZ=              0.0007   YZ=             -0.0004

  Exact polarizability:     273.474     -66.816     254.467      -0.002      -0.003      62.921
 Approx polarizability:     261.714     -22.785     242.095      -0.002      -0.005      82.151

                      1                      2                      3
                      A                      A                      A
 Frequencies --     43.2092                61.6941               124.8825
 Red. masses --      5.7509                 5.4586                 5.6999
 Frc consts  --      0.0063                 0.0122                 0.0524
 IR Inten    --      0.1747                 1.0065                 1.3871

                      4                      5                      6
                      A                      A                      A
 Frequencies --    151.6429               198.1021               246.3681
 Red. masses --      5.0133                 6.0091                 5.6423
 Frc consts  --      0.0679                 0.1389                 0.2018
 IR Inten    --      0.0155                 0.7474                 0.0153

                      7                      8                      9
                      A                      A                      A
 Frequencies --    273.9111               305.9689               329.2723
 Red. masses --      7.9659                 6.3431                 5.0810
 Frc consts  --      0.3521                 0.3499                 0.3246
 IR Inten    --      1.7769                 6.6838                 0.1075

                     10                     11                     12
                      A                      A                      A
 Frequencies --    412.8170               438.3613               468.3157
 Red. masses --      9.3762                 3.1232                 3.6834
 Frc consts  --      0.9414                 0.3536                 0.4760
 IR Inten    --      0.2586                 1.9229                 7.9633

                     13                     14                     15
                      A                      A                      A
 Frequencies --    516.5100               517.6459               537.4766
 Red. masses --      8.0954                 5.2966                 3.4523
 Frc consts  --      1.2725                 0.8362                 0.5876
 IR Inten    --      1.5187                 5.9535                 3.7228

                     16                     17                     18
                      A                      A                      A
 Frequencies --    550.1158               575.9567               592.0720
 Red. masses --      8.1163                 3.7451                 7.7053
 Frc consts  --      1.4472                 0.7320                 1.5914
 IR Inten    --      2.0003                 0.0197                 5.8872

                     19                     20                     21
                      A                      A                      A
 Frequencies --    646.1415               678.5498               723.5084
 Red. masses --      5.8218                 6.6465                 7.2143
 Frc consts  --      1.4321                 1.8030                 2.2250
 IR Inten    --      0.2078                 3.4736                31.4699

                     22                     23                     24
                      A                      A                      A
 Frequencies --    736.7698               755.9642               759.7812
 Red. masses --      9.0997                 1.9751                 2.3557
 Frc consts  --      2.9103                 0.6650                 0.8012
 IR Inten    --      7.6447                40.5869                 3.2401

                     25                     26                     27
                      A                      A                      A
 Frequencies --    775.3939               786.7680               813.2506
 Red. masses --      1.3538                 1.9450                 1.2436
 Frc consts  --      0.4796                 0.7094                 0.4846
 IR Inten    --     68.8931                30.2852                70.1280

                     28                     29                     30
                      A                      A                      A
 Frequencies --    848.4528               883.8525               887.7515
 Red. masses --      6.0611                 1.5425                 1.4233
 Frc consts  --      2.5707                 0.7100                 0.6609
 IR Inten    --     18.9841                 3.8497                 1.0133

                     31                     32                     33
                      A                      A                      A
 Frequencies --    890.5597               969.9303               975.9019
 Red. masses --      6.5229                 1.3615                 1.3666
 Frc consts  --      3.0480                 0.7546                 0.7668
 IR Inten    --      3.8739                 1.0612                 1.6283

                     34                     35                     36
                      A                      A                      A
 Frequencies --    994.2495              1011.6479              1015.2815
 Red. masses --      7.7343                 1.3035                 1.3053
 Frc consts  --      4.5047                 0.7860                 0.7927
 IR Inten    --     55.6195                 0.3919                 0.0206

                     37                     38                     39
                      A                      A                      A
 Frequencies --   1051.8684              1074.9384              1103.5398
 Red. masses --      1.9964                 1.9567                 3.8309
 Frc consts  --      1.3014                 1.3321                 2.7487
 IR Inten    --      8.6126                 9.1842                 6.4976

                     40                     41                     42
                      A                      A                      A
 Frequencies --   1154.8799              1155.3021              1180.8308
 Red. masses --      1.4410                 1.3484                 1.1792
 Frc consts  --      1.1324                 1.0604                 0.9688
 IR Inten    --      4.2369                 3.6636                34.3136

                     43                     44                     45
                      A                      A                      A
 Frequencies --   1185.1163              1255.0362              1282.6849
 Red. masses --      1.2445                 2.1296                 1.8998
 Frc consts  --      1.0298                 1.9763                 1.8416
 IR Inten    --      4.4897               152.3426                29.7350

                     46                     47                     48
                      A                      A                      A
 Frequencies --   1297.0682              1330.4158              1341.9186
 Red. masses --      1.8166                 3.0614                 3.7363
 Frc consts  --      1.8007                 3.1926                 3.9641
 IR Inten    --     69.5165                30.8313                10.4936

                     49                     50                     51
                      A                      A                      A
 Frequencies --   1370.7691              1379.5517              1466.2716
 Red. masses --      7.6093                 4.2412                 1.8272
 Frc consts  --      8.4241                 4.7557                 2.3145
 IR Inten    --     14.7197                14.3762                43.4190

                     52                     53                     54
                      A                      A                      A
 Frequencies --   1487.4479              1504.5332              1531.5766
 Red. masses --      2.6102                 2.8851                 3.1000
 Frc consts  --      3.4026                 3.8478                 4.2844
 IR Inten    --     46.7740                11.8720                74.4757

                     55                     56                     57
                      A                      A                      A
 Frequencies --   1550.3403              1593.6965              1645.9284
 Red. masses --      2.2766                 7.0683                 6.7844
 Frc consts  --      3.2240                10.5774                10.8288
 IR Inten    --    157.0888               179.5180                 5.4737

                     58                     59                     60
                      A                      A                      A
 Frequencies --   1667.2618              1680.1266              1710.0077
 Red. masses --      4.4885                 6.8477                 5.5538
 Frc consts  --      7.3512                11.3888                 9.5683
 IR Inten    --    129.7535                 8.8401               120.0777

                     61                     62                     63
                      A                      A                      A
 Frequencies --   3203.9209              3210.8116              3213.0967
 Red. masses --      1.0878                 1.0860                 1.0890
 Frc consts  --      6.5788                 6.5967                 6.6242
 IR Inten    --      2.3503                 1.3747                 9.0150

                     64                     65                     66
                      A                      A                      A
 Frequencies --   3221.8699              3230.8682              3232.3039
 Red. masses --      1.0905                 1.0942                 1.0959
 Frc consts  --      6.6695                 6.7292                 6.7462
 IR Inten    --      4.9909                10.8820                10.9858

                     67                     68                     69
                      A                      A                      A
 Frequencies --   3238.1984              3238.7651              3339.5733
 Red. masses --      1.0995                 1.0995                 1.0681
 Frc consts  --      6.7931                 6.7954                 7.0186
 IR Inten    --     20.5134                11.2181               764.3959

 - Thermochemistry -
 -------------------
 Temperature   298.150 Kelvin.  Pressure   1.00000 Atm.
 Atom     1 has atomic number  6 and mass  12.00000

 Molecular mass:   227.04049 amu.
 Principal axes and moments of inertia in atomic units:
                           1         2         3
     Eigenvalues --  1300.231036352.073317652.30428
           X           -0.69787   0.71623   0.00001
           Y            0.71623   0.69787  -0.00001
           Z            0.00001   0.00000   1.00000
 This molecule is an asymmetric top.
 Rotational symmetry number  1.
 Warning -- assumption of classical behavior for rotation
           may cause significant error
 Rotational temperatures (Kelvin)      0.06661     0.01364     0.01132
 Rotational constants (GHZ):           1.38802     0.28412     0.23584
 Zero-point vibrational energy     500210.1 (Joules/Mol)
                                  119.55308 (Kcal/Mol)
 Warning -- explicit consideration of  18 degrees of freedom as
           vibrations may cause significant error
 Vibrational temperatures:     62.17    88.76   179.68   218.18   285.02
          (Kelvin)            354.47   394.10   440.22   473.75   593.95
                              630.70   673.80   743.14   744.78   773.31
                              791.49   828.67   851.86   929.65   976.28
                             1040.97  1060.05  1087.66  1093.16  1115.62
                             1131.98  1170.09  1220.73  1271.67  1277.28
                             1281.32  1395.51  1404.11  1430.50  1455.54
                             1460.76  1513.40  1546.60  1587.75  1661.61
                             1662.22  1698.95  1705.12  1805.72  1845.50
                             1866.19  1914.17  1930.72  1972.23  1984.87
                             2109.64  2140.11  2164.69  2203.60  2230.59
                             2292.97  2368.12  2398.82  2417.33  2460.32
                             4609.73  4619.64  4622.93  4635.55  4648.50
                             4650.56  4659.05  4659.86  4804.90

 Zero-point correction=                           0.190520 (Hartree/Particle)
 Thermal correction to Energy=                    0.202194
 Thermal correction to Enthalpy=                  0.203138
 Thermal correction to Gibbs Free Energy=         0.151863
 Sum of electronic and zero-point Energies=          -1028.640165
 Sum of electronic and thermal Energies=             -1028.628490
 Sum of electronic and thermal Enthalpies=           -1028.627546
 Sum of electronic and thermal Free Energies=        -1028.678822

                     E (Thermal)             CV                S
                      KCal/Mol        Cal/Mol-Kelvin    Cal/Mol-Kelvin
 Total                  126.879             47.570            107.919
 Electronic               0.000              0.000              0.000
 Translational            0.889              2.981             42.162
 Rotational               0.889              2.981             32.513
 Vibrational            125.101             41.608             33.244
 Vibration     1          0.595              1.980              5.106
 Vibration     2          0.597              1.973              4.402
 Vibration     3          0.610              1.928              3.023
 Vibration     4          0.619              1.901              2.652
 Vibration     5          0.637              1.843              2.151
 Vibration     6          0.661              1.769              1.756
 Vibration     7          0.676              1.721              1.571
 Vibration     8          0.696              1.662              1.384
 Vibration     9          0.712              1.617              1.264
 Vibration    10          0.777              1.442              0.917
 Vibration    11          0.799              1.387              0.832
 Vibration    12          0.826              1.320              0.742
 Vibration    13          0.872              1.213              0.618
 Vibration    14          0.873              1.211              0.615
 Vibration    15          0.893              1.167              0.571
 Vibration    16          0.905              1.139              0.544
 Vibration    17          0.932              1.083              0.493
 Vibration    18          0.950              1.049              0.463

 Optimization completed.
    -- Stationary point found.
 Normal termination of Gaussian 16 at Wed Oct 28 00:33:54 2020.
