 Gaussian 16, Revision C.01,
 Gaussian 16:  ES64L-G16RevC.01  3-Jul-2019

 ----------------------------------------------------------------------
 #p opt=addgic freq wb97xd/cc-pvdz nosymm int=ultrafine scrf=(solvent=C
 arbonTetraChloride)
 ----------------------------------------------------------------------

 ------------------------------------------------
 NM 2D-scan of HBT TD-WB97XD pVDZ in CTC Relaxed.
 ------------------------------------------------
 Symbolic Z-matrix:
 Charge =  0 Multiplicity = 1

 SCF Done:  E(RwB97XD) =  -1028.79303660     A.U. after   16 cycles
 SCF Done:  E(RwB97XD) =  -1028.81056062     A.U. after   14 cycles
 SCF Done:  E(RwB97XD) =  -1028.81203249     A.U. after   13 cycles
 SCF Done:  E(RwB97XD) =  -1028.81261320     A.U. after   12 cycles
 SCF Done:  E(RwB97XD) =  -1028.81264822     A.U. after   10 cycles
 SCF Done:  E(RwB97XD) =  -1028.81265275     A.U. after    9 cycles
 Optimization completed.
    -- Stationary point found.
 Normal termination of Gaussian 16 at Tue Oct 27 23:41:38 2020.

 --------------------------------------------------------------------
 #P Geom=AllCheck Guess=TCheck SCRF=Check GenChk RwB97XD/CC-pVDZ Freq
 --------------------------------------------------------------------

 Structure from the checkpoint file:  "config_9_13.chk"
 ------------------------------------------------
 NM 2D-scan of HBT TD-WB97XD pVDZ in CTC Relaxed.
 ------------------------------------------------
 Charge =  0 Multiplicity = 1

                          Input orientation:
 ---------------------------------------------------------------------
 Center     Atomic      Atomic             Coordinates (Angstroms)
 Number     Number       Type             X           Y           Z
 ---------------------------------------------------------------------
      1          6           0        1.594098   -3.269097   -0.000037
      2          6           0        0.995417   -2.013065   -0.000022
      3          6           0        1.756011   -0.837478   -0.000007
      4          6           0        3.150317   -0.898903   -0.000007
      5          6           0        3.749441   -2.156056   -0.000022
      6          6           0        2.984039   -3.329158   -0.000037
      7          1           0        0.990485   -4.176956   -0.000049
      8          1           0        3.746205    0.014042    0.000005
      9          1           0        4.837967   -2.225195   -0.000023
     10          1           0        3.480314   -4.300198   -0.000049
     11          7           0        0.947328    0.290251    0.000008
     12         16           0       -0.722833   -1.640737   -0.000015
     13          6           0       -1.336052    1.098383    0.000020
     14          6           0       -2.725855    0.794901    0.000027
     15          6           0       -0.859585    2.474462    0.000025
     16          6           0       -3.666167    1.788296    0.000036
     17          1           0       -3.045224   -0.251275    0.000025
     18          6           0       -1.902504    3.479091    0.000029
     19          6           0       -3.230661    3.144193    0.000036
     20          1           0       -4.729786    1.550593    0.000043
     21          1           0       -1.580840    4.522103    0.000027
     22          1           0       -3.980753    3.939211    0.000040
     23          6           0       -0.372721    0.068535    0.000006
     24          8           0        0.366851    2.768627    0.000012
     25          1           0        1.197960    1.302839    0.000025
 ---------------------------------------------------------------------

 SCF Done:  E(RwB97XD) =  -1028.81265275     A.U. after    1 cycles

 Alpha  occ. eigenvalues --  -89.09861 -19.21730 -14.51758 -10.41159 -10.37268
 Alpha  occ. eigenvalues --  -10.36159 -10.35909 -10.33203 -10.32895 -10.32469
 Alpha  occ. eigenvalues --  -10.32255 -10.31231 -10.30783 -10.30487 -10.29206
 Alpha  occ. eigenvalues --  -10.28684  -8.11918  -6.06794  -6.06417  -6.05928
 Alpha  occ. eigenvalues --   -1.12914  -1.09782  -0.98509  -0.95403  -0.93209
 Alpha  occ. eigenvalues --   -0.89222  -0.86617  -0.83814  -0.81981  -0.75644
 Alpha  occ. eigenvalues --   -0.72803  -0.72054  -0.68928  -0.67986  -0.64742
 Alpha  occ. eigenvalues --   -0.60903  -0.59712  -0.56788  -0.55823  -0.55752
 Alpha  occ. eigenvalues --   -0.55004  -0.53787  -0.52990  -0.50282  -0.49720
 Alpha  occ. eigenvalues --   -0.49057  -0.48254  -0.46737  -0.45567  -0.44799
 Alpha  occ. eigenvalues --   -0.44485  -0.43032  -0.41876  -0.40472  -0.36776
 Alpha  occ. eigenvalues --   -0.33491  -0.32107  -0.31611  -0.26520
 Alpha virt. eigenvalues --   -0.01205   0.03852   0.05898   0.06869   0.09143
 Alpha virt. eigenvalues --    0.11164   0.13989   0.14771   0.16207   0.17428
 Alpha virt. eigenvalues --    0.18754   0.20112   0.21036   0.21574   0.23070

 Mulliken charges:
               1
     1  C    0.016691
     2  C   -0.235001
     3  C    0.257280
     4  C   -0.010487
     5  C    0.009589
     6  C    0.003478
     7  H    0.024447
     8  H    0.030389
     9  H    0.026662
    10  H    0.025777
    11  N   -0.146467
    12  S    0.183328
    13  C   -0.106430
    14  C   -0.014861
    15  C    0.108969
    16  C   -0.029695
    17  H    0.009657
    18  C   -0.021470
    19  C    0.026388
    20  H    0.002627
    21  H    0.002876
    22  H    0.013928
    23  C    0.072656
    24  O   -0.397126
    25  H    0.146794
 Sum of Mulliken charges =  -0.00000

 Dipole moment (field-independent basis, Debye):
    X=              1.6146    Y=             -5.1837    Z=             -0.0000  Tot=              5.4294
 Quadrupole moment (field-independent basis, Debye-Ang):
   XX=            -81.9699   YY=            -95.2100   ZZ=           -104.0089
   XY=             -6.8771   XZ=             -0.0001   YZ=              0.0002

  Exact polarizability:     285.812     -85.648     283.246      -0.001       0.002      62.873
 Approx polarizability:     265.490     -31.751     255.298      -0.001       0.002      81.942

                      1                      2                      3
                      A                      A                      A
 Frequencies --     55.9014                72.8291               112.2509
 Red. masses --      5.7373                 4.8427                 5.6870
 Frc consts  --      0.0106                 0.0151                 0.0422
 IR Inten    --      1.0094                 1.1240                 2.1786

                      4                      5                      6
                      A                      A                      A
 Frequencies --    137.9073               198.7355               231.9188
 Red. masses --      5.4150                 6.2370                 6.0812
 Frc consts  --      0.0607                 0.1451                 0.1927
 IR Inten    --      1.5597                 0.0027                 0.8070

                      7                      8                      9
                      A                      A                      A
 Frequencies --    268.2338               306.7876               309.3769
 Red. masses --      7.7041                 6.4720                 5.3821
 Frc consts  --      0.3266                 0.3589                 0.3035
 IR Inten    --      8.8242                 3.6905                 0.7568

                     10                     11                     12
                      A                      A                      A
 Frequencies --    408.2979               429.1545               449.5098
 Red. masses --      9.8827                 3.2417                 3.5506
 Frc consts  --      0.9707                 0.3518                 0.4227
 IR Inten    --      3.1324                 0.1177                10.3653

                     13                     14                     15
                      A                      A                      A
 Frequencies --    510.8835               527.5171               537.9047
 Red. masses --      8.6462                 2.7759                 7.6291
 Frc consts  --      1.3296                 0.4551                 1.3006
 IR Inten    --     10.7418                 5.4222                 7.4666

                     16                     17                     18
                      A                      A                      A
 Frequencies --    554.1837               562.0964               582.9078
 Red. masses --      6.6973                 3.8185                 6.9419
 Frc consts  --      1.2119                 0.7108                 1.3897
 IR Inten    --      4.9469                 0.0224                36.8829

                     19                     20                     21
                      A                      A                      A
 Frequencies --    636.9603               650.0667               720.1150
 Red. masses --      5.7294                 5.7390                 6.0760
 Frc consts  --      1.3696                 1.4289                 1.8564
 IR Inten    --      0.3033                 4.0890                34.6562

                     22                     23                     24
                      A                      A                      A
 Frequencies --    737.4798               751.3752               760.7710
 Red. masses --      8.1259                 2.6639                 1.4562
 Frc consts  --      2.6039                 0.8861                 0.4966
 IR Inten    --     69.8203                 7.4975                58.9546

                     25                     26                     27
                      A                      A                      A
 Frequencies --    775.4308               777.4322               834.8405
 Red. masses --      1.6755                 2.1383                 5.3410
 Frc consts  --      0.5936                 0.7614                 2.1932
 IR Inten    --     18.2589                39.0872                17.8379

                     28                     29                     30
                      A                      A                      A
 Frequencies --    863.5706               873.1238               883.5523
 Red. masses --      4.0796                 1.4699                 1.3774
 Frc consts  --      1.7925                 0.6602                 0.6336
 IR Inten    --      8.2946                 2.6215                 0.9928

                     31                     32                     33
                      A                      A                      A
 Frequencies --    889.4568               962.2958               966.7805
 Red. masses --      1.3522                 4.7163                 1.3232
 Frc consts  --      0.6303                 2.5732                 0.7287
 IR Inten    --     89.6358                35.4086                 0.1440

                     34                     35                     36
                      A                      A                      A
 Frequencies --    970.7779              1014.2994              1017.8203
 Red. masses --      1.3608                 1.3042                 1.3075
 Frc consts  --      0.7556                 0.7905                 0.7980
 IR Inten    --      1.2511                 0.0313                 0.4132

                     37                     38                     39
                      A                      A                      A
 Frequencies --   1040.1083              1056.1104              1085.3244
 Red. masses --      2.1847                 2.0602                 3.5824
 Frc consts  --      1.3925                 1.3538                 2.4862
 IR Inten    --     15.7568                11.2543                27.4901

                     40                     41                     42
                      A                      A                      A
 Frequencies --   1133.3950              1160.4009              1162.6350
 Red. masses --      2.0510                 1.3883                 1.2144
 Frc consts  --      1.5523                 1.1014                 0.9671
 IR Inten    --     81.4031                 0.4760                62.2997

                     43                     44                     45
                      A                      A                      A
 Frequencies --   1181.5423              1198.9453              1254.7354
 Red. masses --      1.1507                 1.2911                 1.9454
 Frc consts  --      0.9465                 1.0935                 1.8046
 IR Inten    --     15.1279                17.7374                18.4175

                     46                     47                     48
                      A                      A                      A
 Frequencies --   1288.6302              1315.6710              1360.4898
 Red. masses --      1.5780                 2.6926                 3.4418
 Frc consts  --      1.5439                 2.7461                 3.7534
 IR Inten    --     14.7247               130.8445                12.0853

                     49                     50                     51
                      A                      A                      A
 Frequencies --   1381.6517              1398.9409              1419.8705
 Red. masses --      4.1819                 5.4825                 2.6738
 Frc consts  --      4.7035                 6.3216                 3.1759
 IR Inten    --     94.4377                32.1326                18.2376

                     52                     53                     54
                      A                      A                      A
 Frequencies --   1493.2578              1505.2210              1519.0018
 Red. masses --      2.6665                 2.6905                 3.3030
 Frc consts  --      3.5031                 3.5915                 4.4903
 IR Inten    --     12.7447               139.8731                58.1795

                     55                     56                     57
                      A                      A                      A
 Frequencies --   1570.2913              1602.3249              1629.2207
 Red. masses --      4.1651                 5.4074                 8.2296
 Frc consts  --      6.0511                 8.1798                12.8703
 IR Inten    --   1709.5740               166.8402               387.7903

                     58                     59                     60
                      A                      A                      A
 Frequencies --   1667.5450              1681.6681              1713.0188
 Red. masses --      7.0601                 7.0095                 6.6831
 Frc consts  --     11.5669                11.6793                11.5545
 IR Inten    --     34.3968                82.9839               295.2676

                     61                     62                     63
                      A                      A                      A
 Frequencies --   3134.7014              3186.5283              3196.4567
 Red. masses --      1.0896                 1.0887                 1.0880
 Frc consts  --      6.3080                 6.5134                 6.5498
 IR Inten    --    325.2526                 2.7833                14.2955

                     64                     65                     66
                      A                      A                      A
 Frequencies --   3216.6503              3222.0941              3226.6438
 Red. masses --      1.0863                 1.0948                 1.0908
 Frc consts  --      6.6223                 6.6968                 6.6911
 IR Inten    --      1.1862                26.1566                 3.1964

                     67                     68                     69
                      A                      A                      A
 Frequencies --   3234.4901              3235.9463              3242.2736
 Red. masses --      1.0975                 1.0960                 1.0998
 Frc consts  --      6.7648                 6.7620                 6.8121
 IR Inten    --     18.4652                 6.4921                 9.4240

 - Thermochemistry -
 -------------------
 Temperature   298.150 Kelvin.  Pressure   1.00000 Atm.
 Atom     1 has atomic number  6 and mass  12.00000

 Molecular mass:   227.04049 amu.
 Principal axes and moments of inertia in atomic units:
                           1         2         3
     Eigenvalues --  1293.507116321.502537615.00964
           X           -0.70362   0.71057   0.00000
           Y            0.71057   0.70362  -0.00001
           Z            0.00001   0.00000   1.00000
 This molecule is an asymmetric top.
 Rotational symmetry number  1.
 Warning -- assumption of classical behavior for rotation
           may cause significant error
 Rotational temperatures (Kelvin)      0.06696     0.01370     0.01137
 Rotational constants (GHZ):           1.39523     0.28549     0.23700
 Zero-point vibrational energy     496799.1 (Joules/Mol)
                                  118.73784 (Kcal/Mol)
 Warning -- explicit consideration of  18 degrees of freedom as
           vibrations may cause significant error
 Vibrational temperatures:     80.43   104.78   161.50   198.42   285.94
          (Kelvin)            333.68   385.93   441.40   445.12   587.45
                              617.46   646.74   735.05   758.98   773.92
                              797.35   808.73   838.67   916.44   935.30
                             1036.08  1061.07  1081.06  1094.58  1115.67
                             1118.55  1201.15  1242.49  1256.23  1271.23
                             1279.73  1384.53  1390.98  1396.73  1459.35
                             1464.42  1496.48  1519.51  1561.54  1630.70
                             1669.56  1672.77  1699.98  1725.01  1805.28
                             1854.05  1892.96  1957.44  1987.89  2012.76
                             2042.88  2148.46  2165.68  2185.50  2259.30
                             2305.39  2344.09  2399.23  2419.55  2464.65
                             4510.14  4584.70  4598.99  4628.04  4635.87
                             4642.42  4653.71  4655.81  4664.91

 Zero-point correction=                           0.189221 (Hartree/Particle)
 Thermal correction to Energy=                    0.201015
 Thermal correction to Enthalpy=                  0.201959
 Thermal correction to Gibbs Free Energy=         0.150685
 Sum of electronic and zero-point Energies=          -1028.623432
 Sum of electronic and thermal Energies=             -1028.611638
 Sum of electronic and thermal Enthalpies=           -1028.610694
 Sum of electronic and thermal Free Energies=        -1028.661968

                     E (Thermal)             CV                S
                      KCal/Mol        Cal/Mol-Kelvin    Cal/Mol-Kelvin
 Total                  126.139             47.992            107.916
 Electronic               0.000              0.000              0.000
 Translational            0.889              2.981             42.162
 Rotational               0.889              2.981             32.499
 Vibrational            124.361             42.031             33.255
 Vibration     1          0.596              1.975              4.597
 Vibration     2          0.599              1.967              4.075
 Vibration     3          0.607              1.939              3.230
 Vibration     4          0.614              1.915              2.833
 Vibration     5          0.637              1.842              2.145
 Vibration     6          0.653              1.792              1.864
 Vibration     7          0.673              1.732              1.608
 Vibration     8          0.697              1.661              1.380
 Vibration     9          0.699              1.656              1.366
 Vibration    10          0.773              1.452              0.933
 Vibration    11          0.791              1.407              0.861
 Vibration    12          0.808              1.362              0.797
 Vibration    13          0.866              1.226              0.631
 Vibration    14          0.882              1.189              0.593
 Vibration    15          0.893              1.166              0.570
 Vibration    16          0.910              1.131              0.536
 Vibration    17          0.918              1.113              0.520
 Vibration    18          0.940              1.068              0.480

                           ! Non-Optimized Parameters !
 Normal termination of Gaussian 16 at Tue Oct 27 23:48:03 2020.
