 Gaussian 16, Revision C.01,
 Gaussian 16:  ES64L-G16RevC.01  3-Jul-2019

 ----------------------------------------------------------------------
 #p opt=addgic freq wb97xd/cc-pvdz nosymm int=ultrafine scrf=(solvent=C
 arbonTetraChloride)
 ----------------------------------------------------------------------

 ------------------------------------------------
 NM 2D-scan of HBT TD-WB97XD pVDZ in CTC Relaxed.
 ------------------------------------------------
 Symbolic Z-matrix:
 Charge =  0 Multiplicity = 1

 SCF Done:  E(RwB97XD) =  -1028.77243691     A.U. after   16 cycles
 SCF Done:  E(RwB97XD) =  -1028.80623594     A.U. after   13 cycles
 SCF Done:  E(RwB97XD) =  -1028.80937627     A.U. after   13 cycles
 SCF Done:  E(RwB97XD) =  -1028.80995821     A.U. after   12 cycles
 SCF Done:  E(RwB97XD) =  -1028.81018588     A.U. after   11 cycles
 SCF Done:  E(RwB97XD) =  -1028.81019101     A.U. after   10 cycles
 Optimization completed.
    -- Stationary point found.
 Normal termination of Gaussian 16 at Tue Oct 27 22:34:44 2020.

 --------------------------------------------------------------------
 #P Geom=AllCheck Guess=TCheck SCRF=Check GenChk RwB97XD/CC-pVDZ Freq
 --------------------------------------------------------------------

 Structure from the checkpoint file:  "config_10_9.chk"
 ------------------------------------------------
 NM 2D-scan of HBT TD-WB97XD pVDZ in CTC Relaxed.
 ------------------------------------------------
 Charge =  0 Multiplicity = 1

                          Input orientation:
 ---------------------------------------------------------------------
 Center     Atomic      Atomic             Coordinates (Angstroms)
 Number     Number       Type             X           Y           Z
 ---------------------------------------------------------------------
      1          6           0        1.654852   -3.271884   -0.000024
      2          6           0        1.004396   -2.041576   -0.000016
      3          6           0        1.730581   -0.853698   -0.000014
      4          6           0        3.124872   -0.848800   -0.000016
      5          6           0        3.772889   -2.079908   -0.000022
      6          6           0        3.047621   -3.277411   -0.000027
      7          1           0        1.091468   -4.205006   -0.000027
      8          1           0        3.679065    0.090000   -0.000014
      9          1           0        4.863124   -2.109371   -0.000024
     10          1           0        3.577874   -4.230256   -0.000032
     11          7           0        0.887701    0.237506   -0.000013
     12         16           0       -0.732426   -1.697561   -0.000010
     13          6           0       -1.373524    1.082673    0.000004
     14          6           0       -2.772790    0.843092    0.000004
     15          6           0       -0.840852    2.445719    0.000017
     16          6           0       -3.675647    1.876989    0.000024
     17          1           0       -3.135550   -0.189113   -0.000012
     18          6           0       -1.850106    3.490570    0.000052
     19          6           0       -3.191831    3.213844    0.000051
     20          1           0       -4.747214    1.677213    0.000023
     21          1           0       -1.484247    4.519048    0.000076
     22          1           0       -3.909955    4.037927    0.000071
     23          6           0       -0.433499    0.022969   -0.000008
     24          8           0        0.388046    2.693984    0.000034
     25          1           0        1.210969    1.202801   -0.000012
 ---------------------------------------------------------------------

 SCF Done:  E(RwB97XD) =  -1028.81019101     A.U. after    1 cycles

 Alpha  occ. eigenvalues --  -89.10042 -19.21549 -14.51553 -10.41405 -10.37033
 Alpha  occ. eigenvalues --  -10.36157 -10.35944 -10.33303 -10.32928 -10.32546
 Alpha  occ. eigenvalues --  -10.32289 -10.31193 -10.30688 -10.30627 -10.29128
 Alpha  occ. eigenvalues --  -10.28585  -8.12059  -6.06943  -6.06558  -6.06067
 Alpha  occ. eigenvalues --   -1.13217  -1.09994  -0.98576  -0.95234  -0.93206
 Alpha  occ. eigenvalues --   -0.89273  -0.86557  -0.83949  -0.81828  -0.75684
 Alpha  occ. eigenvalues --   -0.73257  -0.71881  -0.69206  -0.67948  -0.64696
 Alpha  occ. eigenvalues --   -0.60904  -0.59762  -0.56716  -0.55955  -0.55858
 Alpha  occ. eigenvalues --   -0.55012  -0.53680  -0.52999  -0.50424  -0.49635
 Alpha  occ. eigenvalues --   -0.49051  -0.48240  -0.46730  -0.45603  -0.44767
 Alpha  occ. eigenvalues --   -0.44529  -0.43002  -0.41825  -0.40465  -0.36831
 Alpha  occ. eigenvalues --   -0.33550  -0.31838  -0.31650  -0.26379
 Alpha virt. eigenvalues --   -0.01254   0.03793   0.06020   0.06781   0.09278
 Alpha virt. eigenvalues --    0.11154   0.13386   0.14679   0.16049   0.17291
 Alpha virt. eigenvalues --    0.18791   0.20019   0.21138   0.21614   0.23109

 Mulliken charges:
               1
     1  C    0.013667
     2  C   -0.243567
     3  C    0.252397
     4  C   -0.009934
     5  C    0.011466
     6  C    0.002744
     7  H    0.024879
     8  H    0.031312
     9  H    0.027161
    10  H    0.025955
    11  N   -0.116862
    12  S    0.182173
    13  C   -0.119008
    14  C   -0.009141
    15  C    0.111116
    16  C   -0.032455
    17  H    0.005065
    18  C   -0.025558
    19  C    0.027333
    20  H    0.002568
    21  H    0.001844
    22  H    0.013601
    23  C    0.081120
    24  O   -0.389231
    25  H    0.131355
 Sum of Mulliken charges =  -0.00000

 Dipole moment (field-independent basis, Debye):
    X=              1.7886    Y=             -5.1585    Z=             -0.0001  Tot=              5.4597
 Quadrupole moment (field-independent basis, Debye-Ang):
   XX=            -82.0032   YY=            -94.9034   ZZ=           -104.0149
   XY=             -6.8537   XZ=             -0.0002   YZ=              0.0000

  Exact polarizability:     287.748     -87.209     285.386      -0.001       0.002      62.931
 Approx polarizability:     266.775     -33.310     255.522      -0.001       0.002      81.970

                      1                      2                      3
                      A                      A                      A
 Frequencies --     53.3497                66.2382               112.3144
 Red. masses --      4.7994                 6.1960                 5.6706
 Frc consts  --      0.0080                 0.0160                 0.0421
 IR Inten    --      0.0001                 2.5817                 1.2277

                      4                      5                      6
                      A                      A                      A
 Frequencies --    131.8482               196.1831               231.9059
 Red. masses --      5.3256                 6.0975                 5.9716
 Frc consts  --      0.0545                 0.1383                 0.1892
 IR Inten    --      1.0888                 0.0014                 0.7734

                      7                      8                      9
                      A                      A                      A
 Frequencies --    268.5601               307.9251               315.0979
 Red. masses --      7.5551                 5.3371                 6.4955
 Frc consts  --      0.3210                 0.2982                 0.3800
 IR Inten    --      5.4062                 1.2756                 4.7654

                     10                     11                     12
                      A                      A                      A
 Frequencies --    398.6905               428.7188               446.8925
 Red. masses --      9.6266                 3.2630                 3.5683
 Frc consts  --      0.9016                 0.3534                 0.4199
 IR Inten    --      4.3093                 0.3889                10.0872

                     13                     14                     15
                      A                      A                      A
 Frequencies --    506.6779               527.7284               538.0162
 Red. masses --      8.2458                 2.7756                 8.3108
 Frc consts  --      1.2472                 0.4554                 1.4174
 IR Inten    --      9.6030                 6.4054                 8.7467

                     16                     17                     18
                      A                      A                      A
 Frequencies --    554.9265               561.9542               584.2774
 Red. masses --      6.6239                 3.7856                 7.0958
 Frc consts  --      1.2018                 0.7044                 1.4272
 IR Inten    --      2.4555                 0.0044                36.5363

                     19                     20                     21
                      A                      A                      A
 Frequencies --    631.9594               656.5358               710.0259
 Red. masses --      4.8795                 5.8130                 6.0568
 Frc consts  --      1.1482                 1.4763                 1.7990
 IR Inten    --      1.4718                 5.4893                40.2587

                     22                     23                     24
                      A                      A                      A
 Frequencies --    740.5306               749.2624               755.0488
 Red. masses --      8.0904                 1.9413                 1.8316
 Frc consts  --      2.6140                 0.6421                 0.6152
 IR Inten    --     59.3492                 3.8915                64.9614

                     25                     26                     27
                      A                      A                      A
 Frequencies --    764.6657               776.8013               792.1855
 Red. masses --      1.3625                 1.5453                 1.7649
 Frc consts  --      0.4694                 0.5494                 0.6526
 IR Inten    --     16.8328                42.3310                65.4157

                     28                     29                     30
                      A                      A                      A
 Frequencies --    834.6949               878.1544               880.8027
 Red. masses --      6.0929                 1.9759                 4.0715
 Frc consts  --      2.5011                 0.8977                 1.8611
 IR Inten    --     19.5477                17.8658                 3.1373

                     31                     32                     33
                      A                      A                      A
 Frequencies --    883.0175               960.6773               968.6808
 Red. masses --      1.3786                 4.4267                 1.3218
 Frc consts  --      0.6333                 2.4070                 0.7307
 IR Inten    --      1.5061                39.5664                 0.2011

                     34                     35                     36
                      A                      A                      A
 Frequencies --    971.6348              1015.0619              1016.8378
 Red. masses --      1.3586                 1.3032                 1.3058
 Frc consts  --      0.7557                 0.7911                 0.7955
 IR Inten    --      1.4641                 0.0178                 0.3787

                     37                     38                     39
                      A                      A                      A
 Frequencies --   1043.2372              1055.6158              1084.1248
 Red. masses --      2.1606                 2.0399                 3.6954
 Frc consts  --      1.3854                 1.3393                 2.5590
 IR Inten    --     11.7322                12.7635                27.4540

                     40                     41                     42
                      A                      A                      A
 Frequencies --   1122.3474              1156.0929              1160.3155
 Red. masses --      2.1291                 1.3445                 1.1965
 Frc consts  --      1.5801                 1.0588                 0.9491
 IR Inten    --     87.0263                 2.9748                71.0670

                     43                     44                     45
                      A                      A                      A
 Frequencies --   1183.3499              1196.2353              1254.3012
 Red. masses --      1.1468                 1.2410                 1.9443
 Frc consts  --      0.9462                 1.0463                 1.8022
 IR Inten    --     15.6182                14.9513                 5.9719

                     46                     47                     48
                      A                      A                      A
 Frequencies --   1288.9989              1305.7516              1365.6191
 Red. masses --      1.5714                 2.7244                 2.8615
 Frc consts  --      1.5383                 2.7368                 3.1442
 IR Inten    --      9.9353               165.6300                32.6734

                     49                     50                     51
                      A                      A                      A
 Frequencies --   1389.0252              1392.2609              1418.0412
 Red. masses --      5.1989                 7.4406                 2.3421
 Frc consts  --      5.9099                 8.4977                 2.7748
 IR Inten    --    108.0951                26.2217                11.2477

                     52                     53                     54
                      A                      A                      A
 Frequencies --   1493.5783              1507.4701              1525.3429
 Red. masses --      2.7346                 2.8423                 3.2519
 Frc consts  --      3.5941                 3.8056                 4.4578
 IR Inten    --     38.5153               408.3776               142.7390

                     55                     56                     57
                      A                      A                      A
 Frequencies --   1559.0486              1601.6165              1636.0577
 Red. masses --      4.3426                 6.2565                 7.2491
 Frc consts  --      6.2190                 9.4558                11.4322
 IR Inten    --   1478.7688               175.3117               193.1030

                     58                     59                     60
                      A                      A                      A
 Frequencies --   1680.2017              1684.5559              1715.7562
 Red. masses --      7.3026                 7.2460                 7.1417
 Frc consts  --     12.1464                12.1148                12.3870
 IR Inten    --      1.4577               160.5192               317.2734

                     61                     62                     63
                      A                      A                      A
 Frequencies --   3181.9286              3193.2659              3217.7060
 Red. masses --      1.0892                 1.0880                 1.0865
 Frc consts  --      6.4971                 6.5365                 6.6278
 IR Inten    --      4.8185                15.0439                 1.6099

                     64                     65                     66
                      A                      A                      A
 Frequencies --   3219.9250              3228.1545              3233.6519
 Red. masses --      1.0946                 1.0908                 1.0969
 Frc consts  --      6.6862                 6.6976                 6.7579
 IR Inten    --     26.9581                 2.4555                19.0907

                     67                     68                     69
                      A                      A                      A
 Frequencies --   3237.1432              3243.6767              3453.3657
 Red. masses --      1.0963                 1.1000                 1.0845
 Frc consts  --      6.7686                 6.8188                 7.6200
 IR Inten    --      4.9336                11.4373               235.3697

 - Thermochemistry -
 -------------------
 Temperature   298.150 Kelvin.  Pressure   1.00000 Atm.
 Atom     1 has atomic number  6 and mass  12.00000

 Molecular mass:   227.04049 amu.
 Principal axes and moments of inertia in atomic units:
                           1         2         3
     Eigenvalues --  1297.807196342.599387640.40658
           X           -0.70489   0.70932   0.00000
           Y            0.70932   0.70489  -0.00001
           Z            0.00001   0.00001   1.00000
 This molecule is an asymmetric top.
 Rotational symmetry number  1.
 Warning -- assumption of classical behavior for rotation
           may cause significant error
 Rotational temperatures (Kelvin)      0.06674     0.01366     0.01134
 Rotational constants (GHZ):           1.39061     0.28454     0.23621
 Zero-point vibrational energy     497919.5 (Joules/Mol)
                                  119.00562 (Kcal/Mol)
 Warning -- explicit consideration of  18 degrees of freedom as
           vibrations may cause significant error
 Vibrational temperatures:     76.76    95.30   161.60   189.70   282.26
          (Kelvin)            333.66   386.40   443.04   453.36   573.63
                              616.83   642.98   729.00   759.28   774.09
                              798.42   808.53   840.64   909.25   944.61
                             1021.57  1065.46  1078.02  1086.35  1100.18
                             1117.64  1139.78  1200.94  1263.47  1267.28
                             1270.47  1382.20  1393.72  1397.97  1460.45
                             1463.00  1500.99  1518.80  1559.81  1614.81
                             1663.36  1669.44  1702.58  1721.12  1804.66
                             1854.58  1878.69  1964.82  1998.50  2003.15
                             2040.24  2148.93  2168.91  2194.63  2243.12
                             2304.37  2353.92  2417.44  2423.70  2468.59
                             4578.09  4594.40  4629.56  4632.75  4644.59
                             4652.50  4657.53  4666.93  4968.62

 Zero-point correction=                           0.189648 (Hartree/Particle)
 Thermal correction to Energy=                    0.201509
 Thermal correction to Enthalpy=                  0.202454
 Thermal correction to Gibbs Free Energy=         0.150945
 Sum of electronic and zero-point Energies=          -1028.620543
 Sum of electronic and thermal Energies=             -1028.608682
 Sum of electronic and thermal Enthalpies=           -1028.607737
 Sum of electronic and thermal Free Energies=        -1028.659246

                     E (Thermal)             CV                S
                      KCal/Mol        Cal/Mol-Kelvin    Cal/Mol-Kelvin
 Total                  126.449             48.198            108.408
 Electronic               0.000              0.000              0.000
 Translational            0.889              2.981             42.162
 Rotational               0.889              2.981             32.508
 Vibrational            124.672             42.236             33.737
 Vibration     1          0.596              1.976              4.689
 Vibration     2          0.598              1.970              4.262
 Vibration     3          0.607              1.939              3.229
 Vibration     4          0.612              1.922              2.919
 Vibration     5          0.636              1.845              2.169
 Vibration     6          0.653              1.792              1.864
 Vibration     7          0.673              1.731              1.605
 Vibration     8          0.698              1.659              1.373
 Vibration     9          0.702              1.645              1.335
 Vibration    10          0.765              1.473              0.967
 Vibration    11          0.790              1.408              0.863
 Vibration    12          0.806              1.368              0.805
 Vibration    13          0.862              1.235              0.642
 Vibration    14          0.883              1.189              0.592
 Vibration    15          0.893              1.166              0.570
 Vibration    16          0.910              1.129              0.534
 Vibration    17          0.918              1.114              0.520
 Vibration    18          0.941              1.065              0.477

 Optimization completed.
    -- Stationary point found.
 Normal termination of Gaussian 16 at Tue Oct 27 22:41:08 2020.
