 Gaussian 16, Revision C.01,
 Gaussian 16:  ES64L-G16RevC.01  3-Jul-2019

 ----------------------------------------------------------------------
 #p opt=addgic freq wb97xd/cc-pvdz nosymm int=ultrafine scrf=(solvent=C
 arbonTetraChloride)
 ----------------------------------------------------------------------

 ------------------------------------------------
 NM 2D-scan of HBT TD-WB97XD pVDZ in CTC Relaxed.
 ------------------------------------------------
 Symbolic Z-matrix:
 Charge =  0 Multiplicity = 1

 SCF Done:  E(RwB97XD) =  -1028.81064589     A.U. after   15 cycles
 SCF Done:  E(RwB97XD) =  -1028.81631186     A.U. after   13 cycles
 SCF Done:  E(RwB97XD) =  -1028.81759634     A.U. after   13 cycles
 SCF Done:  E(RwB97XD) =  -1028.81799434     A.U. after   12 cycles
 SCF Done:  E(RwB97XD) =  -1028.81817270     A.U. after   12 cycles
 SCF Done:  E(RwB97XD) =  -1028.81821390     A.U. after   10 cycles
 SCF Done:  E(RwB97XD) =  -1028.81821637     A.U. after    9 cycles
 Optimization completed.
    -- Stationary point found.
 Normal termination of Gaussian 16 at Tue Oct 27 22:08:51 2020.

 --------------------------------------------------------------------
 #P Geom=AllCheck Guess=TCheck SCRF=Check GenChk RwB97XD/CC-pVDZ Freq
 --------------------------------------------------------------------

 Structure from the checkpoint file:  "config_7_7.chk"
 ------------------------------------------------
 NM 2D-scan of HBT TD-WB97XD pVDZ in CTC Relaxed.
 ------------------------------------------------
 Charge =  0 Multiplicity = 1

                          Input orientation:
 ---------------------------------------------------------------------
 Center     Atomic      Atomic             Coordinates (Angstroms)
 Number     Number       Type             X           Y           Z
 ---------------------------------------------------------------------
      1          6           0        1.671637   -3.253019   -0.000036
      2          6           0        1.006749   -2.028600   -0.000023
      3          6           0        1.707666   -0.817372   -0.000009
      4          6           0        3.106220   -0.807444   -0.000007
      5          6           0        3.769421   -2.029057   -0.000019
      6          6           0        3.061357   -3.239755   -0.000034
      7          1           0        1.118735   -4.192518   -0.000049
      8          1           0        3.649799    0.137589    0.000004
      9          1           0        4.860123   -2.045607   -0.000017
     10          1           0        3.605916   -4.184773   -0.000044
     11          7           0        0.861218    0.272837    0.000001
     12         16           0       -0.726975   -1.726080   -0.000025
     13          6           0       -1.390823    1.063159    0.000015
     14          6           0       -2.777179    0.850340    0.000016
     15          6           0       -0.847455    2.389340    0.000028
     16          6           0       -3.661224    1.916491    0.000031
     17          1           0       -3.159777   -0.173927    0.000004
     18          6           0       -1.780924    3.460430    0.000041
     19          6           0       -3.145564    3.223251    0.000043
     20          1           0       -4.737350    1.743218    0.000033
     21          1           0       -1.385986    4.477403    0.000050
     22          1           0       -3.833578    4.071680    0.000054
     23          6           0       -0.422555   -0.013094   -0.000001
     24          8           0        0.438670    2.589879    0.000025
     25          1           0        0.918242    1.547727    0.000011
 ---------------------------------------------------------------------

 SCF Done:  E(RwB97XD) =  -1028.81821637     A.U. after    1 cycles

 Alpha  occ. eigenvalues --  -89.09435 -19.24689 -14.48213 -10.40175 -10.36702
 Alpha  occ. eigenvalues --  -10.35851 -10.35324 -10.32772 -10.32279 -10.32009
 Alpha  occ. eigenvalues --  -10.31946 -10.31572 -10.31464 -10.31058 -10.29670
 Alpha  occ. eigenvalues --  -10.29421  -8.11481  -6.06340  -6.05972  -6.05522
 Alpha  occ. eigenvalues --   -1.14369  -1.09788  -0.97761  -0.95690  -0.92367
 Alpha  occ. eigenvalues --   -0.88858  -0.85833  -0.84019  -0.82874  -0.75715
 Alpha  occ. eigenvalues --   -0.71637  -0.70758  -0.68995  -0.68433  -0.63532
 Alpha  occ. eigenvalues --   -0.60855  -0.59341  -0.57698  -0.56008  -0.54955
 Alpha  occ. eigenvalues --   -0.54563  -0.53544  -0.52473  -0.51064  -0.49850
 Alpha  occ. eigenvalues --   -0.49701  -0.47254  -0.46359  -0.45224  -0.45178
 Alpha  occ. eigenvalues --   -0.44130  -0.43099  -0.42175  -0.40347  -0.36373
 Alpha  occ. eigenvalues --   -0.34892  -0.32781  -0.31539  -0.28074
 Alpha virt. eigenvalues --   -0.00763   0.04365   0.06679   0.07327   0.07974
 Alpha virt. eigenvalues --    0.11071   0.14095   0.14947   0.16335   0.17781
 Alpha virt. eigenvalues --    0.19127   0.20726   0.21707   0.22239   0.22799

 Mulliken charges:
               1
     1  C    0.013790
     2  C   -0.234596
     3  C    0.269683
     4  C   -0.011147
     5  C    0.007824
     6  C    0.002830
     7  H    0.021586
     8  H    0.025700
     9  H    0.023596
    10  H    0.023850
    11  N   -0.293818
    12  S    0.169139
    13  C   -0.096690
    14  C   -0.016036
    15  C    0.104621
    16  C   -0.019057
    17  H    0.007587
    18  C   -0.010339
    19  C    0.023011
    20  H    0.006257
    21  H    0.009260
    22  H    0.016036
    23  C    0.076888
    24  O   -0.314108
    25  H    0.194132
 Sum of Mulliken charges =  -0.00000

 Dipole moment (field-independent basis, Debye):
    X=              0.7129    Y=             -3.7953    Z=             -0.0000  Tot=              3.8617
 Quadrupole moment (field-independent basis, Debye-Ang):
   XX=            -82.7022   YY=            -91.6715   ZZ=           -103.9946
   XY=             -7.1220   XZ=             -0.0001   YZ=              0.0002

  Exact polarizability:     278.488     -72.546     263.115      -0.001       0.002      62.911
 Approx polarizability:     264.330     -26.099     246.531      -0.000       0.002      82.161

 ******    1 imaginary frequencies (negative Signs) ******

                      1                      2                      3
                      A                      A                      A
 Frequencies --   -577.6439                37.2576                65.9952
 Red. masses --      1.2536                 5.1488                 6.2145
 Frc consts  --      0.2465                 0.0042                 0.0159
 IR Inten    --   1377.0218                 0.0270                 1.5381

                      4                      5                      6
                      A                      A                      A
 Frequencies --    144.5010               153.1124               198.7789
 Red. masses --      5.6190                 5.1086                 6.0535
 Frc consts  --      0.0691                 0.0706                 0.1409
 IR Inten    --      6.3596                 0.4841                 0.2598

                      7                      8                      9
                      A                      A                      A
 Frequencies --    243.1760               278.8752               324.5255
 Red. masses --      5.8511                 7.0625                 5.2426
 Frc consts  --      0.2039                 0.3236                 0.3253
 IR Inten    --      0.2451                 7.8415                 0.4237

                     10                     11                     12
                      A                      A                      A
 Frequencies --    393.1097               424.8743               434.7242
 Red. masses --      5.8879                10.4811                 3.1308
 Frc consts  --      0.5361                 1.1147                 0.3486
 IR Inten    --     19.6195                15.0571                 1.8395

                     13                     14                     15
                      A                      A                      A
 Frequencies --    459.3149               516.6912               539.4862
 Red. masses --      3.6228                 8.7381                 3.3530
 Frc consts  --      0.4503                 1.3744                 0.5750
 IR Inten    --      8.6425                 3.8068                 3.7929

                     16                     17                     18
                      A                      A                      A
 Frequencies --    559.6208               572.5789               584.6230
 Red. masses --      8.0387                 3.6568                 7.9488
 Frc consts  --      1.4833                 0.7064                 1.6007
 IR Inten    --     11.3045                 0.1252                 2.2371

                     19                     20                     21
                      A                      A                      A
 Frequencies --    649.1611               671.2457               701.2000
 Red. masses --      6.5154                 6.1998                 6.6358
 Frc consts  --      1.6177                 1.6458                 1.9223
 IR Inten    --      0.0093               157.8554                37.0334

                     22                     23                     24
                      A                      A                      A
 Frequencies --    733.0723               754.8240               768.3034
 Red. masses --      6.1938                 2.2520                 1.8481
 Frc consts  --      1.9611                 0.7560                 0.6427
 IR Inten    --     19.7196                19.4013                24.3507

                     25                     26                     27
                      A                      A                      A
 Frequencies --    775.6967               776.4201               782.9533
 Red. masses --      9.1292                 1.9471                 1.7431
 Frc consts  --      3.2364                 0.6916                 0.6296
 IR Inten    --     25.5064                40.8338                42.2953

                     28                     29                     30
                      A                      A                      A
 Frequencies --    854.1792               880.8020               886.1587
 Red. masses --      6.1411                 1.6273                 1.3965
 Frc consts  --      2.6399                 0.7438                 0.6461
 IR Inten    --     19.7399                 6.4894                 0.3975

                     31                     32                     33
                      A                      A                      A
 Frequencies --    933.2539               968.3824               975.4336
 Red. masses --      7.1163                 1.3486                 1.3608
 Frc consts  --      3.6518                 0.7451                 0.7628
 IR Inten    --     23.2641                 0.9315                 1.2210

                     34                     35                     36
                      A                      A                      A
 Frequencies --   1011.0316              1012.7215              1016.7225
 Red. masses --      1.3018                 7.4118                 1.3048
 Frc consts  --      0.7840                 4.4787                 0.7947
 IR Inten    --      0.2607                10.0438                 0.0000

                     37                     38                     39
                      A                      A                      A
 Frequencies --   1054.3577              1062.8219              1102.2249
 Red. masses --      2.0147                 1.9286                 3.7828
 Frc consts  --      1.3196                 1.2836                 2.7078
 IR Inten    --      7.1190                 9.5629                 4.5770

                     40                     41                     42
                      A                      A                      A
 Frequencies --   1152.4028              1156.8089              1168.0184
 Red. masses --      1.4683                 1.3200                 1.0577
 Frc consts  --      1.1489                 1.0408                 0.8502
 IR Inten    --     11.0057                 0.6514                68.1272

                     43                     44                     45
                      A                      A                      A
 Frequencies --   1175.4439              1185.8510              1260.2031
 Red. masses --      1.0949                 1.1823                 1.9416
 Frc consts  --      0.8913                 0.9796                 1.8167
 IR Inten    --     99.3551                 1.5613                70.7028

                     46                     47                     48
                      A                      A                      A
 Frequencies --   1289.8656              1320.0217              1360.8312
 Red. masses --      1.5207                 3.1010                 3.6737
 Frc consts  --      1.4907                 3.1835                 4.0083
 IR Inten    --      6.0975               338.2592                 5.4866

                     49                     50                     51
                      A                      A                      A
 Frequencies --   1381.4453              1385.1445              1397.7787
 Red. masses --      6.7077                 5.1575                 2.4191
 Frc consts  --      7.5421                 5.8301                 2.7847
 IR Inten    --      3.0090                28.8842                16.1700

                     52                     53                     54
                      A                      A                      A
 Frequencies --   1493.5468              1502.2224              1522.1277
 Red. masses --      2.8004                 2.8335                 3.6722
 Frc consts  --      3.6806                 3.7674                 5.0127
 IR Inten    --     21.8968                24.6738                30.0021

                     55                     56                     57
                      A                      A                      A
 Frequencies --   1571.4826              1582.5141              1615.2212
 Red. masses --      6.5467                 4.3537                 5.7553
 Frc consts  --      9.5256                 6.4240                 8.8467
 IR Inten    --   1123.0281               309.1399               180.1632

                     58                     59                     60
                      A                      A                      A
 Frequencies --   1661.7732              1684.4203              1709.8146
 Red. masses --      7.0331                 6.7840                 6.5908
 Frc consts  --     11.4431                11.3406                11.3524
 IR Inten    --      4.4400                15.7865               193.8955

                     61                     62                     63
                      A                      A                      A
 Frequencies --   1891.7826              3189.9880              3200.1128
 Red. masses --      1.1000                 1.0893                 1.0885
 Frc consts  --      2.3195                 6.5312                 6.5678
 IR Inten    --     85.3162                 4.1591                 8.9009

                     64                     65                     66
                      A                      A                      A
 Frequencies --   3214.6776              3223.9814              3225.9198
 Red. masses --      1.0865                 1.0940                 1.0909
 Frc consts  --      6.6155                 6.6995                 6.6888
 IR Inten    --      2.2346                15.5976                 3.5068

                     67                     68                     69
                      A                      A                      A
 Frequencies --   3235.2014              3236.7344              3242.2433
 Red. masses --      1.0977                 1.0960                 1.0996
 Frc consts  --      6.7690                 6.7654                 6.8104
 IR Inten    --     18.2124                 7.8283                11.2455

 - Thermochemistry -
 -------------------
 Temperature   298.150 Kelvin.  Pressure   1.00000 Atm.
 Atom     1 has atomic number  6 and mass  12.00000

 Molecular mass:   227.04049 amu.
 Principal axes and moments of inertia in atomic units:
                           1         2         3
     Eigenvalues --  1294.061756248.775267542.83701
           X           -0.70698   0.70724   0.00000
           Y            0.70724   0.70698  -0.00001
           Z            0.00001   0.00001   1.00000
 This molecule is an asymmetric top.
 Rotational symmetry number  1.
 Warning -- assumption of classical behavior for rotation
           may cause significant error
 Rotational temperatures (Kelvin)      0.06693     0.01386     0.01148
 Rotational constants (GHZ):           1.39463     0.28882     0.23927
    1 imaginary frequencies ignored.
 Zero-point vibrational energy     487716.3 (Joules/Mol)
                                  116.56698 (Kcal/Mol)
 Warning -- explicit consideration of  17 degrees of freedom as
           vibrations may cause significant error
 Vibrational temperatures:     53.61    94.95   207.90   220.29   286.00
          (Kelvin)            349.88   401.24   466.92   565.60   611.30
                              625.47   660.85   743.40   776.20   805.17
                              823.81   841.14   934.00   965.77  1008.87
                             1054.73  1086.02  1105.42  1116.05  1117.10
                             1126.50  1228.97  1267.28  1274.98  1342.74
                             1393.29  1403.43  1454.65  1457.08  1462.84
                             1516.99  1529.16  1585.86  1658.05  1664.39
                             1680.52  1691.20  1706.18  1813.15  1855.83
                             1899.22  1957.93  1987.59  1992.91  2011.09
                             2148.88  2161.36  2190.00  2261.01  2276.88
                             2323.94  2390.92  2423.51  2460.04  2721.85
                             4589.68  4604.25  4625.20  4638.59  4641.38
                             4654.73  4656.94  4664.86

 Zero-point correction=                           0.185761 (Hartree/Particle)
 Thermal correction to Energy=                    0.197116
 Thermal correction to Enthalpy=                  0.198060
 Thermal correction to Gibbs Free Energy=         0.147318
 Sum of electronic and zero-point Energies=          -1028.632455
 Sum of electronic and thermal Energies=             -1028.621101
 Sum of electronic and thermal Enthalpies=           -1028.620157
 Sum of electronic and thermal Free Energies=        -1028.670898

                     E (Thermal)             CV                S
                      KCal/Mol        Cal/Mol-Kelvin    Cal/Mol-Kelvin
 Total                  123.692             46.318            106.795
 Electronic               0.000              0.000              0.000
 Translational            0.889              2.981             42.162
 Rotational               0.889              2.981             32.478
 Vibrational            121.914             40.356             32.155
 Vibration     1          0.594              1.982              5.400
 Vibration     2          0.597              1.970              4.269
 Vibration     3          0.616              1.909              2.743
 Vibration     4          0.619              1.899              2.633
 Vibration     5          0.637              1.842              2.144
 Vibration     6          0.659              1.774              1.780
 Vibration     7          0.679              1.713              1.541
 Vibration     8          0.709              1.626              1.287
 Vibration     9          0.760              1.485              0.988
 Vibration    10          0.787              1.416              0.876
 Vibration    11          0.795              1.395              0.843
 Vibration    12          0.817              1.340              0.768
 Vibration    13          0.872              1.213              0.618
 Vibration    14          0.895              1.163              0.566
 Vibration    15          0.915              1.119              0.525
 Vibration    16          0.929              1.091              0.499
 Vibration    17          0.942              1.065              0.477

 Optimization completed.
    -- Stationary point found.
 Normal termination of Gaussian 16 at Tue Oct 27 22:15:03 2020.
