 Gaussian 16, Revision C.01,
 Gaussian 16:  ES64L-G16RevC.01  3-Jul-2019

 ----------------------------------------------------------------------
 #p opt=addgic freq wb97xd/cc-pvdz nosymm int=ultrafine scrf=(solvent=C
 arbonTetraChloride)
 ----------------------------------------------------------------------

 ------------------------------------------------
 NM 2D-scan of HBT TD-WB97XD pVDZ in CTC Relaxed.
 ------------------------------------------------
 Symbolic Z-matrix:
 Charge =  0 Multiplicity = 1

 SCF Done:  E(RwB97XD) =  -1028.26426377     A.U. after   15 cycles
 SCF Done:  E(RwB97XD) =  -1028.67275440     A.U. after   13 cycles
 SCF Done:  E(RwB97XD) =  -1028.80999543     A.U. after   15 cycles
 SCF Done:  E(RwB97XD) =  -1028.81467575     A.U. after   12 cycles
 SCF Done:  E(RwB97XD) =  -1028.81561007     A.U. after   12 cycles
 SCF Done:  E(RwB97XD) =  -1028.81574590     A.U. after   11 cycles
 SCF Done:  E(RwB97XD) =  -1028.81575438     A.U. after    9 cycles
 Optimization completed.
    -- Stationary point found.
 Normal termination of Gaussian 16 at Tue Oct 27 21:07:48 2020.

 --------------------------------------------------------------------
 #P Geom=AllCheck Guess=TCheck SCRF=Check GenChk RwB97XD/CC-pVDZ Freq
 --------------------------------------------------------------------

 Structure from the checkpoint file:  "config_1_3.chk"
 ------------------------------------------------
 NM 2D-scan of HBT TD-WB97XD pVDZ in CTC Relaxed.
 ------------------------------------------------
 Charge =  0 Multiplicity = 1

                          Input orientation:
 ---------------------------------------------------------------------
 Center     Atomic      Atomic             Coordinates (Angstroms)
 Number     Number       Type             X           Y           Z
 ---------------------------------------------------------------------
      1          6           0        1.752869   -3.336982    0.000103
      2          6           0        0.966778   -2.170254   -0.000075
      3          6           0        1.621847   -0.923287   -0.000178
      4          6           0        3.013928   -0.799717   -0.000152
      5          6           0        3.779974   -1.945489   -0.000001
      6          6           0        3.143637   -3.200713    0.000136
      7          1           0        1.303041   -4.330570    0.000178
      8          1           0        3.448680    0.200238   -0.000243
      9          1           0        4.869021   -1.884959    0.000023
     10          1           0        3.754842   -4.105071    0.000252
     11          7           0        0.834112    0.189233   -0.000248
     12         16           0       -0.779365   -1.873586   -0.000305
     13          6           0       -1.379764    1.072540   -0.000091
     14          6           0       -2.789865    0.923933   -0.000061
     15          6           0       -0.892648    2.422584    0.000023
     16          6           0       -3.651106    2.009199    0.000052
     17          1           0       -3.209742   -0.085086   -0.000137
     18          6           0       -1.777660    3.505812    0.000147
     19          6           0       -3.138485    3.315528    0.000157
     20          1           0       -4.728806    1.844464    0.000064
     21          1           0       -1.329697    4.499585    0.000239
     22          1           0       -3.809069    4.176473    0.000258
     23          6           0       -0.432407   -0.069593   -0.000206
     24          8           0        0.383500    2.871063    0.000088
     25          1           0        0.993831    2.131453    0.000077
 ---------------------------------------------------------------------

 SCF Done:  E(RwB97XD) =  -1028.81575438     A.U. after    1 cycles

 Alpha  occ. eigenvalues --  -89.08821 -19.28799 -14.46411 -10.39635 -10.37708
 Alpha  occ. eigenvalues --  -10.35096 -10.34322 -10.33318 -10.32524 -10.31928
 Alpha  occ. eigenvalues --  -10.31609 -10.31315 -10.31235 -10.31214 -10.30284
 Alpha  occ. eigenvalues --  -10.29881  -8.10641  -6.05522  -6.05169  -6.04671
 Alpha  occ. eigenvalues --   -1.16659  -1.08787  -0.97083  -0.95960  -0.90774
 Alpha  occ. eigenvalues --   -0.88398  -0.85206  -0.84395  -0.82816  -0.75429
 Alpha  occ. eigenvalues --   -0.71256  -0.70691  -0.69536  -0.67864  -0.62931
 Alpha  occ. eigenvalues --   -0.59938  -0.58512  -0.58238  -0.56324  -0.54429
 Alpha  occ. eigenvalues --   -0.53538  -0.53012  -0.52307  -0.50869  -0.50323
 Alpha  occ. eigenvalues --   -0.49096  -0.47728  -0.45663  -0.45159  -0.44841
 Alpha  occ. eigenvalues --   -0.43662  -0.42913  -0.42459  -0.39534  -0.37257
 Alpha  occ. eigenvalues --   -0.36051  -0.32013  -0.31678  -0.29083
 Alpha virt. eigenvalues --   -0.00371   0.04876   0.06723   0.07133   0.07181
 Alpha virt. eigenvalues --    0.11682   0.12242   0.15097   0.15628   0.17288
 Alpha virt. eigenvalues --    0.18971   0.20018   0.21704   0.22344   0.22857

 Mulliken charges:
               1
     1  C   -0.006422
     2  C   -0.206206
     3  C    0.224831
     4  C   -0.011883
     5  C    0.008613
     6  C   -0.003726
     7  H    0.021740
     8  H    0.014135
     9  H    0.018398
    10  H    0.021268
    11  N   -0.300355
    12  S    0.125482
    13  C   -0.068750
    14  C   -0.012671
    15  C    0.064272
    16  C   -0.007080
    17  H    0.009700
    18  C    0.024018
    19  C    0.017749
    20  H    0.010846
    21  H    0.017395
    22  H    0.017858
    23  C    0.058308
    24  O   -0.184633
    25  H    0.147111
 Sum of Mulliken charges =  -0.00000

 Dipole moment (field-independent basis, Debye):
    X=              0.2844    Y=             -1.7619    Z=              0.0002  Tot=              1.7847
 Quadrupole moment (field-independent basis, Debye-Ang):
   XX=            -82.5393   YY=            -89.6448   ZZ=           -104.3795
   XY=             -6.5521   XZ=              0.0003   YZ=              0.0001

  Exact polarizability:     275.762     -64.146     257.498       0.002       0.002      63.281
 Approx polarizability:     264.304     -21.591     244.630       0.003       0.001      82.386

                      1                      2                      3
                      A                      A                      A
 Frequencies --     39.3530                44.2382               105.4283
 Red. masses --      5.2647                 6.3251                 5.6255
 Frc consts  --      0.0048                 0.0073                 0.0368
 IR Inten    --      0.1860                 1.1437                 0.7961

                      4                      5                      6
                      A                      A                      A
 Frequencies --    148.2464               199.3729               241.9510
 Red. masses --      4.7630                 5.4463                 5.8831
 Frc consts  --      0.0617                 0.1276                 0.2029
 IR Inten    --      0.0114                 0.0272                 0.7028

                      7                      8                      9
                      A                      A                      A
 Frequencies --    242.2650               278.9474               322.4127
 Red. masses --      8.1987                 6.1535                 4.7368
 Frc consts  --      0.2835                 0.2821                 0.2901
 IR Inten    --      6.8331                 3.0622                 1.8482

                     10                     11                     12
                      A                      A                      A
 Frequencies --    390.4040               441.2557               468.3454
 Red. masses --      8.0910                 3.1625                 2.2550
 Frc consts  --      0.7266                 0.3628                 0.2914
 IR Inten    --      0.2016                 0.6367                50.0174

                     13                     14                     15
                      A                      A                      A
 Frequencies --    472.1814               484.8164               510.1823
 Red. masses --      4.4783                 1.3895                 8.9698
 Frc consts  --      0.5883                 0.1924                 1.3756
 IR Inten    --      2.7588                51.3792                 1.0517

                     16                     17                     18
                      A                      A                      A
 Frequencies --    539.6952               544.9614               572.5429
 Red. masses --      3.4316                 8.6736                 3.6782
 Frc consts  --      0.5889                 1.5177                 0.7104
 IR Inten    --      4.6487                 3.3527                 0.4243

                     19                     20                     21
                      A                      A                      A
 Frequencies --    596.3765               647.7842               660.2365
 Red. masses --      7.7214                 5.7374                 8.6541
 Frc consts  --      1.6180                 1.4185                 2.2226
 IR Inten    --      6.6593                 4.6741                63.6939

                     22                     23                     24
                      A                      A                      A
 Frequencies --    673.9151               711.4576               753.8944
 Red. masses --      6.6320                 7.0301                 1.9643
 Frc consts  --      1.7746                 2.0966                 0.6578
 IR Inten    --      1.3114                 2.6625                22.2859

                     25                     26                     27
                      A                      A                      A
 Frequencies --    763.7854               778.9055               787.6608
 Red. masses --      3.8563                 1.3062                 1.8933
 Frc consts  --      1.3254                 0.4669                 0.6921
 IR Inten    --      6.1946                61.1799                32.6104

                     28                     29                     30
                      A                      A                      A
 Frequencies --    830.4864               886.3799               887.2263
 Red. masses --      6.3369                 1.4599                 1.4997
 Frc consts  --      2.5751                 0.6758                 0.6956
 IR Inten    --     34.8621                 4.1493                 0.4982

                     31                     32                     33
                      A                      A                      A
 Frequencies --    891.7978               959.1989               975.0993
 Red. masses --      6.3533                 7.5709                 1.3540
 Frc consts  --      2.9770                 4.1041                 0.7585
 IR Inten    --      1.2643                84.1895                 2.1806

                     34                     35                     36
                      A                      A                      A
 Frequencies --    975.7690              1012.0525              1014.2679
 Red. masses --      1.3624                 1.3001                 1.3060
 Frc consts  --      0.7643                 0.7846                 0.7916
 IR Inten    --      0.3968                 0.2798                 0.0060

                     37                     38                     39
                      A                      A                      A
 Frequencies --   1048.4574              1069.8993              1085.5460
 Red. masses --      2.0722                 2.1505                 4.8598
 Frc consts  --      1.3421                 1.4503                 3.3742
 IR Inten    --      8.0347                25.7274                 5.3189

                     40                     41                     42
                      A                      A                      A
 Frequencies --   1130.6169              1148.3114              1176.8158
 Red. masses --      1.6849                 1.2603                 1.1135
 Frc consts  --      1.2690                 0.9791                 0.9086
 IR Inten    --     43.1833                 9.0232                66.5967

                     43                     44                     45
                      A                      A                      A
 Frequencies --   1182.0275              1196.3736              1264.1637
 Red. masses --      1.1861                 1.3044                 3.4048
 Frc consts  --      0.9764                 1.1000                 3.2059
 IR Inten    --      1.2237               155.2741                 6.9491

                     46                     47                     48
                      A                      A                      A
 Frequencies --   1264.5816              1279.3120              1339.5026
 Red. masses --      2.5370                 1.6984                 1.9137
 Frc consts  --      2.3904                 1.6378                 2.0231
 IR Inten    --     76.7536                 3.8320                 3.2189

                     49                     50                     51
                      A                      A                      A
 Frequencies --   1355.8636              1373.3260              1377.7805
 Red. masses --      3.8921                 3.4638                 4.1447
 Frc consts  --      4.2156                 3.8490                 4.6356
 IR Inten    --     18.7548                64.0127                20.5635

                     52                     53                     54
                      A                      A                      A
 Frequencies --   1487.1985              1491.1641              1512.3283
 Red. masses --      2.6151                 2.9819                 3.0953
 Frc consts  --      3.4078                 3.9066                 4.1710
 IR Inten    --     25.9516                21.1338               106.9647

                     55                     56                     57
                      A                      A                      A
 Frequencies --   1526.7600              1614.5682              1635.9478
 Red. masses --      3.1607                 8.4459                 6.2076
 Frc consts  --      4.3408                12.9720                 9.7885
 IR Inten    --     10.8601               166.3672                37.2900

                     58                     59                     60
                      A                      A                      A
 Frequencies --   1643.9356              1686.6463              1709.7918
 Red. masses --      7.4055                 6.9481                 6.6573
 Frc consts  --     11.7916                11.6457                11.4666
 IR Inten    --     71.5262                 0.6438                63.0541

                     61                     62                     63
                      A                      A                      A
 Frequencies --   3193.8065              3208.3846              3210.5190
 Red. masses --      1.0891                 1.0863                 1.0884
 Frc consts  --      6.5457                 6.5882                 6.6096
 IR Inten    --      3.9328                 0.4301                 5.2635

                     64                     65                     66
                      A                      A                      A
 Frequencies --   3220.4142              3228.1264              3229.9991
 Red. masses --      1.0898                 1.0957                 1.0940
 Frc consts  --      6.6590                 6.7276                 6.7247
 IR Inten    --      3.1566                15.5682                12.6409

                     67                     68                     69
                      A                      A                      A
 Frequencies --   3237.4791              3237.7300              3875.2851
 Red. masses --      1.0997                 1.1002                 1.0654
 Frc consts  --      6.7911                 6.7951                 9.4267
 IR Inten    --     22.4204                 6.1020               346.9135

 - Thermochemistry -
 -------------------
 Temperature   298.150 Kelvin.  Pressure   1.00000 Atm.
 Atom     1 has atomic number  6 and mass  12.00000

 Molecular mass:   227.04049 amu.
 Principal axes and moments of inertia in atomic units:
                           1         2         3
     Eigenvalues --  1381.299116422.529887803.82896
           X           -0.68873   0.72502  -0.00002
           Y            0.72502   0.68873  -0.00004
           Z            0.00001   0.00005   1.00000
 This molecule is an asymmetric top.
 Rotational symmetry number  1.
 Warning -- assumption of classical behavior for rotation
           may cause significant error
 Rotational temperatures (Kelvin)      0.06270     0.01349     0.01110
 Rotational constants (GHZ):           1.30655     0.28100     0.23126
 Zero-point vibrational energy     497021.8 (Joules/Mol)
                                  118.79106 (Kcal/Mol)
 Warning -- explicit consideration of  19 degrees of freedom as
           vibrations may cause significant error
 Vibrational temperatures:     56.62    63.65   151.69   213.29   286.85
          (Kelvin)            348.11   348.57   401.34   463.88   561.70
                              634.87   673.84   679.36   697.54   734.04
                              776.50   784.08   823.76   858.05   932.02
                              949.93   969.61  1023.63  1084.69  1098.92
                             1120.67  1133.27  1194.88  1275.30  1276.52
                             1283.10  1380.07  1402.95  1403.91  1456.12
                             1459.31  1508.50  1539.35  1561.86  1626.71
                             1652.16  1693.18  1700.67  1721.31  1818.85
                             1819.45  1840.64  1927.25  1950.79  1975.91
                             1982.32  2139.75  2145.45  2175.90  2196.67
                             2323.00  2353.76  2365.26  2426.71  2460.01
                             4595.18  4616.15  4619.22  4633.46  4644.55
                             4647.25  4658.01  4658.37  5575.67

 Zero-point correction=                           0.189306 (Hartree/Particle)
 Thermal correction to Energy=                    0.201439
 Thermal correction to Enthalpy=                  0.202383
 Thermal correction to Gibbs Free Energy=         0.149867
 Sum of electronic and zero-point Energies=          -1028.626449
 Sum of electronic and thermal Energies=             -1028.614315
 Sum of electronic and thermal Enthalpies=           -1028.613371
 Sum of electronic and thermal Free Energies=        -1028.665888

                     E (Thermal)             CV                S
                      KCal/Mol        Cal/Mol-Kelvin    Cal/Mol-Kelvin
 Total                  126.405             48.953            110.531
 Electronic               0.000              0.000              0.000
 Translational            0.889              2.981             42.162
 Rotational               0.889              2.981             32.604
 Vibrational            124.628             42.991             35.765
 Vibration     1          0.594              1.981              5.291
 Vibration     2          0.595              1.980              5.060
 Vibration     3          0.605              1.945              3.351
 Vibration     4          0.618              1.905              2.695
 Vibration     5          0.637              1.841              2.139
 Vibration     6          0.658              1.776              1.788
 Vibration     7          0.658              1.776              1.786
 Vibration     8          0.679              1.712              1.540
 Vibration     9          0.707              1.631              1.298
 Vibration    10          0.758              1.491              0.999
 Vibration    11          0.801              1.380              0.823
 Vibration    12          0.826              1.320              0.742
 Vibration    13          0.829              1.312              0.731
 Vibration    14          0.841              1.284              0.697
 Vibration    15          0.865              1.227              0.633
 Vibration    16          0.895              1.162              0.566
 Vibration    17          0.900              1.151              0.555
 Vibration    18          0.929              1.091              0.499
 Vibration    19          0.954              1.039              0.456

 Optimization completed.
    -- Stationary point found.
 Normal termination of Gaussian 16 at Tue Oct 27 21:13:42 2020.
