 Gaussian 16, Revision C.01,
 Gaussian 16:  ES64L-G16RevC.01  3-Jul-2019

 ----------------------------------------------------------------------
 #p opt=addgic freq wb97xd/cc-pvdz nosymm int=ultrafine scrf=(solvent=C
 arbonTetraChloride)
 ----------------------------------------------------------------------

 ------------------------------------------------
 NM 2D-scan of HBT TD-WB97XD pVDZ in CTC Relaxed.
 ------------------------------------------------
 Symbolic Z-matrix:
 Charge =  0 Multiplicity = 1

 SCF Done:  E(RwB97XD) =  -1028.79047366     A.U. after   16 cycles
 SCF Done:  E(RwB97XD) =  -1028.80981106     A.U. after   14 cycles
 SCF Done:  E(RwB97XD) =  -1028.81157817     A.U. after   13 cycles
 SCF Done:  E(RwB97XD) =  -1028.81215252     A.U. after   12 cycles
 SCF Done:  E(RwB97XD) =  -1028.81219284     A.U. after   10 cycles
 SCF Done:  E(RwB97XD) =  -1028.81219834     A.U. after    9 cycles
 SCF Done:  E(RwB97XD) =  -1028.81219878     A.U. after    9 cycles
 Optimization completed.
    -- Stationary point found.
 Normal termination of Gaussian 16 at Tue Oct 27 23:58:17 2020.

 --------------------------------------------------------------------
 #P Geom=AllCheck Guess=TCheck SCRF=Check GenChk RwB97XD/CC-pVDZ Freq
 --------------------------------------------------------------------

 Structure from the checkpoint file:  "config_9_14.chk"
 ------------------------------------------------
 NM 2D-scan of HBT TD-WB97XD pVDZ in CTC Relaxed.
 ------------------------------------------------
 Charge =  0 Multiplicity = 1

                          Input orientation:
 ---------------------------------------------------------------------
 Center     Atomic      Atomic             Coordinates (Angstroms)
 Number     Number       Type             X           Y           Z
 ---------------------------------------------------------------------
      1          6           0        1.580679   -3.269726   -0.000042
      2          6           0        0.994646   -2.008093   -0.000024
      3          6           0        1.763918   -0.837891   -0.000005
      4          6           0        3.157714   -0.913506   -0.000003
      5          6           0        3.745003   -2.176842   -0.000022
      6          6           0        2.969733   -3.343348   -0.000041
      7          1           0        0.967561   -4.171212   -0.000057
      8          1           0        3.763347   -0.006962    0.000012
      9          1           0        4.832896   -2.255430   -0.000020
     10          1           0        3.457177   -4.318829   -0.000054
     11          7           0        0.961922    0.296603    0.000013
     12         16           0       -0.719616   -1.625671   -0.000019
     13          6           0       -1.328218    1.104115    0.000025
     14          6           0       -2.715623    0.785593    0.000034
     15          6           0       -0.865159    2.484498    0.000028
     16          6           0       -3.666059    1.768136    0.000041
     17          1           0       -3.024449   -0.263651    0.000037
     18          6           0       -1.920085    3.478447    0.000023
     19          6           0       -3.244194    3.129175    0.000032
     20          1           0       -4.727202    1.519555    0.000050
     21          1           0       -1.609988    4.524970    0.000012
     22          1           0       -4.003028    3.915888    0.000031
     23          6           0       -0.360346    0.080940    0.000009
     24          8           0        0.357757    2.788354    0.000003
     25          1           0        1.221660    1.303768    0.000033
 ---------------------------------------------------------------------

 SCF Done:  E(RwB97XD) =  -1028.81219878     A.U. after    1 cycles

 Alpha  occ. eigenvalues --  -89.09819 -19.21690 -14.51892 -10.41161 -10.37321
 Alpha  occ. eigenvalues --  -10.36146 -10.35895 -10.33193 -10.32921 -10.32476
 Alpha  occ. eigenvalues --  -10.32256 -10.31221 -10.30791 -10.30442 -10.29210
 Alpha  occ. eigenvalues --  -10.28689  -8.11885  -6.06761  -6.06384  -6.05894
 Alpha  occ. eigenvalues --   -1.12873  -1.09762  -0.98521  -0.95440  -0.93223
 Alpha  occ. eigenvalues --   -0.89216  -0.86650  -0.83792  -0.81971  -0.75620
 Alpha  occ. eigenvalues --   -0.72867  -0.72089  -0.68927  -0.67975  -0.64769
 Alpha  occ. eigenvalues --   -0.60908  -0.59711  -0.56788  -0.55826  -0.55770
 Alpha  occ. eigenvalues --   -0.55011  -0.53821  -0.52992  -0.50234  -0.49701
 Alpha  occ. eigenvalues --   -0.49046  -0.48271  -0.46746  -0.45577  -0.44800
 Alpha  occ. eigenvalues --   -0.44484  -0.43013  -0.41888  -0.40460  -0.36787
 Alpha  occ. eigenvalues --   -0.33502  -0.32042  -0.31611  -0.26493
 Alpha virt. eigenvalues --   -0.01210   0.03849   0.05859   0.06904   0.09168
 Alpha virt. eigenvalues --    0.11183   0.14053   0.14788   0.16221   0.17426
 Alpha virt. eigenvalues --    0.18678   0.20076   0.20990   0.21559   0.23000

 Mulliken charges:
               1
     1  C    0.017177
     2  C   -0.233712
     3  C    0.255223
     4  C   -0.010845
     5  C    0.009309
     6  C    0.003721
     7  H    0.024364
     8  H    0.030268
     9  H    0.026685
    10  H    0.025781
    11  N   -0.146000
    12  S    0.182987
    13  C   -0.103150
    14  C   -0.016058
    15  C    0.107162
    16  C   -0.029714
    17  H    0.010689
    18  C   -0.022433
    19  C    0.026552
    20  H    0.002598
    21  H    0.002873
    22  H    0.013983
    23  C    0.073024
    24  O   -0.395162
    25  H    0.144677
 Sum of Mulliken charges =  -0.00000

 Dipole moment (field-independent basis, Debye):
    X=              1.6394    Y=             -5.2170    Z=              0.0000  Tot=              5.4685
 Quadrupole moment (field-independent basis, Debye-Ang):
   XX=            -81.8800   YY=            -95.4022   ZZ=           -104.0071
   XY=             -6.8395   XZ=             -0.0000   YZ=              0.0002

  Exact polarizability:     285.839     -85.975     283.565      -0.001       0.002      62.862
 Approx polarizability:     265.364     -31.802     255.308      -0.001       0.001      81.926

                      1                      2                      3
                      A                      A                      A
 Frequencies --     55.8595                71.5875               106.3746
 Red. masses --      5.8266                 4.7701                 5.7041
 Frc consts  --      0.0107                 0.0144                 0.0380
 IR Inten    --      1.0900                 1.0269                 2.4658

                      4                      5                      6
                      A                      A                      A
 Frequencies --    137.1428               198.5161               231.0255
 Red. masses --      5.4394                 6.2455                 6.0478
 Frc consts  --      0.0603                 0.1450                 0.1902
 IR Inten    --      1.6282                 0.0015                 0.8227

                      7                      8                      9
                      A                      A                      A
 Frequencies --    264.6452               301.4789               309.0981
 Red. masses --      7.6755                 6.4316                 5.3861
 Frc consts  --      0.3167                 0.3444                 0.3032
 IR Inten    --      9.2832                 2.4452                 0.7282

                     10                     11                     12
                      A                      A                      A
 Frequencies --    407.7903               428.9587               449.3163
 Red. masses --      9.7102                 3.2524                 3.5365
 Frc consts  --      0.9514                 0.3526                 0.4207
 IR Inten    --      3.2256                 0.0566                10.3693

                     13                     14                     15
                      A                      A                      A
 Frequencies --    510.5130               526.3800               535.3784
 Red. masses --      8.5536                 2.7541                 7.1548
 Frc consts  --      1.3134                 0.4496                 1.2083
 IR Inten    --     10.9814                 5.4781                 6.4815

                     16                     17                     18
                      A                      A                      A
 Frequencies --    551.9336               561.9138               582.1369
 Red. masses --      6.8654                 3.8303                 6.9648
 Frc consts  --      1.2322                 0.7126                 1.3906
 IR Inten    --      6.9358                 0.0265                35.7449

                     19                     20                     21
                      A                      A                      A
 Frequencies --    636.1503               649.4730               720.2008
 Red. masses --      5.6398                 5.7525                 5.9724
 Frc consts  --      1.3447                 1.4296                 1.8252
 IR Inten    --      0.3822                 4.9155                38.1980

                     22                     23                     24
                      A                      A                      A
 Frequencies --    737.5048               751.3200               760.2970
 Red. masses --      8.0640                 2.6748                 1.4511
 Frc consts  --      2.5842                 0.8896                 0.4942
 IR Inten    --     69.4292                 6.8040                61.0703

                     25                     26                     27
                      A                      A                      A
 Frequencies --    774.8264               777.2072               834.5610
 Red. masses --      1.6994                 2.0794                 5.3161
 Frc consts  --      0.6011                 0.7400                 2.1815
 IR Inten    --     16.8923                39.9438                18.0091

                     28                     29                     30
                      A                      A                      A
 Frequencies --    860.6961               864.8739               881.6994
 Red. masses --      4.0488                 1.1701                 1.7957
 Frc consts  --      1.7672                 0.5157                 0.8225
 IR Inten    --      8.4441                35.1441                58.4371

                     31                     32                     33
                      A                      A                      A
 Frequencies --    883.9198               961.2749               966.0578
 Red. masses --      1.3827                 4.6572                 1.3235
 Frc consts  --      0.6365                 2.5356                 0.7277
 IR Inten    --      0.3378                34.8237                 0.1254

                     34                     35                     36
                      A                      A                      A
 Frequencies --    970.7690              1014.0436              1018.2101
 Red. masses --      1.3606                 1.3040                 1.3077
 Frc consts  --      0.7555                 0.7900                 0.7988
 IR Inten    --      1.2772                 0.0246                 0.3995

                     37                     38                     39
                      A                      A                      A
 Frequencies --   1038.8802              1055.7182              1084.9527
 Red. masses --      2.1816                 2.0593                 3.5388
 Frc consts  --      1.3873                 1.3523                 2.4543
 IR Inten    --     16.0262                11.4527                27.7799

                     40                     41                     42
                      A                      A                      A
 Frequencies --   1132.3299              1160.4953              1163.0397
 Red. masses --      2.0399                 1.3899                 1.2181
 Frc consts  --      1.5410                 1.1029                 0.9708
 IR Inten    --     70.7721                 0.2913                62.6112

                     43                     44                     45
                      A                      A                      A
 Frequencies --   1180.5520              1197.3485              1251.9912
 Red. masses --      1.1495                 1.2811                 1.9605
 Frc consts  --      0.9439                 1.0821                 1.8106
 IR Inten    --     16.7757                15.9664                18.7150

                     46                     47                     48
                      A                      A                      A
 Frequencies --   1287.8496              1311.8305              1358.3275
 Red. masses --      1.6084                 2.6913                 3.3654
 Frc consts  --      1.5717                 2.7287                 3.6584
 IR Inten    --     18.3746               132.8457                12.1923

                     49                     50                     51
                      A                      A                      A
 Frequencies --   1380.7025              1399.3877              1419.6987
 Red. masses --      4.3280                 5.1151                 2.6805
 Frc consts  --      4.8612                 5.9018                 3.1831
 IR Inten    --     94.7209                35.9870                20.1887

                     52                     53                     54
                      A                      A                      A
 Frequencies --   1492.2614              1504.6134              1518.2036
 Red. masses --      2.6773                 2.7081                 3.3052
 Frc consts  --      3.5126                 3.6121                 4.4886
 IR Inten    --     11.7953               142.3747                53.7521

                     55                     56                     57
                      A                      A                      A
 Frequencies --   1568.1130              1601.7036              1632.1539
 Red. masses --      4.2683                 5.7616                 8.2219
 Frc consts  --      6.1838                 8.7088                12.9046
 IR Inten    --   1801.7780               132.1205               366.6207

                     58                     59                     60
                      A                      A                      A
 Frequencies --   1667.1458              1681.4719              1713.2671
 Red. masses --      7.0893                 7.0176                 6.7709
 Frc consts  --     11.6092                11.6901                11.7097
 IR Inten    --     29.9845                77.1922               314.2396

                     61                     62                     63
                      A                      A                      A
 Frequencies --   3186.7230              3187.7181              3196.3567
 Red. masses --      1.0880                 1.0888                 1.0881
 Frc consts  --      6.5099                 6.5186                 6.5496
 IR Inten    --    247.8054                49.6599                10.9887

                     64                     65                     66
                      A                      A                      A
 Frequencies --   3216.0774              3221.5261              3225.9186
 Red. masses --      1.0863                 1.0949                 1.0907
 Frc consts  --      6.6198                 6.6951                 6.6877
 IR Inten    --      1.1100                26.6369                 3.3960

                     67                     68                     69
                      A                      A                      A
 Frequencies --   3234.1499              3235.0121              3241.5526
 Red. masses --      1.0976                 1.0960                 1.0999
 Frc consts  --      6.7640                 6.7581                 6.8093
 IR Inten    --     18.3427                 7.0618                 9.2386

 - Thermochemistry -
 -------------------
 Temperature   298.150 Kelvin.  Pressure   1.00000 Atm.
 Atom     1 has atomic number  6 and mass  12.00000

 Molecular mass:   227.04049 amu.
 Principal axes and moments of inertia in atomic units:
                           1         2         3
     Eigenvalues --  1291.382896327.928117619.31100
           X           -0.70336   0.71083   0.00000
           Y            0.71083   0.70336  -0.00001
           Z            0.00001   0.00000   1.00000
 This molecule is an asymmetric top.
 Rotational symmetry number  1.
 Warning -- assumption of classical behavior for rotation
           may cause significant error
 Rotational temperatures (Kelvin)      0.06707     0.01369     0.01137
 Rotational constants (GHZ):           1.39753     0.28520     0.23686
 Zero-point vibrational energy     496690.7 (Joules/Mol)
                                  118.71193 (Kcal/Mol)
 Warning -- explicit consideration of  18 degrees of freedom as
           vibrations may cause significant error
 Vibrational temperatures:     80.37   103.00   153.05   197.32   285.62
          (Kelvin)            332.39   380.77   433.76   444.72   586.72
                              617.18   646.47   734.51   757.34   770.29
                              794.11   808.47   837.57   915.28   934.45
                             1036.21  1061.10  1080.98  1093.90  1114.80
                             1118.23  1200.75  1238.35  1244.36  1268.57
                             1271.76  1383.06  1389.94  1396.72  1458.98
                             1464.98  1494.72  1518.94  1561.00  1629.17
                             1669.69  1673.35  1698.55  1722.72  1801.34
                             1852.93  1887.43  1954.33  1986.52  2013.41
                             2042.63  2147.03  2164.80  2184.36  2256.16
                             2304.49  2348.31  2398.65  2419.26  2465.01
                             4584.98  4586.42  4598.84  4627.22  4635.06
                             4641.38  4653.22  4654.46  4663.87

 Zero-point correction=                           0.189180 (Hartree/Particle)
 Thermal correction to Energy=                    0.201014
 Thermal correction to Enthalpy=                  0.201958
 Thermal correction to Gibbs Free Energy=         0.150565
 Sum of electronic and zero-point Energies=          -1028.623019
 Sum of electronic and thermal Energies=             -1028.611185
 Sum of electronic and thermal Enthalpies=           -1028.610240
 Sum of electronic and thermal Free Energies=        -1028.661633

                     E (Thermal)             CV                S
                      KCal/Mol        Cal/Mol-Kelvin    Cal/Mol-Kelvin
 Total                  126.138             48.079            108.165
 Electronic               0.000              0.000              0.000
 Translational            0.889              2.981             42.162
 Rotational               0.889              2.981             32.499
 Vibrational            124.361             42.117             33.505
 Vibration     1          0.596              1.975              4.598
 Vibration     2          0.598              1.968              4.109
 Vibration     3          0.605              1.944              3.334
 Vibration     4          0.614              1.916              2.843
 Vibration     5          0.637              1.842              2.147
 Vibration     6          0.653              1.794              1.871
 Vibration     7          0.671              1.738              1.631
 Vibration     8          0.693              1.671              1.409
 Vibration     9          0.698              1.656              1.367
 Vibration    10          0.772              1.453              0.934
 Vibration    11          0.790              1.407              0.862
 Vibration    12          0.808              1.362              0.798
 Vibration    13          0.866              1.227              0.632
 Vibration    14          0.881              1.192              0.595
 Vibration    15          0.890              1.172              0.575
 Vibration    16          0.907              1.135              0.540
 Vibration    17          0.918              1.114              0.520
 Vibration    18          0.939              1.070              0.481

 Optimization completed.
    -- Stationary point found.
 Normal termination of Gaussian 16 at Wed Oct 28 00:04:32 2020.
