 Gaussian 16, Revision C.01,
 Gaussian 16:  ES64L-G16RevC.01  3-Jul-2019

 ----------------------------------------------------------------------
 #p opt=addgic freq wb97xd/cc-pvdz nosymm int=ultrafine scrf=(solvent=C
 arbonTetraChloride)
 ----------------------------------------------------------------------

 ------------------------------------------------
 NM 2D-scan of HBT TD-WB97XD pVDZ in CTC Relaxed.
 ------------------------------------------------
 Symbolic Z-matrix:
 Charge =  0 Multiplicity = 1

 SCF Done:  E(RwB97XD) =  -1028.79719437     A.U. after   16 cycles
 SCF Done:  E(RwB97XD) =  -1028.81143245     A.U. after   14 cycles
 SCF Done:  E(RwB97XD) =  -1028.81258771     A.U. after   13 cycles
 SCF Done:  E(RwB97XD) =  -1028.81320494     A.U. after   12 cycles
 SCF Done:  E(RwB97XD) =  -1028.81323337     A.U. after   10 cycles
 SCF Done:  E(RwB97XD) =  -1028.81323610     A.U. after    9 cycles
 Optimization completed.
    -- Stationary point found.
 Normal termination of Gaussian 16 at Tue Oct 27 23:10:35 2020.

 --------------------------------------------------------------------
 #P Geom=AllCheck Guess=TCheck SCRF=Check GenChk RwB97XD/CC-pVDZ Freq
 --------------------------------------------------------------------

 Structure from the checkpoint file:  "config_9_11.chk"
 ------------------------------------------------
 NM 2D-scan of HBT TD-WB97XD pVDZ in CTC Relaxed.
 ------------------------------------------------
 Charge =  0 Multiplicity = 1

                          Input orientation:
 ---------------------------------------------------------------------
 Center     Atomic      Atomic             Coordinates (Angstroms)
 Number     Number       Type             X           Y           Z
 ---------------------------------------------------------------------
      1          6           0        1.621251   -3.268017   -0.000044
      2          6           0        0.996981   -2.023736   -0.000025
      3          6           0        1.739844   -0.837420   -0.000003
      4          6           0        3.134794   -0.870048    0.000001
      5          6           0        3.757901   -2.114293   -0.000018
      6          6           0        3.012646   -3.300561   -0.000041
      7          1           0        1.037211   -4.188554   -0.000060
      8          1           0        3.710659    0.055598    0.000018
      9          1           0        4.847469   -2.163949   -0.000016
     10          1           0        3.526487   -4.262445   -0.000055
     11          7           0        0.918646    0.277128    0.000012
     12         16           0       -0.728916   -1.671189   -0.000019
     13          6           0       -1.351447    1.086862    0.000017
     14          6           0       -2.746256    0.813950    0.000025
     15          6           0       -0.849338    2.454606    0.000021
     16          6           0       -3.665795    1.828748    0.000040
     17          1           0       -3.087132   -0.225483    0.000023
     18          6           0       -1.868055    3.480289    0.000028
     19          6           0       -3.203548    3.174440    0.000041
     20          1           0       -4.734110    1.612992    0.000048
     21          1           0       -1.522341    4.515506    0.000022
     22          1           0       -3.936525    3.985208    0.000048
     23          6           0       -0.397170    0.044053    0.000004
     24          8           0        0.383685    2.730614   -0.000013
     25          1           0        1.153316    1.300164    0.000037
 ---------------------------------------------------------------------

 SCF Done:  E(RwB97XD) =  -1028.81323610     A.U. after    1 cycles

 Alpha  occ. eigenvalues --  -89.09935 -19.21826 -14.51480 -10.41160 -10.37154
 Alpha  occ. eigenvalues --  -10.36196 -10.35932 -10.33221 -10.32839 -10.32451
 Alpha  occ. eigenvalues --  -10.32250 -10.31254 -10.30774 -10.30593 -10.29208
 Alpha  occ. eigenvalues --  -10.28683  -8.11972  -6.06849  -6.06473  -6.05984
 Alpha  occ. eigenvalues --   -1.12994  -1.09829  -0.98477  -0.95330  -0.93171
 Alpha  occ. eigenvalues --   -0.89232  -0.86545  -0.83857  -0.82002  -0.75686
 Alpha  occ. eigenvalues --   -0.72692  -0.71966  -0.68941  -0.68007  -0.64680
 Alpha  occ. eigenvalues --   -0.60892  -0.59710  -0.56798  -0.55808  -0.55724
 Alpha  occ. eigenvalues --   -0.54984  -0.53725  -0.52978  -0.50381  -0.49767
 Alpha  occ. eigenvalues --   -0.49081  -0.48210  -0.46716  -0.45546  -0.44806
 Alpha  occ. eigenvalues --   -0.44482  -0.43061  -0.41848  -0.40497  -0.36757
 Alpha  occ. eigenvalues --   -0.33467  -0.32246  -0.31613  -0.26580
 Alpha virt. eigenvalues --   -0.01199   0.03863   0.05979   0.06812   0.09085
 Alpha virt. eigenvalues --    0.11123   0.13824   0.14746   0.16171   0.17436
 Alpha virt. eigenvalues --    0.18881   0.20176   0.21124   0.21607   0.23115

 Mulliken charges:
               1
     1  C    0.015552
     2  C   -0.237314
     3  C    0.261127
     4  C   -0.010007
     5  C    0.010140
     6  C    0.002993
     7  H    0.024602
     8  H    0.030576
     9  H    0.026580
    10  H    0.025745
    11  N   -0.148471
    12  S    0.183643
    13  C   -0.113280
    14  C   -0.012286
    15  C    0.112005
    16  C   -0.029735
    17  H    0.007764
    18  C   -0.019200
    19  C    0.026152
    20  H    0.002789
    21  H    0.002950
    22  H    0.013884
    23  C    0.072457
    24  O   -0.399937
    25  H    0.151271
 Sum of Mulliken charges =  -0.00000

 Dipole moment (field-independent basis, Debye):
    X=              1.5607    Y=             -5.1015    Z=              0.0001  Tot=              5.3349
 Quadrupole moment (field-independent basis, Debye-Ang):
   XX=            -82.1300   YY=            -94.8267   ZZ=           -104.0155
   XY=             -6.9434   XZ=              0.0000   YZ=              0.0004

  Exact polarizability:     285.702     -84.980     282.637      -0.001       0.002      62.895
 Approx polarizability:     265.739     -31.652     255.321      -0.001       0.002      81.975

                      1                      2                      3
                      A                      A                      A
 Frequencies --     55.9834                74.3113               110.8937
 Red. masses --      5.6261                 4.9570                 5.6531
 Frc consts  --      0.0104                 0.0161                 0.0410
 IR Inten    --      0.9001                 1.2681                 2.6000

                      4                      5                      6
                      A                      A                      A
 Frequencies --    139.3581               199.1831               233.6841
 Red. masses --      5.3670                 6.2042                 6.1363
 Frc consts  --      0.0614                 0.1450                 0.1974
 IR Inten    --      1.4365                 0.0061                 0.7851

                      7                      8                      9
                      A                      A                      A
 Frequencies --    267.0937               309.7849               309.9121
 Red. masses --      7.5812                 5.3732                 6.2978
 Frc consts  --      0.3187                 0.3038                 0.3564
 IR Inten    --      9.1803                 0.8096                 5.3598

                     10                     11                     12
                      A                      A                      A
 Frequencies --    408.5311               429.5772               449.9767
 Red. masses --     10.2341                 3.2277                 3.5745
 Frc consts  --      1.0063                 0.3509                 0.4264
 IR Inten    --      3.1032                 0.2534                10.3243

                     13                     14                     15
                      A                      A                      A
 Frequencies --    511.3535               529.5152               538.5306
 Red. masses --      8.6726                 2.8165                 7.5092
 Frc consts  --      1.3361                 0.4653                 1.2831
 IR Inten    --     10.1420                 5.3285                 6.6658

                     16                     17                     18
                      A                      A                      A
 Frequencies --    555.4311               562.4445               583.5679
 Red. masses --      6.6777                 3.7924                 6.8337
 Frc consts  --      1.2138                 0.7068                 1.3712
 IR Inten    --      4.7273                 0.0188                36.7430

                     19                     20                     21
                      A                      A                      A
 Frequencies --    638.4951               648.2350               718.9844
 Red. masses --      5.8915                 5.5777                 6.1852
 Frc consts  --      1.4151                 1.3809                 1.8838
 IR Inten    --      0.1912                 3.9251                30.0175

                     22                     23                     24
                      A                      A                      A
 Frequencies --    736.4790               751.4959               761.6318
 Red. masses --      8.1683                 2.6538                 1.4662
 Frc consts  --      2.6104                 0.8830                 0.5011
 IR Inten    --     69.3226                 8.4603                55.4537

                     25                     26                     27
                      A                      A                      A
 Frequencies --    776.4972               777.8562               832.7673
 Red. masses --      1.6624                 2.1793                 4.8505
 Frc consts  --      0.5906                 0.7769                 1.9819
 IR Inten    --     18.3171                40.5454                18.4206

                     28                     29                     30
                      A                      A                      A
 Frequencies --    860.8968               876.6513               883.4116
 Red. masses --      4.0301                 1.7869                 1.3810
 Frc consts  --      1.7598                 0.8091                 0.6350
 IR Inten    --     10.3256                 3.5825                 0.2795

                     31                     32                     33
                      A                      A                      A
 Frequencies --    917.5691               959.5284               967.8987
 Red. masses --      1.1384                 4.7431                 1.3234
 Frc consts  --      0.5647                 2.5729                 0.7305
 IR Inten    --     87.3679                35.8945                 0.1611

                     34                     35                     36
                      A                      A                      A
 Frequencies --    971.1735              1014.7874              1017.1350
 Red. masses --      1.3605                 1.3042                 1.3069
 Frc consts  --      0.7560                 0.7913                 0.7966
 IR Inten    --      1.2579                 0.0488                 0.4575

                     37                     38                     39
                      A                      A                      A
 Frequencies --   1040.0803              1056.3947              1080.3741
 Red. masses --      2.1965                 2.0638                 3.4932
 Frc consts  --      1.4000                 1.3570                 2.4023
 IR Inten    --     14.6080                11.2688                30.8385

                     40                     41                     42
                      A                      A                      A
 Frequencies --   1126.4979              1160.1297              1161.0372
 Red. masses --      2.2115                 1.3878                 1.2168
 Frc consts  --      1.6534                 1.1005                 0.9664
 IR Inten    --     75.2147                 2.1482                52.9453

                     43                     44                     45
                      A                      A                      A
 Frequencies --   1182.3257              1195.5706              1254.6277
 Red. masses --      1.1476                 1.2579                 1.9254
 Frc consts  --      0.9452                 1.0594                 1.7857
 IR Inten    --     16.3489                12.0806                14.2601

                     46                     47                     48
                      A                      A                      A
 Frequencies --   1289.1137              1317.1569              1363.4228
 Red. masses --      1.5639                 2.7606                 3.5155
 Frc consts  --      1.5312                 2.8218                 3.8503
 IR Inten    --     15.0481               136.8170                11.9130

                     49                     50                     51
                      A                      A                      A
 Frequencies --   1382.9338              1397.3951              1419.6413
 Red. masses --      4.0934                 6.1295                 2.6776
 Frc consts  --      4.6125                 7.0520                 3.1794
 IR Inten    --     86.2180                23.2551                16.1072

                     52                     53                     54
                      A                      A                      A
 Frequencies --   1493.3537              1505.4159              1520.3079
 Red. masses --      2.6812                 2.7228                 3.3339
 Frc consts  --      3.5229                 3.6357                 4.5401
 IR Inten    --     14.6613               147.9288                76.7232

                     55                     56                     57
                      A                      A                      A
 Frequencies --   1571.2752              1602.4489              1623.7040
 Red. masses --      4.1710                 5.1030                 8.2895
 Frc consts  --      6.0674                 7.7204                12.8764
 IR Inten    --   1607.3376               173.2345               425.2880

                     58                     59                     60
                      A                      A                      A
 Frequencies --   1668.2433              1682.1294              1712.1487
 Red. masses --      7.0703                 7.0247                 6.6162
 Frc consts  --     11.5932                11.7110                11.4272
 IR Inten    --     38.9739                89.7545               262.2329

                     61                     62                     63
                      A                      A                      A
 Frequencies --   3022.3679              3185.6060              3195.9503
 Red. masses --      1.0930                 1.0890                 1.0881
 Frc consts  --      5.8828                 6.5113                 6.5482
 IR Inten    --    394.5815                 3.5233                14.4741

                     64                     65                     66
                      A                      A                      A
 Frequencies --   3217.3297              3222.4491              3227.6006
 Red. masses --      1.0864                 1.0947                 1.0909
 Frc consts  --      6.6255                 6.6978                 6.6957
 IR Inten    --      1.3961                25.0606                 3.1997

                     67                     68                     69
                      A                      A                      A
 Frequencies --   3234.9289              3237.3417              3243.3558
 Red. masses --      1.0973                 1.0961                 1.0998
 Frc consts  --      6.7654                 6.7680                 6.8162
 IR Inten    --     18.6444                 6.5486                 9.2901

 - Thermochemistry -
 -------------------
 Temperature   298.150 Kelvin.  Pressure   1.00000 Atm.
 Atom     1 has atomic number  6 and mass  12.00000

 Molecular mass:   227.04049 amu.
 Principal axes and moments of inertia in atomic units:
                           1         2         3
     Eigenvalues --  1298.167486309.865077608.03255
           X           -0.70404   0.71016   0.00000
           Y            0.71016   0.70404  -0.00001
           Z            0.00001   0.00000   1.00000
 This molecule is an asymmetric top.
 Rotational symmetry number  1.
 Warning -- assumption of classical behavior for rotation
           may cause significant error
 Rotational temperatures (Kelvin)      0.06672     0.01373     0.01138
 Rotational constants (GHZ):           1.39022     0.28602     0.23722
 Zero-point vibrational energy     496290.5 (Joules/Mol)
                                  118.61626 (Kcal/Mol)
 Warning -- explicit consideration of  18 degrees of freedom as
           vibrations may cause significant error
 Vibrational temperatures:     80.55   106.92   159.55   200.51   286.58
          (Kelvin)            336.22   384.29   445.71   445.89   587.79
                              618.07   647.42   735.72   761.85   774.83
                              799.14   809.23   839.62   918.65   932.67
                             1034.46  1059.63  1081.23  1095.82  1117.21
                             1119.16  1198.17  1238.64  1261.31  1271.03
                             1320.18  1380.55  1392.59  1397.30  1460.05
                             1463.43  1496.44  1519.92  1554.42  1620.78
                             1669.17  1670.47  1701.10  1720.16  1805.13
                             1854.75  1895.10  1961.66  1989.73  2010.54
                             2042.55  2148.60  2165.96  2187.38  2260.71
                             2305.57  2336.15  2400.23  2420.21  2463.40
                             4348.51  4583.38  4598.26  4629.02  4636.39
                             4643.80  4654.34  4657.81  4666.47

 Zero-point correction=                           0.189027 (Hartree/Particle)
 Thermal correction to Energy=                    0.200804
 Thermal correction to Enthalpy=                  0.201748
 Thermal correction to Gibbs Free Energy=         0.150518
 Sum of electronic and zero-point Energies=          -1028.624209
 Sum of electronic and thermal Energies=             -1028.612432
 Sum of electronic and thermal Enthalpies=           -1028.611488
 Sum of electronic and thermal Free Energies=        -1028.662718

                     E (Thermal)             CV                S
                      KCal/Mol        Cal/Mol-Kelvin    Cal/Mol-Kelvin
 Total                  126.006             47.946            107.823
 Electronic               0.000              0.000              0.000
 Translational            0.889              2.981             42.162
 Rotational               0.889              2.981             32.499
 Vibrational            124.229             41.985             33.162
 Vibration     1          0.596              1.975              4.594
 Vibration     2          0.599              1.966              4.036
 Vibration     3          0.607              1.940              3.253
 Vibration     4          0.615              1.914              2.813
 Vibration     5          0.637              1.841              2.141
 Vibration     6          0.654              1.789              1.850
 Vibration     7          0.672              1.734              1.615
 Vibration     8          0.699              1.655              1.363
 Vibration     9          0.699              1.655              1.363
 Vibration    10          0.773              1.452              0.932
 Vibration    11          0.791              1.406              0.860
 Vibration    12          0.809              1.361              0.796
 Vibration    13          0.866              1.225              0.630
 Vibration    14          0.884              1.185              0.588
 Vibration    15          0.894              1.165              0.568
 Vibration    16          0.911              1.128              0.533
 Vibration    17          0.918              1.113              0.519
 Vibration    18          0.940              1.067              0.479

                           ! Non-Optimized Parameters !
 Normal termination of Gaussian 16 at Tue Oct 27 23:16:48 2020.
