 Gaussian 16, Revision C.01,
 Gaussian 16:  ES64L-G16RevC.01  3-Jul-2019

 ----------------------------------------------------------------------
 #p opt=addgic freq wb97xd/cc-pvdz nosymm int=ultrafine scrf=(solvent=C
 arbonTetraChloride)
 ----------------------------------------------------------------------

 ------------------------------------------------
 NM 2D-scan of HBT TD-WB97XD pVDZ in CTC Relaxed.
 ------------------------------------------------
 Symbolic Z-matrix:
 Charge =  0 Multiplicity = 1

 SCF Done:  E(RwB97XD) =  -1028.81107250     A.U. after   15 cycles
 SCF Done:  E(RwB97XD) =  -1028.81810740     A.U. after   13 cycles
 SCF Done:  E(RwB97XD) =  -1028.81796930     A.U. after   12 cycles
 SCF Done:  E(RwB97XD) =  -1028.81980120     A.U. after   12 cycles
 SCF Done:  E(RwB97XD) =  -1028.81981446     A.U. after   10 cycles
 SCF Done:  E(RwB97XD) =  -1028.81981573     A.U. after    9 cycles
 SCF Done:  E(RwB97XD) =  -1028.81981580     A.U. after    9 cycles
 SCF Done:  E(RwB97XD) =  -1028.81981608     A.U. after    7 cycles
 Optimization completed.
    -- Stationary point found.
 Normal termination of Gaussian 16 at Tue Oct 27 20:34:13 2020.

 --------------------------------------------------------------------
 #P Geom=AllCheck Guess=TCheck SCRF=Check GenChk RwB97XD/CC-pVDZ Freq
 --------------------------------------------------------------------

 Structure from the checkpoint file:  "config_6_1.chk"
 ------------------------------------------------
 NM 2D-scan of HBT TD-WB97XD pVDZ in CTC Relaxed.
 ------------------------------------------------
 Charge =  0 Multiplicity = 1

                          Input orientation:
 ---------------------------------------------------------------------
 Center     Atomic      Atomic             Coordinates (Angstroms)
 Number     Number       Type             X           Y           Z
 ---------------------------------------------------------------------
      1          6           0        1.762846   -3.271978   -0.000048
      2          6           0        1.001204   -2.098134   -0.000028
      3          6           0        1.644380   -0.855408    0.000005
      4          6           0        3.037163   -0.739252    0.000024
      5          6           0        3.787219   -1.902437    0.000004
      6          6           0        3.151430   -3.154810   -0.000032
      7          1           0        1.291091   -4.254818   -0.000075
      8          1           0        3.496510    0.249556    0.000050
      9          1           0        4.876652   -1.848492    0.000016
     10          1           0        3.757099   -4.062262   -0.000048
     11          7           0        0.786165    0.208126    0.000010
     12         16           0       -0.751697   -1.840792   -0.000038
     13          6           0       -1.427862    1.041342   -0.000008
     14          6           0       -2.828481    0.924433   -0.000000
     15          6           0       -0.846604    2.355087    0.000005
     16          6           0       -3.651342    2.043956    0.000040
     17          1           0       -3.277110   -0.072332   -0.000017
     18          6           0       -1.703260    3.474099    0.000055
     19          6           0       -3.077311    3.323134    0.000074
     20          1           0       -4.735027    1.925001    0.000050
     21          1           0       -1.235592    4.459405    0.000072
     22          1           0       -3.716923    4.208116    0.000112
     23          6           0       -0.484931   -0.086521   -0.000018
     24          8           0        0.453427    2.573079   -0.000040
     25          1           0        0.888980    1.626928   -0.000082
 ---------------------------------------------------------------------

 SCF Done:  E(RwB97XD) =  -1028.81981608     A.U. after    1 cycles

 Alpha  occ. eigenvalues --  -89.09345 -19.26176 -14.47029 -10.40053 -10.36994
 Alpha  occ. eigenvalues --  -10.35268 -10.35076 -10.32736 -10.32330 -10.31873
 Alpha  occ. eigenvalues --  -10.31854 -10.31745 -10.31710 -10.31096 -10.29889
 Alpha  occ. eigenvalues --  -10.29569  -8.11271  -6.06144  -6.05776  -6.05308
 Alpha  occ. eigenvalues --   -1.15555  -1.09542  -0.97442  -0.95744  -0.91629
 Alpha  occ. eigenvalues --   -0.88675  -0.85353  -0.84205  -0.83032  -0.75621
 Alpha  occ. eigenvalues --   -0.71425  -0.70394  -0.69211  -0.68489  -0.63096
 Alpha  occ. eigenvalues --   -0.60723  -0.58974  -0.58047  -0.56104  -0.54469
 Alpha  occ. eigenvalues --   -0.54454  -0.53404  -0.52286  -0.51159  -0.49946
 Alpha  occ. eigenvalues --   -0.49731  -0.47520  -0.46092  -0.45267  -0.45053
 Alpha  occ. eigenvalues --   -0.43761  -0.42920  -0.42478  -0.40008  -0.36228
 Alpha  occ. eigenvalues --   -0.35878  -0.32554  -0.31523  -0.28544
 Alpha virt. eigenvalues --   -0.00595   0.04536   0.06940   0.07346   0.07576
 Alpha virt. eigenvalues --    0.11183   0.12927   0.15024   0.15947   0.17820
 Alpha virt. eigenvalues --    0.19095   0.20733   0.21744   0.22519   0.22587

 Mulliken charges:
               1
     1  C    0.004284
     2  C   -0.233855
     3  C    0.269757
     4  C   -0.011797
     5  C    0.009187
     6  C   -0.000199
     7  H    0.021899
     8  H    0.023183
     9  H    0.021844
    10  H    0.023076
    11  N   -0.323642
    12  S    0.154525
    13  C   -0.101593
    14  C   -0.012308
    15  C    0.090948
    16  C   -0.015736
    17  H    0.005726
    18  C    0.002853
    19  C    0.021854
    20  H    0.008400
    21  H    0.012203
    22  H    0.016593
    23  C    0.081016
    24  O   -0.243734
    25  H    0.175518
 Sum of Mulliken charges =  -0.00000

 Dipole moment (field-independent basis, Debye):
    X=              0.5346    Y=             -2.9848    Z=             -0.0000  Tot=              3.0323
 Quadrupole moment (field-independent basis, Debye-Ang):
   XX=            -82.7376   YY=            -90.5197   ZZ=           -104.1368
   XY=             -7.1239   XZ=             -0.0001   YZ=              0.0004

  Exact polarizability:     277.072     -68.111     259.403      -0.001       0.003      63.060
 Approx polarizability:     264.354     -24.078     244.652      -0.000       0.003      82.286

 ******    1 imaginary frequencies (negative Signs) ******

                      1                      2                      3
                      A                      A                      A
 Frequencies --    -23.6158                59.9769               121.6159
 Red. masses --      5.6304                 6.0312                 5.6432
 Frc consts  --      0.0019                 0.0128                 0.0492
 IR Inten    --      0.0247                 1.5081                 1.6148

                      4                      5                      6
                      A                      A                      A
 Frequencies --    151.1997               196.9960               244.0989
 Red. masses --      4.9145                 5.6889                 5.8021
 Frc consts  --      0.0662                 0.1301                 0.2037
 IR Inten    --      0.1166                 0.3762                 0.1416

                      7                      8                      9
                      A                      A                      A
 Frequencies --    270.6909               324.1572               342.2048
 Red. masses --      7.4083                 5.1576                 6.1379
 Frc consts  --      0.3198                 0.3193                 0.4235
 IR Inten    --      0.7782                 0.4841                12.4197

                     10                     11                     12
                      A                      A                      A
 Frequencies --    403.6064               436.7020               462.0728
 Red. masses --     10.0971                 3.1299                 3.6807
 Frc consts  --      0.9691                 0.3517                 0.4630
 IR Inten    --      0.3200                 2.2444                 8.4236

                     13                     14                     15
                      A                      A                      A
 Frequencies --    514.7288               527.3943               539.8573
 Red. masses --      8.6775                 5.1927                 3.4700
 Frc consts  --      1.3546                 0.8510                 0.5959
 IR Inten    --      0.0652                26.0653                 3.7371

                     16                     17                     18
                      A                      A                      A
 Frequencies --    553.3024               572.8939               593.0120
 Red. masses --      7.3474                 3.6550                 7.6441
 Frc consts  --      1.3253                 0.7068                 1.5838
 IR Inten    --      7.6890                 0.1075                 3.6900

                     19                     20                     21
                      A                      A                      A
 Frequencies --    647.6054               684.5630               706.1961
 Red. masses --      6.3696                 6.3809                 6.7795
 Frc consts  --      1.5739                 1.7618                 1.9920
 IR Inten    --      0.0122                20.4793                21.5564

                     22                     23                     24
                      A                      A                      A
 Frequencies --    750.5362               753.6096               767.0117
 Red. masses --     10.0489                 2.0749                 2.9263
 Frc consts  --      3.3351                 0.6943                 1.0143
 IR Inten    --     11.4626                23.3559                 2.5982

                     25                     26                     27
                      A                      A                      A
 Frequencies --    774.9506               783.5570               845.3083
 Red. masses --      1.4026                 1.8445                 5.9847
 Frc consts  --      0.4963                 0.6672                 2.5196
 IR Inten    --     65.6776                33.5472                17.8990

                     28                     29                     30
                      A                      A                      A
 Frequencies --    883.1326               884.1279               912.8721
 Red. masses --      1.5368                 1.4497                 6.6498
 Frc consts  --      0.7062                 0.6676                 3.2650
 IR Inten    --      5.7544                 0.0964                 0.1119

                     31                     32                     33
                      A                      A                      A
 Frequencies --    970.1751               974.2749               993.8696
 Red. masses --      1.3537                 1.3606                 7.3562
 Frc consts  --      0.7507                 0.7609                 4.2811
 IR Inten    --      1.2775                 0.5169                66.0049

                     34                     35                     36
                      A                      A                      A
 Frequencies --   1010.4887              1015.2714              1042.4966
 Red. masses --      1.2980                 1.3050                 1.0731
 Frc consts  --      0.7809                 0.7926                 0.6871
 IR Inten    --      0.0633                 0.1779                71.0762

                     37                     38                     39
                      A                      A                      A
 Frequencies --   1051.6776              1065.9846              1090.7812
 Red. masses --      2.0431                 1.9638                 4.4217
 Frc consts  --      1.3314                 1.3148                 3.0997
 IR Inten    --      8.7138                10.3598                 4.6853

                     40                     41                     42
                      A                      A                      A
 Frequencies --   1144.3874              1151.7494              1171.1144
 Red. masses --      1.5072                 1.2778                 1.1361
 Frc consts  --      1.1630                 0.9987                 0.9180
 IR Inten    --     19.2702                 3.2429                48.1340

                     43                     44                     45
                      A                      A                      A
 Frequencies --   1183.1855              1252.3284              1285.2474
 Red. masses --      1.1687                 1.9346                 1.5750
 Frc consts  --      0.9639                 1.7876                 1.5329
 IR Inten    --      0.0146               145.8756                 4.4196

                     46                     47                     48
                      A                      A                      A
 Frequencies --   1295.3873              1332.3637              1339.5645
 Red. masses --      2.4827                 5.8554                 3.5995
 Frc consts  --      2.4546                 6.1243                 3.8056
 IR Inten    --    138.4312                13.6800                51.4854

                     49                     50                     51
                      A                      A                      A
 Frequencies --   1377.4508              1384.5288              1459.4193
 Red. masses --      7.8313                 2.6261                 2.3594
 Frc consts  --      8.7546                 2.9660                 2.9609
 IR Inten    --     14.5495                14.0720                 0.2463

                     52                     53                     54
                      A                      A                      A
 Frequencies --   1494.1499              1497.3518              1529.9577
 Red. masses --      2.6864                 2.8574                 4.3641
 Frc consts  --      3.5336                 3.7746                 6.0188
 IR Inten    --      6.8720                37.9170                85.1459

                     55                     56                     57
                      A                      A                      A
 Frequencies --   1585.0239              1594.6779              1654.7270
 Red. masses --      5.6628                 3.2942                 6.5178
 Frc consts  --      8.3822                 4.9356                10.5149
 IR Inten    --    243.2284                87.3016                19.9024

                     58                     59                     60
                      A                      A                      A
 Frequencies --   1671.9244              1696.9071              1705.3236
 Red. masses --      4.8356                 4.0257                 2.8197
 Frc consts  --      7.9641                 6.8297                 4.8313
 IR Inten    --    198.0928               196.7058               277.2104

                     61                     62                     63
                      A                      A                      A
 Frequencies --   2382.0990              3190.7684              3204.6405
 Red. masses --      1.0921                 1.0894                 1.0884
 Frc consts  --      3.6511                 6.5346                 6.5854
 IR Inten    --   1555.3532                 4.3770                 6.0925

                     64                     65                     66
                      A                      A                      A
 Frequencies --   3212.8781              3223.1341              3226.1337
 Red. masses --      1.0861                 1.0904                 1.0935
 Frc consts  --      6.6055                 6.6740                 6.7057
 IR Inten    --      0.8644                 3.1268                13.0499

                     67                     68                     69
                      A                      A                      A
 Frequencies --   3232.3114              3233.2201              3239.4010
 Red. masses --      1.0961                 1.0989                 1.1001
 Frc consts  --      6.7471                 6.7684                 6.8015
 IR Inten    --     10.4074                18.4176                13.2248

 - Thermochemistry -
 -------------------
 Temperature   298.150 Kelvin.  Pressure   1.00000 Atm.
 Atom     1 has atomic number  6 and mass  12.00000

 Molecular mass:   227.04049 amu.
 Principal axes and moments of inertia in atomic units:
                           1         2         3
     Eigenvalues --  1330.080616277.673637607.75424
           X           -0.70238   0.71180  -0.00000
           Y            0.71180   0.70238  -0.00001
           Z            0.00001   0.00001   1.00000
 This molecule is an asymmetric top.
 Rotational symmetry number  1.
 Warning -- assumption of classical behavior for rotation
           may cause significant error
 Rotational temperatures (Kelvin)      0.06512     0.01380     0.01138
 Rotational constants (GHZ):           1.35687     0.28749     0.23722
    1 imaginary frequencies ignored.
 Zero-point vibrational energy     495698.7 (Joules/Mol)
                                  118.47484 (Kcal/Mol)
 Warning -- explicit consideration of  17 degrees of freedom as
           vibrations may cause significant error
 Vibrational temperatures:     86.29   174.98   217.54   283.43   351.20
          (Kelvin)            389.46   466.39   492.36   580.70   628.32
                              664.82   740.58   758.80   776.73   796.08
                              824.27   853.21   931.76   984.93  1016.06
                             1079.85  1084.28  1103.56  1114.98  1127.36
                             1216.21  1270.63  1272.06  1313.42  1395.87
                             1401.76  1429.96  1453.87  1460.75  1499.92
                             1513.13  1533.71  1569.39  1646.52  1657.11
                             1684.97  1702.34  1801.82  1849.18  1863.77
                             1916.97  1927.33  1981.84  1992.03  2099.78
                             2149.75  2154.36  2201.27  2280.50  2294.39
                             2380.78  2405.53  2441.47  2453.58  3427.31
                             4590.80  4610.76  4622.62  4637.37  4641.69
                             4650.58  4651.88  4660.78

 Zero-point correction=                           0.188802 (Hartree/Particle)
 Thermal correction to Energy=                    0.199573
 Thermal correction to Enthalpy=                  0.200517
 Thermal correction to Gibbs Free Energy=         0.151707
 Sum of electronic and zero-point Energies=          -1028.631014
 Sum of electronic and thermal Energies=             -1028.620243
 Sum of electronic and thermal Enthalpies=           -1028.619299
 Sum of electronic and thermal Free Energies=        -1028.668109

                     E (Thermal)             CV                S
                      KCal/Mol        Cal/Mol-Kelvin    Cal/Mol-Kelvin
 Total                  125.234             45.263            102.730
 Electronic               0.000              0.000              0.000
 Translational            0.889              2.981             42.162
 Rotational               0.889              2.981             32.518
 Vibrational            123.456             39.301             28.049
 Vibration     1          0.597              1.973              4.458
 Vibration     2          0.609              1.931              3.075
 Vibration     3          0.619              1.901              2.657
 Vibration     4          0.636              1.844              2.161
 Vibration     5          0.659              1.773              1.773
 Vibration     6          0.674              1.727              1.592
 Vibration     7          0.709              1.627              1.289
 Vibration     8          0.721              1.591              1.202
 Vibration     9          0.769              1.462              0.949
 Vibration    10          0.797              1.390              0.837
 Vibration    11          0.820              1.334              0.760
 Vibration    12          0.870              1.217              0.622
 Vibration    13          0.882              1.189              0.593
 Vibration    14          0.895              1.162              0.566
 Vibration    15          0.909              1.132              0.537
 Vibration    16          0.929              1.090              0.499
 Vibration    17          0.951              1.047              0.462

 Optimization completed.
    -- Stationary point found.
 Normal termination of Gaussian 16 at Tue Oct 27 20:40:46 2020.
