 Gaussian 16, Revision C.01,
 Gaussian 16:  ES64L-G16RevC.01  3-Jul-2019

 ----------------------------------------------------------------------
 #p opt=addgic freq wb97xd/cc-pvdz nosymm int=ultrafine scrf=(solvent=C
 arbonTetraChloride)
 ----------------------------------------------------------------------

 ------------------------------------------------
 NM 2D-scan of HBT TD-WB97XD pVDZ in CTC Relaxed.
 ------------------------------------------------
 Symbolic Z-matrix:
 Charge =  0 Multiplicity = 1

 SCF Done:  E(RwB97XD) =  -1028.78689880     A.U. after   16 cycles
 SCF Done:  E(RwB97XD) =  -1028.80549651     A.U. after   13 cycles
 SCF Done:  E(RwB97XD) =  -1028.80523740     A.U. after   13 cycles
 SCF Done:  E(RwB97XD) =  -1028.80691252     A.U. after   12 cycles
 SCF Done:  E(RwB97XD) =  -1028.80694098     A.U. after   10 cycles
 SCF Done:  E(RwB97XD) =  -1028.80694220     A.U. after    9 cycles
 Optimization completed.
    -- Stationary point found.
 Normal termination of Gaussian 16 at Tue Oct 27 20:47:23 2020.

 --------------------------------------------------------------------
 #P Geom=AllCheck Guess=TCheck SCRF=Check GenChk RwB97XD/CC-pVDZ Freq
 --------------------------------------------------------------------

 Structure from the checkpoint file:  "config_10_2.chk"
 ------------------------------------------------
 NM 2D-scan of HBT TD-WB97XD pVDZ in CTC Relaxed.
 ------------------------------------------------
 Charge =  0 Multiplicity = 1

                          Input orientation:
 ---------------------------------------------------------------------
 Center     Atomic      Atomic             Coordinates (Angstroms)
 Number     Number       Type             X           Y           Z
 ---------------------------------------------------------------------
      1          6           0        1.751538   -3.265717   -0.000023
      2          6           0        1.011218   -2.083283   -0.000007
      3          6           0        1.672738   -0.859475   -0.000006
      4          6           0        3.062184   -0.750969   -0.000017
      5          6           0        3.793404   -1.930267   -0.000032
      6          6           0        3.143253   -3.171569   -0.000036
      7          1           0        1.261726   -4.239444   -0.000027
      8          1           0        3.540685    0.228550   -0.000017
      9          1           0        4.883212   -1.889559   -0.000042
     10          1           0        3.735020   -4.087650   -0.000050
     11          7           0        0.787863    0.184363   -0.000003
     12         16           0       -0.750440   -1.810370    0.000009
     13          6           0       -1.422958    1.045741    0.000009
     14          6           0       -2.835489    0.916615   -0.000007
     15          6           0       -0.808493    2.380227    0.000034
     16          6           0       -3.663674    2.016715    0.000006
     17          1           0       -3.273089   -0.085979   -0.000036
     18          6           0       -1.733861    3.489976    0.000064
     19          6           0       -3.092305    3.315229    0.000048
     20          1           0       -4.746573    1.891580   -0.000010
     21          1           0       -1.286546    4.485374    0.000101
     22          1           0       -3.748589    4.189123    0.000068
     23          6           0       -0.519018   -0.064359    0.000006
     24          8           0        0.436567    2.580996    0.000063
     25          1           0        1.061267    1.183589   -0.000022
 ---------------------------------------------------------------------

 SCF Done:  E(RwB97XD) =  -1028.80694220     A.U. after    1 cycles

 Alpha  occ. eigenvalues --  -89.10292 -19.21863 -14.50722 -10.41522 -10.36723
 Alpha  occ. eigenvalues --  -10.36318 -10.36060 -10.33403 -10.32780 -10.32510
 Alpha  occ. eigenvalues --  -10.32314 -10.31260 -10.31124 -10.30641 -10.29135
 Alpha  occ. eigenvalues --  -10.28561  -8.12229  -6.07121  -6.06735  -6.06237
 Alpha  occ. eigenvalues --   -1.13519  -1.10149  -0.98510  -0.94960  -0.93018
 Alpha  occ. eigenvalues --   -0.89329  -0.86321  -0.84064  -0.81863  -0.75832
 Alpha  occ. eigenvalues --   -0.72988  -0.71513  -0.69321  -0.67963  -0.64544
 Alpha  occ. eigenvalues --   -0.60841  -0.59742  -0.56800  -0.55915  -0.55803
 Alpha  occ. eigenvalues --   -0.54939  -0.53597  -0.52832  -0.50725  -0.49773
 Alpha  occ. eigenvalues --   -0.49104  -0.48112  -0.46662  -0.45568  -0.44858
 Alpha  occ. eigenvalues --   -0.44466  -0.42968  -0.41728  -0.40525  -0.36771
 Alpha  occ. eigenvalues --   -0.33527  -0.32222  -0.31633  -0.26550
 Alpha virt. eigenvalues --   -0.01266   0.03791   0.06248   0.06633   0.09088
 Alpha virt. eigenvalues --    0.10974   0.12273   0.14673   0.15961   0.17412
 Alpha virt. eigenvalues --    0.19130   0.20192   0.21289   0.21672   0.22931

 Mulliken charges:
               1
     1  C    0.008881
     2  C   -0.250099
     3  C    0.267580
     4  C   -0.010065
     5  C    0.013345
     6  C    0.001006
     7  H    0.025987
     8  H    0.033072
     9  H    0.027110
    10  H    0.026065
    11  N   -0.120086
    12  S    0.180303
    13  C   -0.143789
    14  C   -0.001323
    15  C    0.116905
    16  C   -0.032654
    17  H    0.000955
    18  C   -0.016662
    19  C    0.027129
    20  H    0.003314
    21  H    0.002136
    22  H    0.013207
    23  C    0.078687
    24  O   -0.392973
    25  H    0.141969
 Sum of Mulliken charges =  -0.00000

 Dipole moment (field-independent basis, Debye):
    X=              1.6529    Y=             -4.9050    Z=             -0.0002  Tot=              5.1760
 Quadrupole moment (field-independent basis, Debye-Ang):
   XX=            -82.4421   YY=            -93.8546   ZZ=           -104.0731
   XY=             -7.0276   XZ=             -0.0002   YZ=             -0.0001

  Exact polarizability:     287.192     -84.887     284.195      -0.001       0.003      63.042
 Approx polarizability:     267.643     -32.734     256.344      -0.000       0.002      82.111

                      1                      2                      3
                      A                      A                      A
 Frequencies --     38.8040                64.1564               117.2383
 Red. masses --      4.9403                 6.3383                 5.6735
 Frc consts  --      0.0044                 0.0154                 0.0459
 IR Inten    --      0.1417                 2.5543                 1.1576

                      4                      5                      6
                      A                      A                      A
 Frequencies --    134.7990               195.8069               235.7114
 Red. masses --      5.1302                 5.8537                 6.0258
 Frc consts  --      0.0549                 0.1322                 0.1973
 IR Inten    --      0.9251                 0.0010                 0.7144

                      7                      8                      9
                      A                      A                      A
 Frequencies --    269.0592               308.0667               333.8431
 Red. masses --      7.4532                 5.3383                 6.2115
 Frc consts  --      0.3179                 0.2985                 0.4079
 IR Inten    --      4.3287                 1.3087                 8.2866

                     10                     11                     12
                      A                      A                      A
 Frequencies --    400.4608               430.1788               447.7884
 Red. masses --     10.9101                 3.2294                 3.6084
 Frc consts  --      1.0309                 0.3521                 0.4263
 IR Inten    --      4.8187                 0.7723                10.4844

                     13                     14                     15
                      A                      A                      A
 Frequencies --    508.3629               532.4180               541.8536
 Red. masses --      8.5418                 2.9030                 8.8424
 Frc consts  --      1.3006                 0.4848                 1.5296
 IR Inten    --      7.9007                 5.9185                 7.7652

                     16                     17                     18
                      A                      A                      A
 Frequencies --    562.1992               566.4372               588.3868
 Red. masses --      3.7021                 6.9690                 6.9132
 Frc consts  --      0.6894                 1.3174                 1.4101
 IR Inten    --      0.0059                 0.7129                38.5794

                     19                     20                     21
                      A                      A                      A
 Frequencies --    637.5221               656.2189               702.1704
 Red. masses --      5.9161                 5.6080                 6.5557
 Frc consts  --      1.4167                 1.4229                 1.9044
 IR Inten    --      0.1506                 4.0004                32.8256

                     22                     23                     24
                      A                      A                      A
 Frequencies --    735.1388               750.5776               761.8243
 Red. masses --      8.3669                 2.5640                 1.4978
 Frc consts  --      2.6641                 0.8511                 0.5122
 IR Inten    --     54.1783                10.6680                48.6031

                     25                     26                     27
                      A                      A                      A
 Frequencies --    774.2365               776.6296               832.2801
 Red. masses --      2.0683                 1.6863                 5.8618
 Frc consts  --      0.7305                 0.5993                 2.3923
 IR Inten    --     39.8667                16.6604                20.6108

                     28                     29                     30
                      A                      A                      A
 Frequencies --    873.6561               880.4581               886.2140
 Red. masses --      1.4326                 1.4872                 4.0528
 Frc consts  --      0.6442                 0.6793                 1.8754
 IR Inten    --      0.9860                 2.6766                 4.2990

                     31                     32                     33
                      A                      A                      A
 Frequencies --    897.4587               954.9017               968.7823
 Red. masses --      1.2781                 4.8377                 1.3262
 Frc consts  --      0.6065                 2.5990                 0.7334
 IR Inten    --     84.6195                46.4474                 0.3290

                     34                     35                     36
                      A                      A                      A
 Frequencies --    971.4630              1014.8058              1015.8922
 Red. masses --      1.3584                 1.3041                 1.3027
 Frc consts  --      0.7553                 0.7913                 0.7921
 IR Inten    --      1.7306                 0.0321                 0.4413

                     37                     38                     39
                      A                      A                      A
 Frequencies --   1046.2341              1054.0084              1077.3466
 Red. masses --      2.2030                 2.0876                 3.8508
 Frc consts  --      1.4208                 1.3664                 2.6334
 IR Inten    --     12.0036                11.4376                27.3393

                     40                     41                     42
                      A                      A                      A
 Frequencies --   1116.5061              1152.3836              1158.8189
 Red. masses --      2.2964                 1.3195                 1.1996
 Frc consts  --      1.6867                 1.0324                 0.9491
 IR Inten    --    139.6538                 6.6812                63.3768

                     43                     44                     45
                      A                      A                      A
 Frequencies --   1182.3890              1196.4134              1266.5509
 Red. masses --      1.1440                 1.2718                 1.8236
 Frc consts  --      0.9423                 1.0726                 1.7236
 IR Inten    --      8.4895                19.9109                16.3847

                     46                     47                     48
                      A                      A                      A
 Frequencies --   1287.9653              1314.5627              1367.8246
 Red. masses --      1.5185                 2.8055                 3.1695
 Frc consts  --      1.4842                 2.8564                 3.4938
 IR Inten    --      4.0253               105.9172               111.8635

                     49                     50                     51
                      A                      A                      A
 Frequencies --   1379.8642              1391.9657              1419.3644
 Red. masses --      6.4018                 4.6236                 2.4143
 Frc consts  --      7.1817                 5.2783                 2.8657
 IR Inten    --     19.6672                64.8235                21.6154

                     52                     53                     54
                      A                      A                      A
 Frequencies --   1493.7541              1505.9084              1527.0771
 Red. masses --      2.6703                 2.7789                 3.2418
 Frc consts  --      3.5104                 3.7129                 4.4542
 IR Inten    --     32.5363               325.0065               211.4058

                     55                     56                     57
                      A                      A                      A
 Frequencies --   1570.6402              1610.5405              1618.9304
 Red. masses --      4.4390                 4.8699                 7.5220
 Frc consts  --      6.4520                 7.4425                11.6156
 IR Inten    --    864.4359               443.6012               310.5186

                     58                     59                     60
                      A                      A                      A
 Frequencies --   1677.9026              1685.5543              1712.9094
 Red. masses --      7.1943                 7.1994                 6.2275
 Frc consts  --     11.9336                12.0513                10.7655
 IR Inten    --      2.1377               228.1592               147.2095

                     61                     62                     63
                      A                      A                      A
 Frequencies --   3101.8118              3179.4198              3192.7890
 Red. masses --      1.0959                 1.0894                 1.0881
 Frc consts  --      6.2123                 6.4884                 6.5354
 IR Inten    --    440.4412                 5.4700                13.2718

                     64                     65                     66
                      A                      A                      A
 Frequencies --   3217.5866              3220.7311              3226.9159
 Red. masses --      1.0863                 1.0940                 1.0907
 Frc consts  --      6.6263                 6.6863                 6.6917
 IR Inten    --      1.4659                20.6207                 2.1418

                     67                     68                     69
                      A                      A                      A
 Frequencies --   3230.1816              3235.4814              3242.7044
 Red. masses --      1.0974                 1.0964                 1.1001
 Frc consts  --      6.7462                 6.7622                 6.8152
 IR Inten    --     21.2425                 5.0700                11.5656

 - Thermochemistry -
 -------------------
 Temperature   298.150 Kelvin.  Pressure   1.00000 Atm.
 Atom     1 has atomic number  6 and mass  12.00000

 Molecular mass:   227.04049 amu.
 Principal axes and moments of inertia in atomic units:
                           1         2         3
     Eigenvalues --  1322.859236302.528227625.38745
           X           -0.70459   0.70961   0.00000
           Y            0.70961   0.70459  -0.00001
           Z            0.00001   0.00001   1.00000
 This molecule is an asymmetric top.
 Rotational symmetry number  1.
 Warning -- assumption of classical behavior for rotation
           may cause significant error
 Rotational temperatures (Kelvin)      0.06547     0.01374     0.01136
 Rotational constants (GHZ):           1.36427     0.28635     0.23668
 Zero-point vibrational energy     496622.7 (Joules/Mol)
                                  118.69568 (Kcal/Mol)
 Warning -- explicit consideration of  18 degrees of freedom as
           vibrations may cause significant error
 Vibrational temperatures:     55.83    92.31   168.68   193.95   281.72
          (Kelvin)            339.14   387.12   443.24   480.33   576.17
                              618.93   644.27   731.42   766.03   779.61
                              808.88   814.98   846.56   917.25   944.15
                             1010.27  1057.70  1079.91  1096.10  1113.95
                             1117.40  1197.47  1257.00  1266.78  1275.06
                             1291.24  1373.89  1393.86  1397.72  1460.08
                             1461.64  1505.30  1516.48  1550.06  1606.40
                             1658.02  1667.28  1701.19  1721.37  1822.28
                             1853.09  1891.36  1967.99  1985.32  2002.73
                             2042.15  2149.18  2166.67  2197.12  2259.80
                             2317.21  2329.28  2414.13  2425.14  2464.49
                             4462.82  4574.48  4593.71  4629.39  4633.91
                             4642.81  4647.51  4655.14  4665.53

 Zero-point correction=                           0.189154 (Hartree/Particle)
 Thermal correction to Energy=                    0.200961
 Thermal correction to Enthalpy=                  0.201905
 Thermal correction to Gibbs Free Energy=         0.150249
 Sum of electronic and zero-point Energies=          -1028.617789
 Sum of electronic and thermal Energies=             -1028.605981
 Sum of electronic and thermal Enthalpies=           -1028.605037
 Sum of electronic and thermal Free Energies=        -1028.656693

                     E (Thermal)             CV                S
                      KCal/Mol        Cal/Mol-Kelvin    Cal/Mol-Kelvin
 Total                  126.105             47.930            108.720
 Electronic               0.000              0.000              0.000
 Translational            0.889              2.981             42.162
 Rotational               0.889              2.981             32.519
 Vibrational            124.327             41.969             34.039
 Vibration     1          0.594              1.981              5.319
 Vibration     2          0.597              1.971              4.325
 Vibration     3          0.608              1.935              3.145
 Vibration     4          0.613              1.919              2.876
 Vibration     5          0.636              1.846              2.172
 Vibration     6          0.655              1.786              1.835
 Vibration     7          0.673              1.730              1.602
 Vibration     8          0.698              1.658              1.373
 Vibration     9          0.715              1.608              1.241
 Vibration    10          0.766              1.469              0.961
 Vibration    11          0.791              1.405              0.858
 Vibration    12          0.807              1.366              0.802
 Vibration    13          0.864              1.231              0.638
 Vibration    14          0.887              1.178              0.582
 Vibration    15          0.897              1.158              0.561
 Vibration    16          0.918              1.113              0.519
 Vibration    17          0.922              1.104              0.511
 Vibration    18          0.946              1.057              0.470

 Optimization completed.
    -- Stationary point found.
 Normal termination of Gaussian 16 at Tue Oct 27 20:53:36 2020.
