 Gaussian 16, Revision C.01,
 Gaussian 16:  ES64L-G16RevC.01  3-Jul-2019

 ----------------------------------------------------------------------
 #p opt=addgic freq wb97xd/cc-pvdz nosymm int=ultrafine scrf=(solvent=C
 arbonTetraChloride)
 ----------------------------------------------------------------------

 ------------------------------------------------
 NM 2D-scan of HBT TD-WB97XD pVDZ in CTC Relaxed.
 ------------------------------------------------
 Symbolic Z-matrix:
 Charge =  0 Multiplicity = 1

 SCF Done:  E(RwB97XD) =  -1028.80201133     A.U. after   16 cycles
 SCF Done:  E(RwB97XD) =  -1028.80953741     A.U. after   14 cycles
 SCF Done:  E(RwB97XD) =  -1028.80961993     A.U. after   13 cycles
 SCF Done:  E(RwB97XD) =  -1028.81007813     A.U. after   12 cycles
 SCF Done:  E(RwB97XD) =  -1028.81030212     A.U. after   12 cycles
 SCF Done:  E(RwB97XD) =  -1028.81030845     A.U. after   10 cycles
 SCF Done:  E(RwB97XD) =  -1028.81030800     A.U. after   10 cycles
 SCF Done:  E(RwB97XD) =  -1028.81030982     A.U. after    9 cycles
 Optimization completed.
    -- Stationary point found.
 Normal termination of Gaussian 16 at Tue Oct 27 20:52:12 2020.

 --------------------------------------------------------------------
 #P Geom=AllCheck Guess=TCheck SCRF=Check GenChk RwB97XD/CC-pVDZ Freq
 --------------------------------------------------------------------

 Structure from the checkpoint file:  "config_9_2.chk"
 ------------------------------------------------
 NM 2D-scan of HBT TD-WB97XD pVDZ in CTC Relaxed.
 ------------------------------------------------
 Charge =  0 Multiplicity = 1

                          Input orientation:
 ---------------------------------------------------------------------
 Center     Atomic      Atomic             Coordinates (Angstroms)
 Number     Number       Type             X           Y           Z
 ---------------------------------------------------------------------
      1          6           0        1.746141   -3.260961   -0.000034
      2          6           0        1.006080   -2.076977   -0.000018
      3          6           0        1.666040   -0.845891   -0.000006
      4          6           0        3.057138   -0.745133   -0.000006
      5          6           0        3.787589   -1.923885   -0.000021
      6          6           0        3.137210   -3.166432   -0.000037
      7          1           0        1.255882   -4.234616   -0.000045
      8          1           0        3.536766    0.233775    0.000005
      9          1           0        4.877478   -1.883907   -0.000022
     10          1           0        3.729646   -4.082214   -0.000049
     11          7           0        0.791161    0.208283    0.000000
     12         16           0       -0.750629   -1.812807   -0.000009
     13          6           0       -1.420066    1.040284    0.000002
     14          6           0       -2.830630    0.908702   -0.000003
     15          6           0       -0.813776    2.368347    0.000011
     16          6           0       -3.654972    2.012382    0.000019
     17          1           0       -3.268657   -0.093470   -0.000021
     18          6           0       -1.719967    3.480076    0.000053
     19          6           0       -3.080684    3.307294    0.000054
     20          1           0       -4.738383    1.892010    0.000016
     21          1           0       -1.268274    4.473183    0.000080
     22          1           0       -3.734044    4.183134    0.000080
     23          6           0       -0.504777   -0.066674   -0.000004
     24          8           0        0.445957    2.569934    0.000020
     25          1           0        0.978655    1.286766    0.000011
 ---------------------------------------------------------------------

 SCF Done:  E(RwB97XD) =  -1028.81030982     A.U. after    1 cycles

 Alpha  occ. eigenvalues --  -89.10178 -19.22450 -14.50080 -10.41216 -10.36546
 Alpha  occ. eigenvalues --  -10.36376 -10.35980 -10.33288 -10.32595 -10.32359
 Alpha  occ. eigenvalues --  -10.32242 -10.31360 -10.31264 -10.30733 -10.29249
 Alpha  occ. eigenvalues --  -10.28716  -8.12119  -6.07004  -6.06625  -6.06135
 Alpha  occ. eigenvalues --   -1.13451  -1.10086  -0.98289  -0.95069  -0.92822
 Alpha  occ. eigenvalues --   -0.89218  -0.86154  -0.84024  -0.82119  -0.75835
 Alpha  occ. eigenvalues --   -0.72374  -0.71260  -0.69121  -0.68141  -0.64274
 Alpha  occ. eigenvalues --   -0.60809  -0.59632  -0.56975  -0.55728  -0.55652
 Alpha  occ. eigenvalues --   -0.54804  -0.53589  -0.52637  -0.50833  -0.49962
 Alpha  occ. eigenvalues --   -0.49206  -0.47945  -0.46584  -0.45455  -0.44931
 Alpha  occ. eigenvalues --   -0.44357  -0.43041  -0.41726  -0.40570  -0.36635
 Alpha  occ. eigenvalues --   -0.33356  -0.32938  -0.31581  -0.26924
 Alpha virt. eigenvalues --   -0.01160   0.03921   0.06368   0.06698   0.08768
 Alpha virt. eigenvalues --    0.10914   0.12632   0.14740   0.16002   0.17544
 Alpha virt. eigenvalues --    0.19190   0.20404   0.21405   0.21773   0.22909

 Mulliken charges:
               1
     1  C    0.009119
     2  C   -0.245253
     3  C    0.277587
     4  C   -0.009863
     5  C    0.012228
     6  C    0.000912
     7  H    0.025387
     8  H    0.031584
     9  H    0.026124
    10  H    0.025637
    11  N   -0.172955
    12  S    0.179893
    13  C   -0.138754
    14  C   -0.003525
    15  C    0.116699
    16  C   -0.029361
    17  H    0.001986
    18  C   -0.010315
    19  C    0.025745
    20  H    0.003932
    21  H    0.003858
    22  H    0.013672
    23  C    0.073293
    24  O   -0.389469
    25  H    0.171842
 Sum of Mulliken charges =  -0.00000

 Dipole moment (field-independent basis, Debye):
    X=              1.3715    Y=             -4.6366    Z=             -0.0000  Tot=              4.8352
 Quadrupole moment (field-independent basis, Debye-Ang):
   XX=            -82.6498   YY=            -93.1978   ZZ=           -104.0737
   XY=             -7.0731   XZ=             -0.0001   YZ=              0.0002

  Exact polarizability:     284.597     -81.014     278.936      -0.001       0.003      63.030
 Approx polarizability:     266.821     -30.462     254.920      -0.001       0.002      82.157

                      1                      2                      3
                      A                      A                      A
 Frequencies --     50.5189                66.9353                85.7625
 Red. masses --      5.0858                 5.8845                 5.1324
 Frc consts  --      0.0076                 0.0155                 0.0222
 IR Inten    --      0.1203                 2.1486                25.8009

                      4                      5                      6
                      A                      A                      A
 Frequencies --    144.7078               199.0892               239.4764
 Red. masses --      5.1420                 5.9422                 6.1701
 Frc consts  --      0.0634                 0.1388                 0.2085
 IR Inten    --      0.9327                 0.0345                 0.6544

                      7                      8                      9
                      A                      A                      A
 Frequencies --    240.1770               285.4889               311.9051
 Red. masses --      4.7226                 5.6105                 5.3255
 Frc consts  --      0.1605                 0.2694                 0.3052
 IR Inten    --     65.4562                11.2283                 0.9477

                     10                     11                     12
                      A                      A                      A
 Frequencies --    407.9904               431.9940               452.2919
 Red. masses --     11.0909                 3.1882                 3.6352
 Frc consts  --      1.0877                 0.3505                 0.4381
 IR Inten    --      4.8160                 1.0175                10.3174

                     13                     14                     15
                      A                      A                      A
 Frequencies --    492.9798               513.0046               536.3573
 Red. masses --      3.3923                 8.4538                 3.0421
 Frc consts  --      0.4857                 1.3108                 0.5156
 IR Inten    --     35.6247                12.2757                 4.9867

                     16                     17                     18
                      A                      A                      A
 Frequencies --    548.0571               564.6125               582.8224
 Red. masses --      8.8935                 3.6588                 6.8882
 Frc consts  --      1.5739                 0.6872                 1.3786
 IR Inten    --      7.5160                 0.0568                29.9392

                     19                     20                     21
                      A                      A                      A
 Frequencies --    619.2933               644.3446               703.0330
 Red. masses --      5.9892                 6.4081                 6.9939
 Frc consts  --      1.3533                 1.5675                 2.0367
 IR Inten    --      4.2239                 0.0010                64.0923

                     22                     23                     24
                      A                      A                      A
 Frequencies --    711.0948               751.2063               764.1315
 Red. masses --      6.0708                 2.4707                 1.4942
 Frc consts  --      1.8086                 0.8215                 0.5140
 IR Inten    --      1.1482                12.8918                47.2266

                     25                     26                     27
                      A                      A                      A
 Frequencies --    776.6585               778.0478               810.5376
 Red. masses --      2.3834                 1.6382                 4.0367
 Frc consts  --      0.8471                 0.5843                 1.5625
 IR Inten    --     31.9514                29.6588                21.7100

                     28                     29                     30
                      A                      A                      A
 Frequencies --    848.8803               879.1558               882.0827
 Red. masses --      5.7522                 1.7645                 1.4003
 Frc consts  --      2.4422                 0.8036                 0.6419
 IR Inten    --     15.7818                 9.1264                 0.0474

                     31                     32                     33
                      A                      A                      A
 Frequencies --    943.4542               968.7153               972.2095
 Red. masses --      5.9318                 1.3307                 1.3587
 Frc consts  --      3.1109                 0.7357                 0.7566
 IR Inten    --     32.0851                 0.4446                 0.9200

                     34                     35                     36
                      A                      A                      A
 Frequencies --   1014.7265              1015.1560              1042.2439
 Red. masses --      1.3025                 1.3048                 3.6473
 Frc consts  --      0.7902                 0.7923                 2.3343
 IR Inten    --      0.0663                 0.0892                19.8388

                     37                     38                     39
                      A                      A                      A
 Frequencies --   1053.9053              1055.9382              1066.9266
 Red. masses --      2.2263                 2.2384                 1.0770
 Frc consts  --      1.4569                 1.4705                 0.7223
 IR Inten    --      5.3633                 9.9088                71.0205

                     40                     41                     42
                      A                      A                      A
 Frequencies --   1103.4219              1154.1539              1158.1022
 Red. masses --      3.3188                 1.3754                 1.2485
 Frc consts  --      2.3808                 1.0794                 0.9866
 IR Inten    --     29.0657                 9.5311                18.6016

                     43                     44                     45
                      A                      A                      A
 Frequencies --   1181.1936              1188.1279              1261.6775
 Red. masses --      1.1393                 1.1917                 1.8117
 Frc consts  --      0.9365                 0.9911                 1.6992
 IR Inten    --     28.6228                 5.5883                13.6989

                     46                     47                     48
                      A                      A                      A
 Frequencies --   1288.9221              1327.5819              1364.6749
 Red. masses --      1.5266                 3.1230                 3.6572
 Frc consts  --      1.4943                 3.2429                 4.0129
 IR Inten    --     21.2345               170.2537                81.8118

                     49                     50                     51
                      A                      A                      A
 Frequencies --   1378.9896              1392.4704              1415.8044
 Red. masses --      6.7505                 4.1490                 2.4860
 Frc consts  --      7.5633                 4.7399                 2.9360
 IR Inten    --     48.3087                11.5388                 8.6962

                     52                     53                     54
                      A                      A                      A
 Frequencies --   1495.2762              1505.9477              1525.0613
 Red. masses --      2.6817                 2.7675                 3.4553
 Frc consts  --      3.5327                 3.6979                 4.7349
 IR Inten    --     18.7956                87.5407               217.6918

                     55                     56                     57
                      A                      A                      A
 Frequencies --   1579.1694              1597.5299              1613.8667
 Red. masses --      5.1990                 6.1149                 4.5149
 Frc consts  --      7.6388                 9.1948                 6.9284
 IR Inten    --   1126.4974               234.4052               663.1219

                     58                     59                     60
                      A                      A                      A
 Frequencies --   1666.6722              1682.7702              1713.2333
 Red. masses --      7.1687                 6.9077                 5.8149
 Frc consts  --     11.7325                11.5247                10.0559
 IR Inten    --     46.3639                57.9040               113.3216

                     61                     62                     63
                      A                      A                      A
 Frequencies --   2366.5279              3182.3230              3195.2910
 Red. masses --      1.1330                 1.0894                 1.0883
 Frc consts  --      3.7387                 6.5001                 6.5469
 IR Inten    --    634.4122                 5.0396                13.0883

                     64                     65                     66
                      A                      A                      A
 Frequencies --   3216.6564              3223.3082              3226.2329
 Red. masses --      1.0863                 1.0938                 1.0907
 Frc consts  --      6.6222                 6.6957                 6.6886
 IR Inten    --      1.2971                17.3263                 2.5052

                     67                     68                     69
                      A                      A                      A
 Frequencies --   3230.9740              3235.1819              3242.0563
 Red. masses --      1.0978                 1.0962                 1.1001
 Frc consts  --      6.7522                 6.7601                 6.8129
 IR Inten    --     21.4234                 6.0725                11.5481

 - Thermochemistry -
 -------------------
 Temperature   298.150 Kelvin.  Pressure   1.00000 Atm.
 Atom     1 has atomic number  6 and mass  12.00000

 Molecular mass:   227.04049 amu.
 Principal axes and moments of inertia in atomic units:
                           1         2         3
     Eigenvalues --  1324.135476265.733257589.86872
           X           -0.70454   0.70966   0.00000
           Y            0.70966   0.70454  -0.00001
           Z            0.00001   0.00001   1.00000
 This molecule is an asymmetric top.
 Rotational symmetry number  1.
 Warning -- assumption of classical behavior for rotation
           may cause significant error
 Rotational temperatures (Kelvin)      0.06541     0.01382     0.01141
 Rotational constants (GHZ):           1.36296     0.28803     0.23778
 Zero-point vibrational energy     491480.4 (Joules/Mol)
                                  117.46664 (Kcal/Mol)
 Warning -- explicit consideration of  19 degrees of freedom as
           vibrations may cause significant error
 Vibrational temperatures:     72.69    96.30   123.39   208.20   286.45
          (Kelvin)            344.55   345.56   410.75   448.76   587.01
                              621.54   650.75   709.29   738.10   771.70
                              788.53   812.35   838.55   891.02   927.07
                             1011.51  1023.11  1080.82  1099.41  1117.44
                             1119.44  1166.18  1221.35  1264.91  1269.12
                             1357.42  1393.77  1398.79  1459.97  1460.58
                             1499.56  1516.33  1519.26  1535.07  1587.58
                             1660.57  1666.25  1699.47  1709.45  1815.27
                             1854.47  1910.09  1963.46  1984.06  2003.45
                             2037.03  2151.37  2166.72  2194.22  2272.07
                             2298.49  2321.99  2397.97  2421.13  2464.96
                             3404.91  4578.65  4597.31  4628.05  4637.62
                             4641.83  4648.65  4654.71  4664.60

 Zero-point correction=                           0.187195 (Hartree/Particle)
 Thermal correction to Energy=                    0.199142
 Thermal correction to Enthalpy=                  0.200086
 Thermal correction to Gibbs Free Energy=         0.148252
 Sum of electronic and zero-point Energies=          -1028.623115
 Sum of electronic and thermal Energies=             -1028.611168
 Sum of electronic and thermal Enthalpies=           -1028.610223
 Sum of electronic and thermal Free Energies=        -1028.662058

                     E (Thermal)             CV                S
                      KCal/Mol        Cal/Mol-Kelvin    Cal/Mol-Kelvin
 Total                  124.964             48.205            109.096
 Electronic               0.000              0.000              0.000
 Translational            0.889              2.981             42.162
 Rotational               0.889              2.981             32.510
 Vibrational            123.186             42.244             34.424
 Vibration     1          0.595              1.977              4.797
 Vibration     2          0.598              1.970              4.242
 Vibration     3          0.601              1.959              3.754
 Vibration     4          0.616              1.908              2.741
 Vibration     5          0.637              1.841              2.141
 Vibration     6          0.657              1.780              1.807
 Vibration     7          0.657              1.779              1.802
 Vibration     8          0.683              1.701              1.501
 Vibration     9          0.700              1.651              1.352
 Vibration    10          0.773              1.453              0.934
 Vibration    11          0.793              1.401              0.852
 Vibration    12          0.811              1.356              0.789
 Vibration    13          0.849              1.266              0.676
 Vibration    14          0.868              1.221              0.626
 Vibration    15          0.891              1.170              0.573
 Vibration    16          0.903              1.144              0.548
 Vibration    17          0.920              1.108              0.515
 Vibration    18          0.940              1.068              0.480
 Vibration    19          0.979              0.991              0.418

 Optimization completed.
    -- Stationary point found.
 Normal termination of Gaussian 16 at Tue Oct 27 20:58:24 2020.
