 Gaussian 16, Revision C.01,
 Gaussian 16:  ES64L-G16RevC.01  3-Jul-2019

 ----------------------------------------------------------------------
 #p opt=addgic freq wb97xd/cc-pvdz nosymm int=ultrafine scrf=(solvent=C
 arbonTetraChloride)
 ----------------------------------------------------------------------

 ------------------------------------------------
 NM 2D-scan of HBT TD-WB97XD pVDZ in CTC Relaxed.
 ------------------------------------------------
 Symbolic Z-matrix:
 Charge =  0 Multiplicity = 1

 SCF Done:  E(RwB97XD) =  -1028.80845847     A.U. after   15 cycles
 SCF Done:  E(RwB97XD) =  -1028.81265281     A.U. after   14 cycles
 SCF Done:  E(RwB97XD) =  -1028.81090349     A.U. after   13 cycles
 SCF Done:  E(RwB97XD) =  -1028.81476441     A.U. after   11 cycles
 SCF Done:  E(RwB97XD) =  -1028.81497617     A.U. after   12 cycles
 SCF Done:  E(RwB97XD) =  -1028.81500726     A.U. after   12 cycles
 SCF Done:  E(RwB97XD) =  -1028.81461542     A.U. after   12 cycles
 SCF Done:  E(RwB97XD) =  -1028.81505813     A.U. after   11 cycles
 SCF Done:  E(RwB97XD) =  -1028.81506272     A.U. after   10 cycles
 Optimization completed.
    -- Stationary point found.
 Normal termination of Gaussian 16 at Tue Oct 27 23:46:27 2020.

 --------------------------------------------------------------------
 #P Geom=AllCheck Guess=TCheck SCRF=Check GenChk RwB97XD/CC-pVDZ Freq
 --------------------------------------------------------------------

 Structure from the checkpoint file:  "config_7_12.chk"
 ------------------------------------------------
 NM 2D-scan of HBT TD-WB97XD pVDZ in CTC Relaxed.
 ------------------------------------------------
 Charge =  0 Multiplicity = 1

                          Input orientation:
 ---------------------------------------------------------------------
 Center     Atomic      Atomic             Coordinates (Angstroms)
 Number     Number       Type             X           Y           Z
 ---------------------------------------------------------------------
      1          6           0        1.598549   -3.244189    0.000091
      2          6           0        1.006279   -1.985802   -0.000005
      3          6           0        1.752272   -0.798884   -0.000116
      4          6           0        3.150572   -0.871865   -0.000165
      5          6           0        3.747051   -2.131531   -0.000062
      6          6           0        2.984632   -3.308060    0.000072
      7          1           0        0.988672   -4.147845    0.000173
      8          1           0        3.753191    0.036730   -0.000264
      9          1           0        4.835738   -2.201176   -0.000085
     10          1           0        3.481649   -4.278805    0.000142
     11          7           0        0.929000    0.324182   -0.000170
     12         16           0       -0.709127   -1.642703   -0.000055
     13          6           0       -1.354800    1.084275    0.000015
     14          6           0       -2.727727    0.793111   -0.000095
     15          6           0       -0.859959    2.424748    0.000371
     16          6           0       -3.661649    1.809797   -0.000036
     17          1           0       -3.056711   -0.249517   -0.000287
     18          6           0       -1.851975    3.450392    0.000234
     19          6           0       -3.202773    3.140337    0.000080
     20          1           0       -4.728597    1.587471   -0.000157
     21          1           0       -1.517408    4.488946    0.000294
     22          1           0       -3.931749    3.954139    0.000057
     23          6           0       -0.362371    0.047743   -0.000081
     24          8           0        0.417735    2.647113    0.000289
     25          1           0        0.958852    1.560859   -0.000140
 ---------------------------------------------------------------------

 SCF Done:  E(RwB97XD) =  -1028.81506272     A.U. after    1 cycles

 Alpha  occ. eigenvalues --  -89.09359 -19.24150 -14.48998 -10.40166 -10.36588
 Alpha  occ. eigenvalues --  -10.36318 -10.35325 -10.32758 -10.32490 -10.32100
 Alpha  occ. eigenvalues --  -10.31995 -10.31509 -10.31082 -10.31024 -10.29609
 Alpha  occ. eigenvalues --  -10.29418  -8.11482  -6.06334  -6.05967  -6.05523
 Alpha  occ. eigenvalues --   -1.13743  -1.09773  -0.97900  -0.95782  -0.92717
 Alpha  occ. eigenvalues --   -0.88918  -0.86101  -0.83909  -0.82786  -0.75701
 Alpha  occ. eigenvalues --   -0.71734  -0.71119  -0.68912  -0.68126  -0.63698
 Alpha  occ. eigenvalues --   -0.60908  -0.59468  -0.57537  -0.55949  -0.55114
 Alpha  occ. eigenvalues --   -0.54629  -0.53593  -0.52640  -0.50954  -0.49758
 Alpha  occ. eigenvalues --   -0.49598  -0.47207  -0.46462  -0.45284  -0.45107
 Alpha  occ. eigenvalues --   -0.44332  -0.43165  -0.42076  -0.40479  -0.36430
 Alpha  occ. eigenvalues --   -0.34571  -0.32862  -0.31555  -0.27879
 Alpha virt. eigenvalues --   -0.00831   0.04297   0.06441   0.07387   0.08124
 Alpha virt. eigenvalues --    0.11073   0.14643   0.14923   0.16710   0.17775
 Alpha virt. eigenvalues --    0.19090   0.20696   0.21617   0.22070   0.22870

 Mulliken charges:
               1
     1  C    0.018414
     2  C   -0.228827
     3  C    0.264066
     4  C   -0.013189
     5  C    0.006206
     6  C    0.004571
     7  H    0.021616
     8  H    0.026866
     9  H    0.024297
    10  H    0.024160
    11  N   -0.285315
    12  S    0.174336
    13  C   -0.088381
    14  C   -0.021833
    15  C    0.112761
    16  C   -0.019520
    17  H    0.011833
    18  C   -0.016414
    19  C    0.023063
    20  H    0.005317
    21  H    0.008476
    22  H    0.015988
    23  C    0.075613
    24  O   -0.350047
    25  H    0.205942
 Sum of Mulliken charges =  -0.00000

 Dipole moment (field-independent basis, Debye):
    X=              0.7547    Y=             -4.1714    Z=             -0.0006  Tot=              4.2391
 Quadrupole moment (field-independent basis, Debye-Ang):
   XX=            -82.5831   YY=            -92.4188   ZZ=           -103.9448
   XY=             -7.1221   XZ=             -0.0001   YZ=             -0.0015

  Exact polarizability:     278.815     -74.608     264.799       0.000       0.005      62.836
 Approx polarizability:     264.019     -26.730     247.605       0.002       0.003      82.107

 ******    1 imaginary frequencies (negative Signs) ******

                      1                      2                      3
                      A                      A                      A
 Frequencies --  -1076.2505                47.3814                64.7038
 Red. masses --      1.1178                 4.8454                 6.3320
 Frc consts  --      0.7629                 0.0064                 0.0156
 IR Inten    --   1692.2870                 0.0234                 1.4505

                      4                      5                      6
                      A                      A                      A
 Frequencies --    141.5189               152.1777               200.4290
 Red. masses --      5.6005                 5.1474                 6.3086
 Frc consts  --      0.0661                 0.0702                 0.1493
 IR Inten    --      0.9946                 0.7643                 0.1938

                      7                      8                      9
                      A                      A                      A
 Frequencies --    243.0138               281.2692               324.0567
 Red. masses --      5.8851                 7.1422                 5.2518
 Frc consts  --      0.2048                 0.3329                 0.3249
 IR Inten    --      0.3120                 4.4745                 0.3091

                     10                     11                     12
                      A                      A                      A
 Frequencies --    383.4371               427.7239               433.5438
 Red. masses --      6.1479                11.6501                 3.1146
 Frc consts  --      0.5326                 1.2558                 0.3449
 IR Inten    --      3.8146                 2.1283                 1.3633

                     13                     14                     15
                      A                      A                      A
 Frequencies --    458.2556               517.2800               537.8870
 Red. masses --      3.5767                 8.7340                 3.2671
 Frc consts  --      0.4425                 1.3769                 0.5569
 IR Inten    --      9.2003                 4.8625                 3.8089

                     16                     17                     18
                      A                      A                      A
 Frequencies --    559.1401               571.8841               578.0432
 Red. masses --      8.6275                 3.6815                 7.5932
 Frc consts  --      1.5892                 0.7094                 1.4949
 IR Inten    --      7.1862                 0.1102                 5.4290

                     19                     20                     21
                      A                      A                      A
 Frequencies --    623.8322               648.7677               693.7987
 Red. masses --      7.3778                 6.4926                 6.4001
 Frc consts  --      1.6917                 1.6101                 1.8151
 IR Inten    --     34.7106                 0.0001                 1.4447

                     22                     23                     24
                      A                      A                      A
 Frequencies --    732.8265               754.3073               767.4241
 Red. masses --      6.5562                 2.2600                 1.6222
 Frc consts  --      2.0745                 0.7576                 0.5629
 IR Inten    --      5.7045                19.9500                35.8197

                     25                     26                     27
                      A                      A                      A
 Frequencies --    776.3514               778.0729               780.8590
 Red. masses --      2.2727                 8.4324                 1.7518
 Frc consts  --      0.8071                 3.0078                 0.6293
 IR Inten    --     23.7923                29.7039                48.0408

                     28                     29                     30
                      A                      A                      A
 Frequencies --    857.5269               878.7940               885.0288
 Red. masses --      6.2701                 1.6585                 1.3915
 Frc consts  --      2.7166                 0.7546                 0.6422
 IR Inten    --     16.0073                 7.2134                 0.4798

                     31                     32                     33
                      A                      A                      A
 Frequencies --    930.9079               965.7455               973.6820
 Red. masses --      7.2052                 1.3486                 1.3632
 Frc consts  --      3.6788                 0.7410                 0.7615
 IR Inten    --      5.3702                 0.7676                 1.4280

                     34                     35                     36
                      A                      A                      A
 Frequencies --   1011.5954              1015.7582              1017.0422
 Red. masses --      1.3046                 1.3059                 7.4670
 Frc consts  --      0.7865                 0.7938                 4.5507
 IR Inten    --      0.2977                 0.0019                12.7103

                     37                     38                     39
                      A                      A                      A
 Frequencies --   1053.7518              1060.2583              1106.0179
 Red. masses --      2.0211                 1.9165                 3.4293
 Frc consts  --      1.3222                 1.2694                 2.4716
 IR Inten    --      8.1251                 8.2976                 3.1724

                     40                     41                     42
                      A                      A                      A
 Frequencies --   1157.3786              1160.0613              1175.6783
 Red. masses --      1.4241                 1.3791                 1.1032
 Frc consts  --      1.1239                 1.0935                 0.8984
 IR Inten    --     11.2900                 0.7104                88.5905

                     43                     44                     45
                      A                      A                      A
 Frequencies --   1179.6308              1184.8297              1259.1066
 Red. masses --      1.0557                 1.2086                 1.9691
 Frc consts  --      0.8655                 0.9997                 1.8392
 IR Inten    --     70.0385                 0.4655                53.2159

                     46                     47                     48
                      A                      A                      A
 Frequencies --   1290.1871              1324.6680              1343.3629
 Red. masses --      1.5331                 3.8068                 2.7993
 Frc consts  --      1.5036                 3.9358                 2.9764
 IR Inten    --      5.5410               356.3566                15.6810

                     49                     50                     51
                      A                      A                      A
 Frequencies --   1379.3089              1394.6154              1398.8650
 Red. masses --      6.3204                 3.0434                 4.8607
 Frc consts  --      7.0847                 3.4875                 5.6041
 IR Inten    --     28.0664                18.3681                 6.2742

                     52                     53                     54
                      A                      A                      A
 Frequencies --   1489.1028              1500.1104              1513.3725
 Red. masses --      2.7805                 2.8411                 3.2134
 Frc consts  --      3.6326                 3.7668                 4.3362
 IR Inten    --     37.2231                15.2886                31.9416

                     55                     56                     57
                      A                      A                      A
 Frequencies --   1566.5685              1579.6742              1616.2533
 Red. masses --      6.2499                 4.9951                 6.0763
 Frc consts  --      9.0369                 7.3439                 9.3521
 IR Inten    --   1307.5159               206.5682                94.6617

                     58                     59                     60
                      A                      A                      A
 Frequencies --   1659.0801              1680.4815              1706.6167
 Red. masses --      6.9528                 6.7827                 6.8318
 Frc consts  --     11.2757                11.2856                11.7235
 IR Inten    --      3.3260                 2.3484               204.2471

                     61                     62                     63
                      A                      A                      A
 Frequencies --   1930.6404              3192.5596              3201.4418
 Red. masses --      1.0973                 1.0891                 1.0887
 Frc consts  --      2.4097                 6.5401                 6.5740
 IR Inten    --    167.2824                 3.7711                10.2028

                     64                     65                     66
                      A                      A                      A
 Frequencies --   3214.4602              3224.3435              3225.8268
 Red. masses --      1.0862                 1.0908                 1.0938
 Frc consts  --      6.6129                 6.6818                 6.7059
 IR Inten    --      1.5524                 2.8190                18.4212

                     67                     68                     69
                      A                      A                      A
 Frequencies --   3234.3396              3236.3876              3240.6717
 Red. masses --      1.0960                 1.0979                 1.0998
 Frc consts  --      6.7550                 6.7753                 6.8050
 IR Inten    --      6.9011                17.8943                12.1229

 - Thermochemistry -
 -------------------
 Temperature   298.150 Kelvin.  Pressure   1.00000 Atm.
 Atom     1 has atomic number  6 and mass  12.00000

 Molecular mass:   227.04049 amu.
 Principal axes and moments of inertia in atomic units:
                           1         2         3
     Eigenvalues --  1277.591856237.233327514.82514
           X            0.70791   0.70630  -0.00002
           Y           -0.70630   0.70791  -0.00004
           Z           -0.00002   0.00004   1.00000
 This molecule is an asymmetric top.
 Rotational symmetry number  1.
 Warning -- assumption of classical behavior for rotation
           may cause significant error
 Rotational temperatures (Kelvin)      0.06779     0.01389     0.01153
 Rotational constants (GHZ):           1.41261     0.28935     0.24016
    1 imaginary frequencies ignored.
 Zero-point vibrational energy     487440.7 (Joules/Mol)
                                  116.50112 (Kcal/Mol)
 Warning -- explicit consideration of  17 degrees of freedom as
           vibrations may cause significant error
 Vibrational temperatures:     68.17    93.09   203.61   218.95   288.37
          (Kelvin)            349.64   404.68   466.25   551.68   615.40
                              623.77   659.33   744.25   773.90   804.48
                              822.81   831.68   897.56   933.43   998.22
                             1054.37  1085.28  1104.15  1117.00  1119.47
                             1123.48  1233.79  1264.39  1273.36  1339.37
                             1389.49  1400.91  1455.46  1461.45  1463.30
                             1516.11  1525.48  1591.31  1665.21  1669.07
                             1691.54  1697.23  1704.71  1811.57  1856.29
                             1905.90  1932.80  1984.52  2006.54  2012.65
                             2142.49  2158.32  2177.41  2253.94  2272.80
                             2325.43  2387.05  2417.84  2455.44  2777.76
                             4593.38  4606.16  4624.89  4639.11  4641.25
                             4653.49  4656.44  4662.60

 Zero-point correction=                           0.185656 (Hartree/Particle)
 Thermal correction to Energy=                    0.197034
 Thermal correction to Enthalpy=                  0.197978
 Thermal correction to Gibbs Free Energy=         0.147379
 Sum of electronic and zero-point Energies=          -1028.629406
 Sum of electronic and thermal Energies=             -1028.618029
 Sum of electronic and thermal Enthalpies=           -1028.617085
 Sum of electronic and thermal Free Energies=        -1028.667684

                     E (Thermal)             CV                S
                      KCal/Mol        Cal/Mol-Kelvin    Cal/Mol-Kelvin
 Total                  123.640             46.462            106.494
 Electronic               0.000              0.000              0.000
 Translational            0.889              2.981             42.162
 Rotational               0.889              2.981             32.460
 Vibrational            121.863             40.501             31.872
 Vibration     1          0.595              1.979              4.924
 Vibration     2          0.597              1.971              4.308
 Vibration     3          0.615              1.912              2.783
 Vibration     4          0.619              1.900              2.645
 Vibration     5          0.638              1.839              2.129
 Vibration     6          0.659              1.774              1.781
 Vibration     7          0.681              1.708              1.526
 Vibration     8          0.709              1.627              1.290
 Vibration     9          0.753              1.506              1.026
 Vibration    10          0.789              1.410              0.866
 Vibration    11          0.794              1.397              0.847
 Vibration    12          0.816              1.343              0.771
 Vibration    13          0.872              1.212              0.616
 Vibration    14          0.893              1.166              0.570
 Vibration    15          0.915              1.120              0.526
 Vibration    16          0.928              1.092              0.501
 Vibration    17          0.935              1.079              0.489

 Optimization completed.
    -- Stationary point found.
 Normal termination of Gaussian 16 at Tue Oct 27 23:52:46 2020.
