 Gaussian 16, Revision C.01,
 Gaussian 16:  ES64L-G16RevC.01  3-Jul-2019

 ----------------------------------------------------------------------
 #p opt=addgic freq wb97xd/cc-pvdz nosymm int=ultrafine scrf=(solvent=C
 arbonTetraChloride)
 ----------------------------------------------------------------------

 ------------------------------------------------
 NM 2D-scan of HBT TD-WB97XD pVDZ in CTC Relaxed.
 ------------------------------------------------
 Symbolic Z-matrix:
 Charge =  0 Multiplicity = 1

 SCF Done:  E(RwB97XD) =  -1028.73749196     A.U. after   16 cycles
 SCF Done:  E(RwB97XD) =  -1028.79402494     A.U. after   13 cycles
 SCF Done:  E(RwB97XD) =  -1028.80671714     A.U. after   13 cycles
 SCF Done:  E(RwB97XD) =  -1028.80801135     A.U. after   12 cycles
 SCF Done:  E(RwB97XD) =  -1028.80805607     A.U. after   11 cycles
 SCF Done:  E(RwB97XD) =  -1028.80806031     A.U. after   10 cycles
 SCF Done:  E(RwB97XD) =  -1028.80806074     A.U. after    9 cycles
 Optimization completed.
    -- Stationary point found.
 Normal termination of Gaussian 16 at Wed Oct 28 00:24:52 2020.

 --------------------------------------------------------------------
 #P Geom=AllCheck Guess=TCheck SCRF=Check GenChk RwB97XD/CC-pVDZ Freq
 --------------------------------------------------------------------

 Structure from the checkpoint file:  "config_10_16.chk"
 ------------------------------------------------
 NM 2D-scan of HBT TD-WB97XD pVDZ in CTC Relaxed.
 ------------------------------------------------
 Charge =  0 Multiplicity = 1

                          Input orientation:
 ---------------------------------------------------------------------
 Center     Atomic      Atomic             Coordinates (Angstroms)
 Number     Number       Type             X           Y           Z
 ---------------------------------------------------------------------
      1          6           0        1.560013   -3.275421   -0.000052
      2          6           0        0.998893   -2.004545   -0.000027
      3          6           0        1.786289   -0.855128    0.000001
      4          6           0        3.178584   -0.950377    0.000005
      5          6           0        3.743085   -2.225866   -0.000021
      6          6           0        2.947266   -3.376886   -0.000049
      7          1           0        0.928728   -4.164055   -0.000073
      8          1           0        3.802111   -0.055901    0.000027
      9          1           0        4.829453   -2.323167   -0.000018
     10          1           0        3.415936   -4.361381   -0.000068
     11          7           0        0.989383    0.283395    0.000024
     12         16           0       -0.709152   -1.590002   -0.000021
     13          6           0       -1.321666    1.123255    0.000038
     14          6           0       -2.702081    0.777122    0.000047
     15          6           0       -0.881020    2.513381    0.000053
     16          6           0       -3.676856    1.737243    0.000054
     17          1           0       -2.990727   -0.277836    0.000051
     18          6           0       -1.971494    3.485204    0.000011
     19          6           0       -3.288053    3.108200    0.000027
     20          1           0       -4.731294    1.460906    0.000064
     21          1           0       -1.688661    4.539747   -0.000026
     22          1           0       -4.065887    3.876350    0.000014
     23          6           0       -0.345023    0.109667    0.000016
     24          8           0        0.328149    2.821714   -0.000026
     25          1           0        1.376020    1.214446    0.000046
 ---------------------------------------------------------------------

 SCF Done:  E(RwB97XD) =  -1028.80806074     A.U. after    1 cycles

 Alpha  occ. eigenvalues --  -89.09738 -19.21324 -14.52308 -10.41381 -10.37295
 Alpha  occ. eigenvalues --  -10.36026 -10.35797 -10.33200 -10.33075 -10.32571
 Alpha  occ. eigenvalues --  -10.32278 -10.31123 -10.30728 -10.30310 -10.29139
 Alpha  occ. eigenvalues --  -10.28629  -8.11826  -6.06706  -6.06320  -6.05831
 Alpha  occ. eigenvalues --   -1.12936  -1.09892  -0.98614  -0.95531  -0.93274
 Alpha  occ. eigenvalues --   -0.89191  -0.86739  -0.83792  -0.81788  -0.75511
 Alpha  occ. eigenvalues --   -0.73594  -0.72091  -0.69190  -0.67918  -0.64759
 Alpha  occ. eigenvalues --   -0.60917  -0.59731  -0.56715  -0.55955  -0.55939
 Alpha  occ. eigenvalues --   -0.55023  -0.53863  -0.52990  -0.50114  -0.49513
 Alpha  occ. eigenvalues --   -0.48993  -0.48309  -0.46768  -0.45645  -0.44766
 Alpha  occ. eigenvalues --   -0.44497  -0.42901  -0.41898  -0.40395  -0.36865
 Alpha  occ. eigenvalues --   -0.33576  -0.31630  -0.31517  -0.26240
 Alpha virt. eigenvalues --   -0.01256   0.03801   0.05806   0.07034   0.09417
 Alpha virt. eigenvalues --    0.11291   0.14072   0.14765   0.16115   0.17221
 Alpha virt. eigenvalues --    0.18244   0.19853   0.20941   0.21555   0.22843

 Mulliken charges:
               1
     1  C    0.017414
     2  C   -0.233961
     3  C    0.235465
     4  C   -0.011394
     5  C    0.009348
     6  C    0.004458
     7  H    0.023899
     8  H    0.030088
     9  H    0.027168
    10  H    0.025883
    11  N   -0.123922
    12  S    0.180216
    13  C   -0.093528
    14  C   -0.018404
    15  C    0.098347
    16  C   -0.031974
    17  H    0.011696
    18  C   -0.033818
    19  C    0.028069
    20  H    0.002129
    21  H    0.002019
    22  H    0.013888
    23  C    0.085459
    24  O   -0.373963
    25  H    0.125418
 Sum of Mulliken charges =  -0.00000

 Dipole moment (field-independent basis, Debye):
    X=              1.9613    Y=             -5.3649    Z=              0.0001  Tot=              5.7122
 Quadrupole moment (field-independent basis, Debye-Ang):
   XX=            -81.4060   YY=            -96.1078   ZZ=           -103.9837
   XY=             -6.5429   XZ=              0.0001   YZ=              0.0005

  Exact polarizability:     288.002     -88.997     286.513      -0.002       0.002      62.856
 Approx polarizability:     265.953     -33.352     255.004      -0.001       0.001      81.871

                      1                      2                      3
                      A                      A                      A
 Frequencies --     53.2129                59.8989               114.4632
 Red. masses --      4.6208                 6.2847                 5.7822
 Frc consts  --      0.0077                 0.0133                 0.0446
 IR Inten    --      1.2145                 1.3763                 1.2169

                      4                      5                      6
                      A                      A                      A
 Frequencies --    127.6697               194.4081               226.4512
 Red. masses --      5.5248                 6.1656                 5.8070
 Frc consts  --      0.0531                 0.1373                 0.1754
 IR Inten    --      1.3820                 0.0137                 0.8920

                      7                      8                      9
                      A                      A                      A
 Frequencies --    270.3200               302.1911               307.6187
 Red. masses --      8.0451                 7.0867                 5.2765
 Frc consts  --      0.3464                 0.3813                 0.2942
 IR Inten    --      6.4597                 2.0428                 1.1966

                     10                     11                     12
                      A                      A                      A
 Frequencies --    400.7426               426.8454               445.9579
 Red. masses --      8.5324                 3.2975                 3.5005
 Frc consts  --      0.8073                 0.3540                 0.4102
 IR Inten    --      3.8272                 0.1012                10.1061

                     13                     14                     15
                      A                      A                      A
 Frequencies --    509.3333               521.4373               534.8949
 Red. masses --      8.3802                 2.6619                 7.4191
 Frc consts  --      1.2809                 0.4264                 1.2507
 IR Inten    --     10.7935                 7.4674                 7.4871

                     16                     17                     18
                      A                      A                      A
 Frequencies --    547.7730               561.7429               582.4529
 Red. masses --      6.9911                 3.8200                 7.2985
 Frc consts  --      1.2359                 0.7102                 1.4588
 IR Inten    --      9.2857                 0.1554                39.7370

                     19                     20                     21
                      A                      A                      A
 Frequencies --    618.7754               657.0617               670.7551
 Red. masses --      2.2658                 6.1604                 1.5683
 Frc consts  --      0.5111                 1.5670                 0.4157
 IR Inten    --     18.6982                 2.6949                56.7819

                     22                     23                     24
                      A                      A                      A
 Frequencies --    719.1569               741.4693               751.9289
 Red. masses --      5.8199                 7.5621                 2.5713
 Frc consts  --      1.7734                 2.4495                 0.8566
 IR Inten    --     53.9413                58.0283                18.9207

                     25                     26                     27
                      A                      A                      A
 Frequencies --    759.0524               774.7239               780.6066
 Red. masses --      1.4187                 1.5782                 2.4771
 Frc consts  --      0.4816                 0.5581                 0.8893
 IR Inten    --     43.9371                45.3858                21.2042

                     28                     29                     30
                      A                      A                      A
 Frequencies --    835.2273               877.0113               882.8956
 Red. masses --      6.3517                 2.0482                 1.3738
 Frc consts  --      2.6106                 0.9282                 0.6310
 IR Inten    --     17.7617                17.1529                 0.7324

                     31                     32                     33
                      A                      A                      A
 Frequencies --    883.3549               964.9304               969.9967
 Red. masses --      4.8526                 1.3231                 1.3605
 Frc consts  --      2.2310                 0.7258                 0.7542
 IR Inten    --      1.1087                 0.0976                 1.5824

                     34                     35                     36
                      A                      A                      A
 Frequencies --    971.4074              1013.1794              1018.5187
 Red. masses --      4.5771                 1.3034                 1.3072
 Frc consts  --      2.5448                 0.7883                 0.7990
 IR Inten    --     30.8349                 0.0100                 0.3557

                     37                     38                     39
                      A                      A                      A
 Frequencies --   1043.4807              1058.3991              1096.4668
 Red. masses --      2.1459                 2.0895                 3.4725
 Frc consts  --      1.3767                 1.3791                 2.4597
 IR Inten    --     15.3918                11.4087                16.0822

                     40                     41                     42
                      A                      A                      A
 Frequencies --   1138.4646              1161.7055              1164.1578
 Red. masses --      1.9435                 1.3403                 1.2185
 Frc consts  --      1.4842                 1.0657                 0.9730
 IR Inten    --     59.6323                14.3634                81.4723

                     43                     44                     45
                      A                      A                      A
 Frequencies --   1180.4925              1206.9757              1251.2641
 Red. masses --      1.1482                 1.3039                 2.0545
 Frc consts  --      0.9427                 1.1191                 1.8952
 IR Inten    --     17.9153                26.5999                10.2457

                     46                     47                     48
                      A                      A                      A
 Frequencies --   1290.1250              1302.2596              1356.4889
 Red. masses --      1.6769                 2.4952                 2.7115
 Frc consts  --      1.6444                 2.4931                 2.9396
 IR Inten    --     16.1644               165.5759                26.4240

                     49                     50                     51
                      A                      A                      A
 Frequencies --   1385.7104              1400.0836              1414.8913
 Red. masses --      5.6093                 5.1262                 2.2802
 Frc consts  --      6.3461                 5.9205                 2.6895
 IR Inten    --    159.6754                46.9138                 7.2938

                     52                     53                     54
                      A                      A                      A
 Frequencies --   1495.2096              1509.2052              1523.8024
 Red. masses --      2.7307                 2.6916                 3.1421
 Frc consts  --      3.5969                 3.6120                 4.2986
 IR Inten    --     33.1567               300.6330                13.6466

                     55                     56                     57
                      A                      A                      A
 Frequencies --   1557.0657              1602.4131              1651.2698
 Red. masses --      4.5445                 6.7044                 6.8716
 Frc consts  --      6.4916                10.1428                11.0393
 IR Inten    --   1926.6759               158.8878               131.5357

                     58                     59                     60
                      A                      A                      A
 Frequencies --   1680.2073              1682.3576              1721.4575
 Red. masses --      7.3355                 7.1512                 7.6906
 Frc consts  --     12.2013                11.9253                13.4278
 IR Inten    --      3.3224               103.0729               418.8824

                     61                     62                     63
                      A                      A                      A
 Frequencies --   3186.9561              3194.2291              3215.5936
 Red. masses --      1.0879                 1.0880                 1.0863
 Frc consts  --      6.5103                 6.5404                 6.6181
 IR Inten    --      2.8127                14.4115                 1.2137

                     64                     65                     66
                      A                      A                      A
 Frequencies --   3217.5330              3225.5504              3232.4753
 Red. masses --      1.0951                 1.0907                 1.0975
 Frc consts  --      6.6793                 6.6857                 6.7564
 IR Inten    --     31.8909                 2.4565                18.2629

                     67                     68                     69
                      A                      A                      A
 Frequencies --   3234.1323              3241.1789              3668.8802
 Red. masses --      1.0960                 1.1000                 1.0800
 Frc consts  --      6.7544                 6.8082                 8.5650
 IR Inten    --      4.8841                11.5054               139.4708

 - Thermochemistry -
 -------------------
 Temperature   298.150 Kelvin.  Pressure   1.00000 Atm.
 Atom     1 has atomic number  6 and mass  12.00000

 Molecular mass:   227.04049 amu.
 Principal axes and moments of inertia in atomic units:
                           1         2         3
     Eigenvalues --  1279.580926385.137537664.71845
           X           -0.70365   0.71054   0.00000
           Y            0.71054   0.70365  -0.00001
           Z            0.00001   0.00000   1.00000
 This molecule is an asymmetric top.
 Rotational symmetry number  1.
 Warning -- assumption of classical behavior for rotation
           may cause significant error
 Rotational temperatures (Kelvin)      0.06769     0.01356     0.01130
 Rotational constants (GHZ):           1.41042     0.28265     0.23546
 Zero-point vibrational energy     498651.1 (Joules/Mol)
                                  119.18047 (Kcal/Mol)
 Warning -- explicit consideration of  19 degrees of freedom as
           vibrations may cause significant error
 Vibrational temperatures:     76.56    86.18   164.69   183.69   279.71
          (Kelvin)            325.81   388.93   434.79   442.59   576.58
                              614.14   641.63   732.82   750.23   769.59
                              788.12   808.22   838.02   890.28   945.37
                              965.07  1034.71  1066.81  1081.86  1092.11
                             1114.65  1123.12  1201.71  1261.82  1270.29
                             1270.95  1388.32  1395.61  1397.64  1457.74
                             1465.42  1501.34  1522.80  1577.57  1638.00
                             1671.44  1674.96  1698.47  1736.57  1800.29
                             1856.20  1873.66  1951.68  1993.73  2014.41
                             2035.71  2151.27  2171.41  2192.41  2240.27
                             2305.52  2375.81  2417.44  2420.54  2476.79
                             4585.32  4595.78  4626.52  4629.31  4640.85
                             4650.81  4653.20  4663.33  5278.70

 Zero-point correction=                           0.189926 (Hartree/Particle)
 Thermal correction to Energy=                    0.201875
 Thermal correction to Enthalpy=                  0.202819
 Thermal correction to Gibbs Free Energy=         0.151082
 Sum of electronic and zero-point Energies=          -1028.618135
 Sum of electronic and thermal Energies=             -1028.606185
 Sum of electronic and thermal Enthalpies=           -1028.605241
 Sum of electronic and thermal Free Energies=        -1028.656979

                     E (Thermal)             CV                S
                      KCal/Mol        Cal/Mol-Kelvin    Cal/Mol-Kelvin
 Total                  126.679             48.423            108.891
 Electronic               0.000              0.000              0.000
 Translational            0.889              2.981             42.162
 Rotational               0.889              2.981             32.504
 Vibrational            124.901             42.461             34.225
 Vibration     1          0.596              1.976              4.694
 Vibration     2          0.597              1.973              4.461
 Vibration     3          0.607              1.937              3.192
 Vibration     4          0.611              1.926              2.981
 Vibration     5          0.635              1.848              2.185
 Vibration     6          0.650              1.801              1.907
 Vibration     7          0.674              1.728              1.594
 Vibration     8          0.694              1.670              1.405
 Vibration     9          0.697              1.659              1.375
 Vibration    10          0.767              1.469              0.960
 Vibration    11          0.789              1.412              0.869
 Vibration    12          0.805              1.370              0.808
 Vibration    13          0.864              1.229              0.635
 Vibration    14          0.876              1.203              0.607
 Vibration    15          0.890              1.173              0.576
 Vibration    16          0.903              1.145              0.549
 Vibration    17          0.917              1.114              0.520
 Vibration    18          0.939              1.069              0.481
 Vibration    19          0.979              0.992              0.418

 Optimization completed.
    -- Stationary point found.
 Normal termination of Gaussian 16 at Wed Oct 28 00:30:55 2020.
