 Gaussian 16, Revision C.01,
 Gaussian 16:  ES64L-G16RevC.01  3-Jul-2019

 ----------------------------------------------------------------------
 #p opt=addgic freq wb97xd/cc-pvdz nosymm int=ultrafine scrf=(solvent=C
 arbonTetraChloride)
 ----------------------------------------------------------------------

 ------------------------------------------------
 NM 2D-scan of HBT TD-WB97XD pVDZ in CTC Relaxed.
 ------------------------------------------------
 Symbolic Z-matrix:
 Charge =  0 Multiplicity = 1

 SCF Done:  E(RwB97XD) =  -1028.80276337     A.U. after   16 cycles
 SCF Done:  E(RwB97XD) =  -1028.81120788     A.U. after   13 cycles
 SCF Done:  E(RwB97XD) =  -1028.81118975     A.U. after   13 cycles
 SCF Done:  E(RwB97XD) =  -1028.81229008     A.U. after   12 cycles
 SCF Done:  E(RwB97XD) =  -1028.81230834     A.U. after   10 cycles
 SCF Done:  E(RwB97XD) =  -1028.81230905     A.U. after    9 cycles
 Optimization completed.
    -- Stationary point found.
 Normal termination of Gaussian 16 at Tue Oct 27 21:37:11 2020.

 --------------------------------------------------------------------
 #P Geom=AllCheck Guess=TCheck SCRF=Check GenChk RwB97XD/CC-pVDZ Freq
 --------------------------------------------------------------------

 Structure from the checkpoint file:  "config_9_5.chk"
 ------------------------------------------------
 NM 2D-scan of HBT TD-WB97XD pVDZ in CTC Relaxed.
 ------------------------------------------------
 Charge =  0 Multiplicity = 1

                          Input orientation:
 ---------------------------------------------------------------------
 Center     Atomic      Atomic             Coordinates (Angstroms)
 Number     Number       Type             X           Y           Z
 ---------------------------------------------------------------------
      1          6           0        1.704093   -3.263714    0.000003
      2          6           0        1.002479   -2.058360    0.000002
      3          6           0        1.690717   -0.841569   -0.000022
      4          6           0        3.084398   -0.785884   -0.000048
      5          6           0        3.779354   -1.987733   -0.000045
      6          6           0        3.096562   -3.212110   -0.000020
      7          1           0        1.181713   -4.220538    0.000019
      8          1           0        3.596997    0.176169   -0.000068
      9          1           0        4.869951   -1.977939   -0.000064
     10          1           0        3.662806   -4.144220   -0.000021
     11          7           0        0.833464    0.232964   -0.000025
     12         16           0       -0.744701   -1.764758    0.000013
     13          6           0       -1.396997    1.054644    0.000012
     14          6           0       -2.803882    0.875584   -0.000016
     15          6           0       -0.823649    2.396534    0.000061
     16          6           0       -3.660112    1.950872   -0.000007
     17          1           0       -3.209494   -0.140330   -0.000053
     18          6           0       -1.768114    3.481101    0.000079
     19          6           0       -3.121708    3.263764    0.000041
     20          1           0       -4.739506    1.799174   -0.000034
     21          1           0       -1.350998    4.489357    0.000131
     22          1           0       -3.802002    4.118974    0.000056
     23          6           0       -0.469352   -0.029512    0.000005
     24          8           0        0.427251    2.622509    0.000142
     25          1           0        1.031405    1.290643   -0.000060
 ---------------------------------------------------------------------

 SCF Done:  E(RwB97XD) =  -1028.81230905     A.U. after    1 cycles

 Alpha  occ. eigenvalues --  -89.10120 -19.22211 -14.50580 -10.41197 -10.36771
 Alpha  occ. eigenvalues --  -10.36326 -10.35978 -10.33270 -10.32677 -10.32396
 Alpha  occ. eigenvalues --  -10.32245 -10.31332 -10.31012 -10.30755 -10.29237
 Alpha  occ. eigenvalues --  -10.28703  -8.12094  -6.06976  -6.06598  -6.06109
 Alpha  occ. eigenvalues --   -1.13282  -1.10011  -0.98364  -0.95144  -0.92977
 Alpha  occ. eigenvalues --   -0.89243  -0.86300  -0.83980  -0.82080  -0.75800
 Alpha  occ. eigenvalues --   -0.72459  -0.71554  -0.69044  -0.68093  -0.64439
 Alpha  occ. eigenvalues --   -0.60850  -0.59675  -0.56898  -0.55727  -0.55710
 Alpha  occ. eigenvalues --   -0.54879  -0.53606  -0.52818  -0.50691  -0.49913
 Alpha  occ. eigenvalues --   -0.49168  -0.48046  -0.46639  -0.45491  -0.44885
 Alpha  occ. eigenvalues --   -0.44424  -0.43078  -0.41768  -0.40565  -0.36690
 Alpha  occ. eigenvalues --   -0.33399  -0.32705  -0.31602  -0.26800
 Alpha virt. eigenvalues --   -0.01185   0.03896   0.06231   0.06701   0.08878
 Alpha virt. eigenvalues --    0.10981   0.13090   0.14725   0.16053   0.17496
 Alpha virt. eigenvalues --    0.19120   0.20332   0.21332   0.21711   0.23008

 Mulliken charges:
               1
     1  C    0.011432
     2  C   -0.243122
     3  C    0.272380
     4  C   -0.009564
     5  C    0.011644
     6  C    0.001586
     7  H    0.025136
     8  H    0.031200
     9  H    0.026300
    10  H    0.025655
    11  N   -0.161916
    12  S    0.182057
    13  C   -0.131578
    14  C   -0.005926
    15  C    0.116430
    16  C   -0.029614
    17  H    0.003363
    18  C   -0.012917
    19  C    0.025902
    20  H    0.003522
    21  H    0.003443
    22  H    0.013775
    23  C    0.072794
    24  O   -0.397320
    25  H    0.165337
 Sum of Mulliken charges =  -0.00000

 Dipole moment (field-independent basis, Debye):
    X=              1.4232    Y=             -4.8071    Z=             -0.0003  Tot=              5.0133
 Quadrupole moment (field-independent basis, Debye-Ang):
   XX=            -82.5132   YY=            -93.7145   ZZ=           -104.0487
   XY=             -7.0660   XZ=             -0.0004   YZ=             -0.0006

  Exact polarizability:     285.065     -82.621     280.497      -0.001       0.003      62.979
 Approx polarizability:     266.495     -31.052     255.249       0.000       0.002      82.090

                      1                      2                      3
                      A                      A                      A
 Frequencies --     55.0174                72.4652               111.9677
 Red. masses --      5.3522                 5.4117                 5.6068
 Frc consts  --      0.0095                 0.0167                 0.0414
 IR Inten    --      0.5209                 1.7519                 4.7537

                      4                      5                      6
                      A                      A                      A
 Frequencies --    143.9298               199.9459               237.9524
 Red. masses --      5.2167                 6.0651                 6.2020
 Frc consts  --      0.0637                 0.1429                 0.2069
 IR Inten    --      1.0750                 0.0252                 0.7009

                      7                      8                      9
                      A                      A                      A
 Frequencies --    265.6314               311.2446               311.9724
 Red. masses --      7.3525                 5.3544                 5.6718
 Frc consts  --      0.3057                 0.3056                 0.3252
 IR Inten    --     13.1134                 0.9210                17.7154

                     10                     11                     12
                      A                      A                      A
 Frequencies --    409.6870               431.5955               451.7854
 Red. masses --     11.0574                 3.2118                 3.6223
 Frc consts  --      1.0935                 0.3525                 0.4356
 IR Inten    --      3.4338                 0.7021                10.3107

                     13                     14                     15
                      A                      A                      A
 Frequencies --    512.0028               534.7044               541.5365
 Red. masses --      8.7811                 2.9579                 6.1523
 Frc consts  --      1.3563                 0.4983                 1.0630
 IR Inten    --      5.9889                 5.1245                 8.1968

                     16                     17                     18
                      A                      A                      A
 Frequencies --    552.0155               563.8361               584.4508
 Red. masses --      6.4594                 3.7069                 6.5743
 Frc consts  --      1.1597                 0.6943                 1.3231
 IR Inten    --     13.2405                 0.0391                39.5653

                     19                     20                     21
                      A                      A                      A
 Frequencies --    635.7456               642.8273               712.1468
 Red. masses --      5.2566                 6.2903                 6.7887
 Frc consts  --      1.2518                 1.5315                 2.0285
 IR Inten    --      2.7831                 0.0171                38.2943

                     22                     23                     24
                      A                      A                      A
 Frequencies --    721.7959               751.6589               763.5143
 Red. masses --      6.7638                 2.5837                 1.4853
 Frc consts  --      2.0762                 0.8601                 0.5102
 IR Inten    --     43.9294                10.7261                49.1041

                     25                     26                     27
                      A                      A                      A
 Frequencies --    777.7793               778.4995               824.5782
 Red. masses --      2.4050                 1.5817                 4.0143
 Frc consts  --      0.8572                 0.5648                 1.6081
 IR Inten    --     19.3465                42.9387                20.7488

                     28                     29                     30
                      A                      A                      A
 Frequencies --    856.5338               878.7816               883.7644
 Red. masses --      4.6484                 1.8078                 1.3863
 Frc consts  --      2.0093                 0.8225                 0.6379
 IR Inten    --     13.4448                 8.6552                 0.1953

                     31                     32                     33
                      A                      A                      A
 Frequencies --    953.1853               969.1646               972.9690
 Red. masses --      5.3242                 1.3268                 1.3579
 Frc consts  --      2.8501                 0.7343                 0.7574
 IR Inten    --     36.2020                 0.4201                 0.9993

                     34                     35                     36
                      A                      A                      A
 Frequencies --   1014.7268              1015.6767              1020.8353
 Red. masses --      1.2682                 1.3042                 1.1094
 Frc consts  --      0.7694                 0.7927                 0.6812
 IR Inten    --      8.3304                 0.1699                66.7784

                     37                     38                     39
                      A                      A                      A
 Frequencies --   1042.9821              1056.5410              1066.8246
 Red. masses --      2.3456                 2.1470                 3.2105
 Frc consts  --      1.5033                 1.4120                 2.1528
 IR Inten    --     15.0639                 9.8601                27.3139

                     40                     41                     42
                      A                      A                      A
 Frequencies --   1113.3031              1157.3354              1159.8166
 Red. masses --      2.7448                 1.3765                 1.2382
 Frc consts  --      2.0044                 1.0862                 0.9813
 IR Inten    --     55.8119                15.2969                23.7921

                     43                     44                     45
                      A                      A                      A
 Frequencies --   1182.1761              1190.1174              1259.2659
 Red. masses --      1.1405                 1.2138                 1.8395
 Frc consts  --      0.9391                 1.0129                 1.7186
 IR Inten    --     19.0660                 3.8405                 6.8472

                     46                     47                     48
                      A                      A                      A
 Frequencies --   1290.8337              1327.3717              1368.8016
 Red. masses --      1.5255                 2.9147                 3.6996
 Frc consts  --      1.4976                 3.0258                 4.0840
 IR Inten    --     19.8571               134.6894                24.2274

                     49                     50                     51
                      A                      A                      A
 Frequencies --   1382.1826              1392.8725              1417.7655
 Red. masses --      4.8082                 5.7948                 2.5751
 Frc consts  --      5.4120                 6.6239                 3.0496
 IR Inten    --     74.1256                10.7212                11.1025

                     52                     53                     54
                      A                      A                      A
 Frequencies --   1494.2974              1506.1588              1524.4790
 Red. masses --      2.6997                 2.7462                 3.4035
 Frc consts  --      3.5517                 3.6705                 4.6603
 IR Inten    --     19.6669               118.0628               118.5063

                     55                     56                     57
                      A                      A                      A
 Frequencies --   1579.1705              1605.1241              1615.1300
 Red. masses --      4.7869                 5.7093                 4.7175
 Frc consts  --      7.0334                 8.6666                 7.2506
 IR Inten    --   1138.7946               204.7624               768.7276

                     58                     59                     60
                      A                      A                      A
 Frequencies --   1668.0670              1683.2303              1712.8210
 Red. masses --      7.0313                 6.9633                 6.0165
 Frc consts  --     11.5270                11.6239                10.3996
 IR Inten    --     64.5933                84.6627               142.1058

                     61                     62                     63
                      A                      A                      A
 Frequencies --   2601.4981              3180.6415              3194.0641
 Red. masses --      1.1157                 1.0896                 1.0882
 Frc consts  --      4.4490                 6.4946                 6.5412
 IR Inten    --    613.6934                 4.4656                13.8455

                     64                     65                     66
                      A                      A                      A
 Frequencies --   3216.6348              3222.3369              3227.2011
 Red. masses --      1.0865                 1.0942                 1.0908
 Frc consts  --      6.6236                 6.6942                 6.6935
 IR Inten    --      1.7930                19.8219                 2.8019

                     67                     68                     69
                      A                      A                      A
 Frequencies --   3232.2870              3236.7144              3242.8081
 Red. masses --      1.0973                 1.0962                 1.0999
 Frc consts  --      6.7544                 6.7662                 6.8150
 IR Inten    --     19.8417                 5.5285                10.9610

 - Thermochemistry -
 -------------------
 Temperature   298.150 Kelvin.  Pressure   1.00000 Atm.
 Atom     1 has atomic number  6 and mass  12.00000

 Molecular mass:   227.04049 amu.
 Principal axes and moments of inertia in atomic units:
                           1         2         3
     Eigenvalues --  1314.708936279.085007593.79393
           X           -0.70461   0.70959  -0.00000
           Y            0.70959   0.70461  -0.00002
           Z            0.00001   0.00001   1.00000
 This molecule is an asymmetric top.
 Rotational symmetry number  1.
 Warning -- assumption of classical behavior for rotation
           may cause significant error
 Rotational temperatures (Kelvin)      0.06588     0.01379     0.01141
 Rotational constants (GHZ):           1.37273     0.28742     0.23766
 Zero-point vibrational energy     494158.1 (Joules/Mol)
                                  118.10661 (Kcal/Mol)
 Warning -- explicit consideration of  18 degrees of freedom as
           vibrations may cause significant error
 Vibrational temperatures:     79.16   104.26   161.10   207.08   287.68
          (Kelvin)            342.36   382.18   447.81   448.86   589.45
                              620.97   650.02   736.66   769.32   779.15
                              794.23   811.23   840.89   914.70   924.89
                             1024.62  1038.50  1081.47  1098.53  1119.05
                             1120.09  1186.38  1232.36  1264.37  1271.54
                             1371.42  1394.41  1399.89  1459.97  1461.33
                             1468.75  1500.62  1520.13  1534.92  1601.79
                             1665.15  1668.72  1700.89  1712.31  1811.80
                             1857.22  1909.79  1969.40  1988.65  2004.03
                             2039.85  2149.96  2167.03  2193.39  2272.07
                             2309.42  2323.81  2399.98  2421.79  2464.37
                             3742.98  4576.23  4595.55  4628.02  4636.22
                             4643.22  4650.54  4656.91  4665.68

 Zero-point correction=                           0.188215 (Hartree/Particle)
 Thermal correction to Energy=                    0.199968
 Thermal correction to Enthalpy=                  0.200912
 Thermal correction to Gibbs Free Energy=         0.149715
 Sum of electronic and zero-point Energies=          -1028.624094
 Sum of electronic and thermal Energies=             -1028.612341
 Sum of electronic and thermal Enthalpies=           -1028.611397
 Sum of electronic and thermal Free Energies=        -1028.662594

                     E (Thermal)             CV                S
                      KCal/Mol        Cal/Mol-Kelvin    Cal/Mol-Kelvin
 Total                  125.482             47.869            107.754
 Electronic               0.000              0.000              0.000
 Translational            0.889              2.981             42.162
 Rotational               0.889              2.981             32.505
 Vibrational            123.704             41.908             33.086
 Vibration     1          0.596              1.976              4.628
 Vibration     2          0.599              1.967              4.085
 Vibration     3          0.607              1.940              3.235
 Vibration     4          0.616              1.909              2.751
 Vibration     5          0.638              1.840              2.134
 Vibration     6          0.656              1.783              1.818
 Vibration     7          0.671              1.736              1.624
 Vibration     8          0.700              1.652              1.356
 Vibration     9          0.700              1.651              1.352
 Vibration    10          0.774              1.449              0.928
 Vibration    11          0.793              1.401              0.853
 Vibration    12          0.810              1.357              0.790
 Vibration    13          0.867              1.223              0.629
 Vibration    14          0.890              1.173              0.577
 Vibration    15          0.897              1.158              0.562
 Vibration    16          0.907              1.135              0.540
 Vibration    17          0.920              1.110              0.516
 Vibration    18          0.941              1.065              0.477

 Optimization completed.
    -- Stationary point found.
 Normal termination of Gaussian 16 at Tue Oct 27 21:43:23 2020.
