 Gaussian 16, Revision C.01,
 Gaussian 16:  ES64L-G16RevC.01  3-Jul-2019

 ----------------------------------------------------------------------
 #p opt=addgic freq wb97xd/cc-pvdz nosymm int=ultrafine scrf=(solvent=C
 arbonTetraChloride)
 ----------------------------------------------------------------------

 ------------------------------------------------
 NM 2D-scan of HBT TD-WB97XD pVDZ in CTC Relaxed.
 ------------------------------------------------
 Symbolic Z-matrix:
 Charge =  0 Multiplicity = 1

 SCF Done:  E(RwB97XD) =  -1028.80981033     A.U. after   15 cycles
 SCF Done:  E(RwB97XD) =  -1028.81600102     A.U. after   13 cycles
 SCF Done:  E(RwB97XD) =  -1028.81751378     A.U. after   13 cycles
 SCF Done:  E(RwB97XD) =  -1028.81792067     A.U. after   12 cycles
 SCF Done:  E(RwB97XD) =  -1028.81806296     A.U. after   11 cycles
 SCF Done:  E(RwB97XD) =  -1028.81808979     A.U. after   10 cycles
 Optimization completed.
    -- Stationary point found.
 Normal termination of Gaussian 16 at Tue Oct 27 21:17:57 2020.

 --------------------------------------------------------------------
 #P Geom=AllCheck Guess=TCheck SCRF=Check GenChk RwB97XD/CC-pVDZ Freq
 --------------------------------------------------------------------

 Structure from the checkpoint file:  "config_7_4.chk"
 ------------------------------------------------
 NM 2D-scan of HBT TD-WB97XD pVDZ in CTC Relaxed.
 ------------------------------------------------
 Charge =  0 Multiplicity = 1

                          Input orientation:
 ---------------------------------------------------------------------
 Center     Atomic      Atomic             Coordinates (Angstroms)
 Number     Number       Type             X           Y           Z
 ---------------------------------------------------------------------
      1          6           0        1.716091   -3.257945   -0.000044
      2          6           0        1.007054   -2.056129   -0.000012
      3          6           0        1.680336   -0.830537    0.000007
      4          6           0        3.076817   -0.770172   -0.000000
      5          6           0        3.780181   -1.966586   -0.000030
      6          6           0        3.106050   -3.197160   -0.000053
      7          1           0        1.199382   -4.217825   -0.000057
      8          1           0        3.582721    0.195520    0.000014
      9          1           0        4.870837   -1.950467   -0.000037
     10          1           0        3.679230   -4.125229   -0.000075
     11          7           0        0.821029    0.241829    0.000020
     12         16           0       -0.736955   -1.778264    0.000023
     13          6           0       -1.411654    1.050941    0.000017
     14          6           0       -2.805607    0.885744    0.000010
     15          6           0       -0.840952    2.369083    0.000028
     16          6           0       -3.658242    1.979401    0.000015
     17          1           0       -3.221264   -0.125488   -0.000002
     18          6           0       -1.739516    3.465867    0.000040
     19          6           0       -3.109557    3.272011    0.000033
     20          1           0       -4.738820    1.835850    0.000009
     21          1           0       -1.308806    4.468127    0.000054
     22          1           0       -3.773060    4.139611    0.000041
     23          6           0       -0.458337   -0.049319    0.000015
     24          8           0        0.449402    2.561788    0.000038
     25          1           0        0.900207    1.537028    0.000032
 ---------------------------------------------------------------------

 SCF Done:  E(RwB97XD) =  -1028.81808979     A.U. after    1 cycles

 Alpha  occ. eigenvalues --  -89.09490 -19.24948 -14.47866 -10.40230 -10.36760
 Alpha  occ. eigenvalues --  -10.35630 -10.35357 -10.32808 -10.32178 -10.31979
 Alpha  occ. eigenvalues --  -10.31932 -10.31756 -10.31596 -10.31037 -10.29699
 Alpha  occ. eigenvalues --  -10.29407  -8.11486  -6.06353  -6.05982  -6.05526
 Alpha  occ. eigenvalues --   -1.14655  -1.09785  -0.97697  -0.95632  -0.92154
 Alpha  occ. eigenvalues --   -0.88825  -0.85686  -0.84073  -0.82895  -0.75712
 Alpha  occ. eigenvalues --   -0.71607  -0.70570  -0.69018  -0.68570  -0.63419
 Alpha  occ. eigenvalues --   -0.60822  -0.59261  -0.57764  -0.56019  -0.54863
 Alpha  occ. eigenvalues --   -0.54529  -0.53526  -0.52364  -0.51121  -0.49881
 Alpha  occ. eigenvalues --   -0.49736  -0.47335  -0.46302  -0.45205  -0.45191
 Alpha  occ. eigenvalues --   -0.44011  -0.43053  -0.42212  -0.40273  -0.36340
 Alpha  occ. eigenvalues --   -0.35029  -0.32761  -0.31530  -0.28150
 Alpha virt. eigenvalues --   -0.00736   0.04380   0.06776   0.07291   0.07902
 Alpha virt. eigenvalues --    0.11061   0.13593   0.14954   0.16144   0.17784
 Alpha virt. eigenvalues --    0.19138   0.20720   0.21720   0.22299   0.22739

 Mulliken charges:
               1
     1  C    0.010441
     2  C   -0.236823
     3  C    0.273271
     4  C   -0.010547
     5  C    0.008756
     6  C    0.001771
     7  H    0.021961
     8  H    0.025475
     9  H    0.023309
    10  H    0.023807
    11  N   -0.297047
    12  S    0.165627
    13  C   -0.103192
    14  C   -0.012981
    15  C    0.101453
    16  C   -0.019183
    17  H    0.005695
    18  C   -0.006492
    19  C    0.022932
    20  H    0.006784
    21  H    0.009684
    22  H    0.015984
    23  C    0.077700
    24  O   -0.297141
    25  H    0.188755
 Sum of Mulliken charges =  -0.00000

 Dipole moment (field-independent basis, Debye):
    X=              0.7181    Y=             -3.6017    Z=             -0.0000  Tot=              3.6726
 Quadrupole moment (field-independent basis, Debye-Ang):
   XX=            -82.7303   YY=            -91.3301   ZZ=           -104.0411
   XY=             -7.1298   XZ=             -0.0001   YZ=              0.0002

  Exact polarizability:     278.335     -71.475     262.645      -0.001       0.002      62.966
 Approx polarizability:     264.570     -25.709     246.315      -0.001       0.002      82.206

                      1                      2                      3
                      A                      A                      A
 Frequencies --     21.5701                64.5120                74.9147
 Red. masses --      5.3301                 6.1196                 3.8148
 Frc consts  --      0.0015                 0.0150                 0.0126
 IR Inten    --      0.0547                 1.5727               139.1790

                      4                      5                      6
                      A                      A                      A
 Frequencies --    152.0863               197.9066               221.3581
 Red. masses --      5.0460                 5.9013                 3.3637
 Frc consts  --      0.0688                 0.1362                 0.0971
 IR Inten    --      0.3529                 0.2796               255.2782

                      7                      8                      9
                      A                      A                      A
 Frequencies --    243.4379               282.7950               323.8941
 Red. masses --      5.8432                 5.6194                 5.2156
 Frc consts  --      0.2040                 0.2648                 0.3224
 IR Inten    --      0.2219                60.9611                 0.4694

                     10                     11                     12
                      A                      A                      A
 Frequencies --    406.8594               435.2088               447.8788
 Red. masses --      7.6648                 3.1326                 4.5760
 Frc consts  --      0.7476                 0.3496                 0.5408
 IR Inten    --     16.1053                 1.8963               138.7260

                     13                     14                     15
                      A                      A                      A
 Frequencies --    459.3596               516.8751               539.6336
 Red. masses --      3.6302                 8.6567                 3.3816
 Frc consts  --      0.4513                 1.3626                 0.5802
 IR Inten    --      8.8230                 5.1602                 3.8488

                     16                     17                     18
                      A                      A                      A
 Frequencies --    559.5880               572.4124               588.0829
 Red. masses --      7.5713                 3.6485                 7.8913
 Frc consts  --      1.3969                 0.7043                 1.6080
 IR Inten    --     14.6824                 0.1302                 2.0205

                     19                     20                     21
                      A                      A                      A
 Frequencies --    649.0859               686.8446               712.2051
 Red. masses --      6.5043                 6.1297                 6.6170
 Frc consts  --      1.6146                 1.7037                 1.9775
 IR Inten    --      0.0182                46.8677                40.4258

                     22                     23                     24
                      A                      A                      A
 Frequencies --    754.2469               768.2320               772.1218
 Red. masses --      2.2061                 2.0009                 9.1444
 Frc consts  --      0.7394                 0.6958                 3.2120
 IR Inten    --     19.9379                18.9326                10.3078

                     25                     26                     27
                      A                      A                      A
 Frequencies --    775.1531               783.0613               836.6393
 Red. masses --      1.7993                 1.7655                 3.6399
 Frc consts  --      0.6370                 0.6378                 1.5011
 IR Inten    --     47.9691                39.1514               300.2685

                     28                     29                     30
                      A                      A                      A
 Frequencies --    858.5606               881.1344               885.4825
 Red. masses --      4.6662                 1.6186                 1.4029
 Frc consts  --      2.0265                 0.7404                 0.6481
 IR Inten    --    204.9190                 6.4633                 0.3118

                     31                     32                     33
                      A                      A                      A
 Frequencies --    941.3753               967.9705               975.2753
 Red. masses --      5.8698                 1.3514                 1.3603
 Frc consts  --      3.0648                 0.7460                 0.7623
 IR Inten    --    148.3076                 0.9730                 1.0900

                     34                     35                     36
                      A                      A                      A
 Frequencies --   1010.8543              1013.4250              1016.3886
 Red. masses --      1.3008                 7.0192                 1.3050
 Frc consts  --      0.7831                 4.2474                 0.7943
 IR Inten    --      0.2386                 0.6841                 0.0024

                     37                     38                     39
                      A                      A                      A
 Frequencies --   1054.0213              1062.9493              1098.4639
 Red. masses --      2.0296                 1.9429                 3.9391
 Frc consts  --      1.3285                 1.2934                 2.8004
 IR Inten    --      5.7846                13.6924                 6.0265

                     40                     41                     42
                      A                      A                      A
 Frequencies --   1149.2636              1151.7940              1155.0275
 Red. masses --      1.4802                 1.0603                 1.3014
 Frc consts  --      1.1519                 0.8288                 1.0229
 IR Inten    --     10.9200                67.6494                 1.0138

                     43                     44                     45
                      A                      A                      A
 Frequencies --   1175.8431              1185.2292              1258.3562
 Red. masses --      1.0809                 1.1711                 1.9704
 Frc consts  --      0.8805                 0.9693                 1.8383
 IR Inten    --    112.5838                 4.3132                85.3235

                     46                     47                     48
                      A                      A                      A
 Frequencies --   1289.0841              1314.7019              1356.4694
 Red. masses --      1.5224                 2.8524                 6.1826
 Frc consts  --      1.4905                 2.9047                 6.7026
 IR Inten    --      8.8174               328.6394                 1.7634

                     49                     50                     51
                      A                      A                      A
 Frequencies --   1379.9978              1386.7618              1402.5009
 Red. masses --      5.2038                 3.5083                 2.4438
 Frc consts  --      5.8389                 3.9751                 2.8322
 IR Inten    --      2.0895                26.2636                23.9494

                     52                     53                     54
                      A                      A                      A
 Frequencies --   1494.9087              1502.5048              1527.8625
 Red. masses --      2.7624                 2.8478                 4.0302
 Frc consts  --      3.6372                 3.7878                 5.5430
 IR Inten    --     15.3306                31.9066                27.2707

                     55                     56                     57
                      A                      A                      A
 Frequencies --   1577.2809              1589.8198              1617.3047
 Red. masses --      7.1151                 3.6344                 5.6904
 Frc consts  --     10.4292                 5.4123                 8.7695
 IR Inten    --    620.3928               615.4580               445.5626

                     58                     59                     60
                      A                      A                      A
 Frequencies --   1661.4279              1687.6123              1711.8685
 Red. masses --      7.0726                 6.7071                 5.6754
 Frc consts  --     11.5026                11.2546                 9.7991
 IR Inten    --      6.1101                47.5667               217.1258

                     61                     62                     63
                      A                      A                      A
 Frequencies --   1897.9857              3187.4794              3200.5881
 Red. masses --      1.1044                 1.0897                 1.0883
 Frc consts  --      2.3440                 6.5233                 6.5686
 IR Inten    --    124.9104                 4.3881                 7.8769

                     64                     65                     66
                      A                      A                      A
 Frequencies --   3214.6443              3223.9685              3225.6512
 Red. masses --      1.0864                 1.0938                 1.0908
 Frc consts  --      6.6146                 6.6984                 6.6868
 IR Inten    --      1.9395                14.1271                 3.3515

                     67                     68                     69
                      A                      A                      A
 Frequencies --   3233.0142              3235.9631              3241.7112
 Red. masses --      1.0981                 1.0960                 1.0997
 Frc consts  --      6.7625                 6.7620                 6.8091
 IR Inten    --     19.3920                 8.1735                12.1202

 - Thermochemistry -
 -------------------
 Temperature   298.150 Kelvin.  Pressure   1.00000 Atm.
 Atom     1 has atomic number  6 and mass  12.00000

 Molecular mass:   227.04049 amu.
 Principal axes and moments of inertia in atomic units:
                           1         2         3
     Eigenvalues --  1307.115216255.651197562.76640
           X           -0.70589   0.70832   0.00000
           Y            0.70832   0.70589  -0.00001
           Z            0.00001   0.00000   1.00000
 This molecule is an asymmetric top.
 Rotational symmetry number  1.
 Warning -- assumption of classical behavior for rotation
           may cause significant error
 Rotational temperatures (Kelvin)      0.06626     0.01385     0.01145
 Rotational constants (GHZ):           1.38071     0.28850     0.23864
 Zero-point vibrational energy     489562.7 (Joules/Mol)
                                  117.00829 (Kcal/Mol)
 Warning -- explicit consideration of  18 degrees of freedom as
           vibrations may cause significant error
 Vibrational temperatures:     31.03    92.82   107.79   218.82   284.74
          (Kelvin)            318.48   350.25   406.88   466.01   585.38
                              626.17   644.40   660.92   743.67   776.41
                              805.12   823.57   846.12   933.89   988.22
                             1024.70  1085.19  1105.31  1110.91  1115.27
                             1126.65  1203.74  1235.28  1267.76  1274.01
                             1354.43  1392.69  1403.20  1454.39  1458.09
                             1462.36  1516.50  1529.35  1580.44  1653.53
                             1657.17  1661.83  1691.78  1705.28  1810.49
                             1854.70  1891.56  1951.66  1985.51  1995.24
                             2017.89  2150.84  2161.77  2198.25  2269.36
                             2287.40  2326.94  2390.42  2428.10  2463.00
                             2730.78  4586.07  4604.93  4625.16  4638.57
                             4640.99  4651.59  4655.83  4664.10

 Zero-point correction=                           0.186465 (Hartree/Particle)
 Thermal correction to Energy=                    0.198436
 Thermal correction to Enthalpy=                  0.199380
 Thermal correction to Gibbs Free Energy=         0.146683
 Sum of electronic and zero-point Energies=          -1028.631625
 Sum of electronic and thermal Energies=             -1028.619654
 Sum of electronic and thermal Enthalpies=           -1028.618710
 Sum of electronic and thermal Free Energies=        -1028.671407

                     E (Thermal)             CV                S
                      KCal/Mol        Cal/Mol-Kelvin    Cal/Mol-Kelvin
 Total                  124.520             47.879            110.910
 Electronic               0.000              0.000              0.000
 Translational            0.889              2.981             42.162
 Rotational               0.889              2.981             32.492
 Vibrational            122.743             41.917             36.256
 Vibration     1          0.593              1.985              6.484
 Vibration     2          0.597              1.971              4.314
 Vibration     3          0.599              1.966              4.020
 Vibration     4          0.619              1.900              2.646
 Vibration     5          0.637              1.843              2.152
 Vibration     6          0.648              1.809              1.948
 Vibration     7          0.659              1.774              1.778
 Vibration     8          0.682              1.706              1.517
 Vibration     9          0.708              1.628              1.290
 Vibration    10          0.772              1.455              0.938
 Vibration    11          0.796              1.393              0.842
 Vibration    12          0.807              1.366              0.802
 Vibration    13          0.817              1.340              0.768
 Vibration    14          0.872              1.213              0.617
 Vibration    15          0.895              1.162              0.566
 Vibration    16          0.915              1.119              0.525
 Vibration    17          0.929              1.091              0.500
 Vibration    18          0.945              1.057              0.471

 Optimization completed.
    -- Stationary point found.
 Normal termination of Gaussian 16 at Tue Oct 27 21:24:08 2020.
