 Gaussian 16, Revision C.01,
 Gaussian 16:  ES64L-G16RevC.01  3-Jul-2019

 ----------------------------------------------------------------------
 #p opt=addgic freq wb97xd/cc-pvdz nosymm int=ultrafine scrf=(solvent=C
 arbonTetraChloride)
 ----------------------------------------------------------------------

 ------------------------------------------------
 NM 2D-scan of HBT TD-WB97XD pVDZ in CTC Relaxed.
 ------------------------------------------------
 Symbolic Z-matrix:
 Charge =  0 Multiplicity = 1

 SCF Done:  E(RwB97XD) =  -1028.72550095     A.U. after   15 cycles
 SCF Done:  E(RwB97XD) =  -1028.80707539     A.U. after   13 cycles
 SCF Done:  E(RwB97XD) =  -1028.81077121     A.U. after   13 cycles
 SCF Done:  E(RwB97XD) =  -1028.81906794     A.U. after   13 cycles
 SCF Done:  E(RwB97XD) =  -1028.81921869     A.U. after   11 cycles
 SCF Done:  E(RwB97XD) =  -1028.81925630     A.U. after   10 cycles
 SCF Done:  E(RwB97XD) =  -1028.81925976     A.U. after    9 cycles
 SCF Done:  E(RwB97XD) =  -1028.81925989     A.U. after    7 cycles
 SCF Done:  E(RwB97XD) =  -1028.81925994     A.U. after    7 cycles
 Optimization completed.
    -- Stationary point found.
 Normal termination of Gaussian 16 at Tue Oct 27 20:36:14 2020.

 --------------------------------------------------------------------
 #P Geom=AllCheck Guess=TCheck SCRF=Check GenChk RwB97XD/CC-pVDZ Freq
 --------------------------------------------------------------------

 Structure from the checkpoint file:  "config_3_1.chk"
 ------------------------------------------------
 NM 2D-scan of HBT TD-WB97XD pVDZ in CTC Relaxed.
 ------------------------------------------------
 Charge =  0 Multiplicity = 1

                          Input orientation:
 ---------------------------------------------------------------------
 Center     Atomic      Atomic             Coordinates (Angstroms)
 Number     Number       Type             X           Y           Z
 ---------------------------------------------------------------------
      1          6           0        1.774140   -3.312192   -0.000137
      2          6           0        0.979354   -2.153245   -0.000033
      3          6           0        1.618325   -0.901164    0.000101
      4          6           0        3.008922   -0.761355    0.000165
      5          6           0        3.784932   -1.901778    0.000075
      6          6           0        3.162934   -3.163537   -0.000083
      7          1           0        1.331918   -4.309038   -0.000231
      8          1           0        3.436907    0.241553    0.000272
      9          1           0        4.873322   -1.830164    0.000118
     10          1           0        3.783374   -4.061433   -0.000150
     11          7           0        0.801771    0.189647    0.000131
     12         16           0       -0.772683   -1.881730    0.000043
     13          6           0       -1.407750    1.053105   -0.000009
     14          6           0       -2.817018    0.936577    0.000001
     15          6           0       -0.875440    2.386039   -0.000027
     16          6           0       -3.647800    2.047801    0.000075
     17          1           0       -3.262906   -0.061242   -0.000012
     18          6           0       -1.729881    3.495429    0.000062
     19          6           0       -3.097436    3.338499    0.000126
     20          1           0       -4.729901    1.914494    0.000102
     21          1           0       -1.257634    4.478113    0.000042
     22          1           0       -3.745989    4.216376    0.000184
     23          6           0       -0.464264   -0.089019    0.000009
     24          8           0        0.419432    2.739368   -0.000273
     25          1           0        0.945133    1.919217   -0.000458
 ---------------------------------------------------------------------

 SCF Done:  E(RwB97XD) =  -1028.81925994     A.U. after    1 cycles

 Alpha  occ. eigenvalues --  -89.09033 -19.28079 -14.46527 -10.39784 -10.37438
 Alpha  occ. eigenvalues --  -10.35172 -10.34503 -10.33058 -10.32611 -10.31886
 Alpha  occ. eigenvalues --  -10.31690 -10.31456 -10.31395 -10.31194 -10.30182
 Alpha  occ. eigenvalues --  -10.29799  -8.10871  -6.05752  -6.05394  -6.04903
 Alpha  occ. eigenvalues --   -1.16470  -1.09035  -0.97146  -0.95923  -0.90996
 Alpha  occ. eigenvalues --   -0.88478  -0.85148  -0.84360  -0.82946  -0.75470
 Alpha  occ. eigenvalues --   -0.71211  -0.70616  -0.69466  -0.68002  -0.62866
 Alpha  occ. eigenvalues --   -0.60271  -0.58568  -0.58279  -0.56243  -0.54412
 Alpha  occ. eigenvalues --   -0.53817  -0.53129  -0.52290  -0.51020  -0.50229
 Alpha  occ. eigenvalues --   -0.49305  -0.47804  -0.45772  -0.45224  -0.44874
 Alpha  occ. eigenvalues --   -0.43635  -0.42815  -0.42646  -0.39676  -0.37060
 Alpha  occ. eigenvalues --   -0.36097  -0.32190  -0.31622  -0.28960
 Alpha virt. eigenvalues --   -0.00443   0.04766   0.06875   0.07208   0.07217
 Alpha virt. eigenvalues --    0.11491   0.12299   0.15083   0.15725   0.17609
 Alpha virt. eigenvalues --    0.19005   0.20397   0.21711   0.22414   0.22754

 Mulliken charges:
               1
     1  C   -0.004234
     2  C   -0.217046
     3  C    0.243682
     4  C   -0.012756
     5  C    0.008989
     6  C   -0.002936
     7  H    0.022008
     8  H    0.017599
     9  H    0.019441
    10  H    0.021869
    11  N   -0.323390
    12  S    0.135871
    13  C   -0.084623
    14  C   -0.012943
    15  C    0.074141
    16  C   -0.009913
    17  H    0.008090
    18  C    0.018313
    19  C    0.019106
    20  H    0.010342
    21  H    0.016103
    22  H    0.017557
    23  C    0.073239
    24  O   -0.193063
    25  H    0.154555
 Sum of Mulliken charges =  -0.00000

 Dipole moment (field-independent basis, Debye):
    X=              0.3106    Y=             -2.1262    Z=             -0.0002  Tot=              2.1488
 Quadrupole moment (field-independent basis, Debye-Ang):
   XX=            -82.6530   YY=            -89.8135   ZZ=           -104.3158
   XY=             -6.9113   XZ=             -0.0006   YZ=              0.0008

  Exact polarizability:     276.032     -64.973     257.641      -0.002       0.006      63.214
 Approx polarizability:     264.255     -22.194     244.403      -0.001       0.006      82.376

                      1                      2                      3
                      A                      A                      A
 Frequencies --     40.6828                49.4882               115.8657
 Red. masses --      5.6191                 5.9410                 5.6964
 Frc consts  --      0.0055                 0.0086                 0.0451
 IR Inten    --      0.0427                 1.1879                 0.8453

                      4                      5                      6
                      A                      A                      A
 Frequencies --    150.6148               199.6586               244.1650
 Red. masses --      4.7910                 5.6124                 5.8418
 Frc consts  --      0.0640                 0.1318                 0.2052
 IR Inten    --      0.0000                 0.2915                 0.1134

                      7                      8                      9
                      A                      A                      A
 Frequencies --    262.9386               299.9944               323.2719
 Red. masses --      8.1532                 6.4009                 5.0334
 Frc consts  --      0.3321                 0.3394                 0.3099
 IR Inten    --      1.5691                 5.7285                 0.7123

                     10                     11                     12
                      A                      A                      A
 Frequencies --    393.9063               440.2319               468.7525
 Red. masses --      8.7671                 3.1711                 3.7573
 Frc consts  --      0.8015                 0.3621                 0.4864
 IR Inten    --      0.3436                 2.0212                 9.1503

                     13                     14                     15
                      A                      A                      A
 Frequencies --    499.8999               512.0141               539.5970
 Red. masses --      4.6091                 8.9143                 3.4747
 Frc consts  --      0.6786                 1.3769                 0.5961
 IR Inten    --      3.5249                 0.3251                 4.2110

                     16                     17                     18
                      A                      A                      A
 Frequencies --    545.7854               572.5879               595.5007
 Red. masses --      8.6976                 3.6856                 7.7010
 Frc consts  --      1.5265                 0.7119                 1.6090
 IR Inten    --      3.0062                 0.0052                 6.2194

                     19                     20                     21
                      A                      A                      A
 Frequencies --    637.0955               672.9905               682.9126
 Red. masses --      3.6639                 7.3111                 7.4442
 Frc consts  --      0.8762                 1.9510                 2.0455
 IR Inten    --      7.3836                50.4125                11.1712

                     22                     23                     24
                      A                      A                      A
 Frequencies --    698.1917               715.6878               753.7546
 Red. masses --      1.2801                 7.5913                 1.9464
 Frc consts  --      0.3677                 2.2909                 0.6515
 IR Inten    --     68.5524                 1.8917                20.3325

                     25                     26                     27
                      A                      A                      A
 Frequencies --    770.6338               778.1175               788.0399
 Red. masses --      3.1405                 1.3438                 1.8895
 Frc consts  --      1.0989                 0.4794                 0.6913
 IR Inten    --     19.8598                52.9247                39.1789

                     28                     29                     30
                      A                      A                      A
 Frequencies --    835.7850               885.4139               886.3040
 Red. masses --      6.1656                 1.4667                 1.4963
 Frc consts  --      2.5376                 0.6774                 0.6925
 IR Inten    --     26.9790                 5.1362                 0.3783

                     31                     32                     33
                      A                      A                      A
 Frequencies --    896.8969               970.2181               973.8304
 Red. masses --      6.4164                 7.5974                 1.3526
 Frc consts  --      3.0411                 4.2136                 0.7558
 IR Inten    --      0.5816                76.8030                 1.5823

                     34                     35                     36
                      A                      A                      A
 Frequencies --    975.1478              1011.3315              1014.4263
 Red. masses --      1.3637                 1.2989                 1.3063
 Frc consts  --      0.7640                 0.7827                 0.7920
 IR Inten    --      1.0992                 0.2761                 0.0079

                     37                     38                     39
                      A                      A                      A
 Frequencies --   1049.4379              1068.5334              1085.7806
 Red. masses --      2.0814                 2.0596                 4.7524
 Frc consts  --      1.3506                 1.3855                 3.3010
 IR Inten    --      8.2827                15.4717                 5.4427

                     40                     41                     42
                      A                      A                      A
 Frequencies --   1141.5029              1149.6825              1174.6646
 Red. masses --      1.6050                 1.2626                 1.1190
 Frc consts  --      1.2322                 0.9833                 0.9097
 IR Inten    --     11.9305                 6.8034                52.0977

                     43                     44                     45
                      A                      A                      A
 Frequencies --   1182.6936              1229.9183              1275.4262
 Red. masses --      1.1786                 1.7135                 2.1272
 Frc consts  --      0.9713                 1.5272                 2.0388
 IR Inten    --      0.2324               177.1368                71.6168

                     46                     47                     48
                      A                      A                      A
 Frequencies --   1280.4689              1291.2126              1353.2892
 Red. masses --      1.6273                 4.4729                 3.1927
 Frc consts  --      1.5720                 4.3938                 3.4450
 IR Inten    --      1.4396                19.1589                16.1432

                     49                     50                     51
                      A                      A                      A
 Frequencies --   1365.6955              1380.4849              1416.1129
 Red. masses --      5.1878                 3.0387                 1.7755
 Frc consts  --      5.7008                 3.4119                 2.0978
 IR Inten    --     18.0611                 3.8780                87.5123

                     52                     53                     54
                      A                      A                      A
 Frequencies --   1489.9838              1492.9713              1515.7658
 Red. masses --      2.5964                 3.1932                 3.1780
 Frc consts  --      3.3962                 4.1935                 4.3020
 IR Inten    --     16.6696                33.3123               124.1983

                     55                     56                     57
                      A                      A                      A
 Frequencies --   1536.8322              1606.7396              1640.6810
 Red. masses --      2.9311                 8.5296                 5.8578
 Frc consts  --      4.0789                12.9739                 9.2904
 IR Inten    --     15.7816               196.6790                36.2852

                     58                     59                     60
                      A                      A                      A
 Frequencies --   1647.8181              1684.1221              1708.0451
 Red. masses --      6.1670                 6.8557                 6.5438
 Frc consts  --      9.8660                11.4565                11.2481
 IR Inten    --     80.5444                 4.6614                83.4466

                     61                     62                     63
                      A                      A                      A
 Frequencies --   3193.2397              3208.8334              3208.9117
 Red. masses --      1.0891                 1.0864                 1.0883
 Frc consts  --      6.5430                 6.5909                 6.6026
 IR Inten    --      3.4358                 1.3647                 5.1099

                     64                     65                     66
                      A                      A                      A
 Frequencies --   3220.8113              3227.9513              3228.9155
 Red. masses --      1.0899                 1.0941                 1.0958
 Frc consts  --      6.6613                 6.7167                 6.7313
 IR Inten    --      3.6383                13.9790                14.6938

                     67                     68                     69
                      A                      A                      A
 Frequencies --   3235.7641              3237.7116              3570.0229
 Red. masses --      1.0994                 1.1002                 1.0658
 Frc consts  --      6.7819                 6.7952                 8.0030
 IR Inten    --     15.2862                12.5408               676.6983

 - Thermochemistry -
 -------------------
 Temperature   298.150 Kelvin.  Pressure   1.00000 Atm.
 Atom     1 has atomic number  6 and mass  12.00000

 Molecular mass:   227.04049 amu.
 Principal axes and moments of inertia in atomic units:
                           1         2         3
     Eigenvalues --  1367.305936360.972817728.27873
           X           -0.69363   0.72033   0.00001
           Y            0.72033   0.69363   0.00000
           Z            0.00000  -0.00001   1.00000
 This molecule is an asymmetric top.
 Rotational symmetry number  1.
 Warning -- assumption of classical behavior for rotation
           may cause significant error
 Rotational temperatures (Kelvin)      0.06335     0.01362     0.01121
 Rotational constants (GHZ):           1.31992     0.28372     0.23352
 Zero-point vibrational energy     498255.2 (Joules/Mol)
                                  119.08584 (Kcal/Mol)
 Warning -- explicit consideration of  18 degrees of freedom as
           vibrations may cause significant error
 Vibrational temperatures:     58.53    71.20   166.70   216.70   287.26
          (Kelvin)            351.30   378.31   431.63   465.12   566.74
                              633.40   674.43   719.24   736.67   776.36
                              785.26   823.83   856.79   916.64   968.28
                              982.56  1004.54  1029.72  1084.48  1108.77
                             1119.54  1133.81  1202.51  1273.91  1275.19
                             1290.43  1395.93  1401.12  1403.02  1455.08
                             1459.53  1509.91  1537.38  1562.20  1642.37
                             1654.14  1690.08  1701.63  1769.58  1835.05
                             1842.31  1857.77  1947.08  1964.93  1986.21
                             2037.47  2143.75  2148.05  2180.85  2211.16
                             2311.74  2360.57  2370.84  2423.08  2457.50
                             4594.36  4616.80  4616.91  4634.03  4644.30
                             4645.69  4655.54  4658.34  5136.47

 Zero-point correction=                           0.189775 (Hartree/Particle)
 Thermal correction to Energy=                    0.201644
 Thermal correction to Enthalpy=                  0.202588
 Thermal correction to Gibbs Free Energy=         0.150713
 Sum of electronic and zero-point Energies=          -1028.629485
 Sum of electronic and thermal Energies=             -1028.617616
 Sum of electronic and thermal Enthalpies=           -1028.616672
 Sum of electronic and thermal Free Energies=        -1028.668547

                     E (Thermal)             CV                S
                      KCal/Mol        Cal/Mol-Kelvin    Cal/Mol-Kelvin
 Total                  126.534             48.194            109.180
 Electronic               0.000              0.000              0.000
 Translational            0.889              2.981             42.162
 Rotational               0.889              2.981             32.575
 Vibrational            124.756             42.232             34.444
 Vibration     1          0.594              1.981              5.226
 Vibration     2          0.595              1.978              4.838
 Vibration     3          0.608              1.936              3.168
 Vibration     4          0.618              1.902              2.664
 Vibration     5          0.638              1.840              2.136
 Vibration     6          0.659              1.772              1.772
 Vibration     7          0.670              1.741              1.642
 Vibration     8          0.693              1.674              1.417
 Vibration     9          0.708              1.629              1.294
 Vibration    10          0.761              1.483              0.985
 Vibration    11          0.800              1.382              0.826
 Vibration    12          0.826              1.319              0.741
 Vibration    13          0.855              1.250              0.658
 Vibration    14          0.867              1.223              0.629
 Vibration    15          0.895              1.162              0.566
 Vibration    16          0.901              1.149              0.553
 Vibration    17          0.929              1.091              0.499
 Vibration    18          0.953              1.041              0.457

 Optimization completed.
    -- Stationary point found.
 Normal termination of Gaussian 16 at Tue Oct 27 20:42:45 2020.
