 Gaussian 16, Revision C.01,
 Gaussian 16:  ES64L-G16RevC.01  3-Jul-2019

 ----------------------------------------------------------------------
 #p opt=addgic freq wb97xd/cc-pvdz nosymm int=ultrafine scrf=(solvent=C
 arbonTetraChloride)
 ----------------------------------------------------------------------

 ------------------------------------------------
 NM 2D-scan of HBT TD-WB97XD pVDZ in CTC Relaxed.
 ------------------------------------------------
 Symbolic Z-matrix:
 Charge =  0 Multiplicity = 1

 SCF Done:  E(RwB97XD) =  -1028.15046096     A.U. after   15 cycles
 SCF Done:  E(RwB97XD) =  -1028.63348598     A.U. after   13 cycles
 SCF Done:  E(RwB97XD) =  -1028.80569466     A.U. after   15 cycles
 SCF Done:  E(RwB97XD) =  -1028.80997369     A.U. after   12 cycles
 SCF Done:  E(RwB97XD) =  -1028.81072095     A.U. after   12 cycles
 SCF Done:  E(RwB97XD) =  -1028.81079671     A.U. after   10 cycles
 SCF Done:  E(RwB97XD) =  -1028.81081300     A.U. after    9 cycles
 SCF Done:  E(RwB97XD) =  -1028.81081413     A.U. after    8 cycles
 SCF Done:  E(RwB97XD) =  -1028.81081429     A.U. after    8 cycles
 Optimization completed.
    -- Stationary point found.
 Normal termination of Gaussian 16 at Tue Oct 27 20:34:04 2020.

 --------------------------------------------------------------------
 #P Geom=AllCheck Guess=TCheck SCRF=Check GenChk RwB97XD/CC-pVDZ Freq
 --------------------------------------------------------------------

 Structure from the checkpoint file:  "config_1_1.chk"
 ------------------------------------------------
 NM 2D-scan of HBT TD-WB97XD pVDZ in CTC Relaxed.
 ------------------------------------------------
 Charge =  0 Multiplicity = 1

                          Input orientation:
 ---------------------------------------------------------------------
 Center     Atomic      Atomic             Coordinates (Angstroms)
 Number     Number       Type             X           Y           Z
 ---------------------------------------------------------------------
      1          6           0        1.782130   -3.338286    0.000332
      2          6           0        0.967074   -2.189503   -0.000209
      3          6           0        1.603092   -0.932767   -0.000488
      4          6           0        2.991869   -0.776950   -0.000389
      5          6           0        3.783759   -1.903618    0.000062
      6          6           0        3.170881   -3.170851    0.000455
      7          1           0        1.357537   -4.343000    0.000544
      8          1           0        3.400837    0.233816   -0.000649
      9          1           0        4.871325   -1.820750    0.000150
     10          1           0        3.800031   -4.062904    0.000807
     11          7           0        0.805680    0.169195   -0.000687
     12         16           0       -0.786464   -1.914230   -0.000919
     13          6           0       -1.393571    1.064605   -0.000268
     14          6           0       -2.808202    0.946352   -0.000137
     15          6           0       -0.886538    2.410475   -0.000001
     16          6           0       -3.648562    2.048436    0.000153
     17          1           0       -3.248436   -0.053921   -0.000287
     18          6           0       -1.751771    3.509310    0.000292
     19          6           0       -3.114656    3.346556    0.000354
     20          1           0       -4.729135    1.902974    0.000228
     21          1           0       -1.282943    4.493344    0.000484
     22          1           0       -3.769363    4.219575    0.000595
     23          6           0       -0.458228   -0.093144   -0.000598
     24          8           0        0.391405    2.860758    0.000156
     25          1           0        1.006502    2.128375    0.000121
 ---------------------------------------------------------------------

 SCF Done:  E(RwB97XD) =  -1028.81081429     A.U. after    1 cycles

 Alpha  occ. eigenvalues --  -89.08866 -19.28800 -14.46345 -10.39707 -10.37735
 Alpha  occ. eigenvalues --  -10.35161 -10.34267 -10.33471 -10.32576 -10.31920
 Alpha  occ. eigenvalues --  -10.31633 -10.31312 -10.31217 -10.31166 -10.30269
 Alpha  occ. eigenvalues --  -10.29825  -8.10651  -6.05537  -6.05185  -6.04677
 Alpha  occ. eigenvalues --   -1.16612  -1.08798  -0.97056  -0.95917  -0.90656
 Alpha  occ. eigenvalues --   -0.88370  -0.85178  -0.84334  -0.82802  -0.75427
 Alpha  occ. eigenvalues --   -0.71244  -0.70693  -0.69545  -0.67775  -0.62893
 Alpha  occ. eigenvalues --   -0.59872  -0.58487  -0.58183  -0.56276  -0.54407
 Alpha  occ. eigenvalues --   -0.53488  -0.52985  -0.52223  -0.50890  -0.50287
 Alpha  occ. eigenvalues --   -0.49086  -0.47649  -0.45632  -0.45118  -0.44813
 Alpha  occ. eigenvalues --   -0.43616  -0.42882  -0.42452  -0.39510  -0.37186
 Alpha  occ. eigenvalues --   -0.36023  -0.32018  -0.31653  -0.29059
 Alpha virt. eigenvalues --   -0.00369   0.04858   0.06721   0.06965   0.07183
 Alpha virt. eigenvalues --    0.11696   0.11822   0.15079   0.15509   0.17158
 Alpha virt. eigenvalues --    0.18985   0.19954   0.21702   0.22283   0.22840

 Mulliken charges:
               1
     1  C   -0.008829
     2  C   -0.205695
     3  C    0.227541
     4  C   -0.011798
     5  C    0.009008
     6  C   -0.004179
     7  H    0.022370
     8  H    0.013960
     9  H    0.018369
    10  H    0.021376
    11  N   -0.293789
    12  S    0.122626
    13  C   -0.073826
    14  C   -0.010431
    15  C    0.067145
    16  C   -0.007726
    17  H    0.009037
    18  C    0.025239
    19  C    0.017253
    20  H    0.010960
    21  H    0.017378
    22  H    0.017634
    23  C    0.054557
    24  O   -0.184408
    25  H    0.146227
 Sum of Mulliken charges =  -0.00000

 Dipole moment (field-independent basis, Debye):
    X=              0.3656    Y=             -1.6884    Z=              0.0006  Tot=              1.7275
 Quadrupole moment (field-independent basis, Debye-Ang):
   XX=            -82.4936   YY=            -89.6511   ZZ=           -104.4265
   XY=             -6.4785   XZ=              0.0010   YZ=             -0.0002

  Exact polarizability:     276.168     -63.672     258.051       0.009       0.002      63.345
 Approx polarizability:     264.789     -21.339     245.186       0.011      -0.001      82.438

                      1                      2                      3
                      A                      A                      A
 Frequencies --     23.7699                42.1480               104.1511
 Red. masses --      5.2979                 6.3414                 5.6123
 Frc consts  --      0.0018                 0.0066                 0.0359
 IR Inten    --      0.5554                 1.2077                 0.7284

                      4                      5                      6
                      A                      A                      A
 Frequencies --    147.6687               199.2689               238.0377
 Red. masses --      4.7165                 5.2747                 8.2047
 Frc consts  --      0.0606                 0.1234                 0.2739
 IR Inten    --      0.0111                 0.0064                 7.6147

                      7                      8                      9
                      A                      A                      A
 Frequencies --    240.1286               276.7458               320.8402
 Red. masses --      5.8491                 6.1323                 4.5160
 Frc consts  --      0.1987                 0.2767                 0.2739
 IR Inten    --      1.3453                 2.7125                 3.1229

                     10                     11                     12
                      A                      A                      A
 Frequencies --    388.1432               437.3153               443.2973
 Red. masses --      8.0341                 1.2758                 2.4522
 Frc consts  --      0.7131                 0.1438                 0.2839
 IR Inten    --      0.1956                71.7080                30.3281

                     13                     14                     15
                      A                      A                      A
 Frequencies --    465.4343               474.2495               508.8548
 Red. masses --      4.4364                 3.6857                 8.9527
 Frc consts  --      0.5662                 0.4884                 1.3658
 IR Inten    --      2.5032                 0.2051                 1.4274

                     16                     17                     18
                      A                      A                      A
 Frequencies --    540.0380               545.0457               572.0819
 Red. masses --      3.4461                 8.6674                 3.6762
 Frc consts  --      0.5922                 1.5171                 0.7089
 IR Inten    --      4.5507                 3.5029                 0.3790

                     19                     20                     21
                      A                      A                      A
 Frequencies --    597.2163               646.2333               651.8194
 Red. masses --      7.7224                 5.8535                 8.5023
 Frc consts  --      1.6228                 1.4403                 2.1283
 IR Inten    --      6.5340                 3.7243                67.6810

                     22                     23                     24
                      A                      A                      A
 Frequencies --    673.5179               708.7143               753.6380
 Red. masses --      6.5864                 7.0214                 1.9832
 Frc consts  --      1.7603                 2.0779                 0.6637
 IR Inten    --      1.5719                 3.0276                21.3525

                     25                     26                     27
                      A                      A                      A
 Frequencies --    762.8293               778.9238               787.5874
 Red. masses --      3.8890                 1.3042                 1.8770
 Frc consts  --      1.3334                 0.4662                 0.6860
 IR Inten    --      5.9023                62.8617                31.6611

                     28                     29                     30
                      A                      A                      A
 Frequencies --    827.4461               886.8020               887.7050
 Red. masses --      6.4235                 1.4477                 1.5037
 Frc consts  --      2.5912                 0.6708                 0.6981
 IR Inten    --     38.1171                 3.7269                 0.8482

                     31                     32                     33
                      A                      A                      A
 Frequencies --    891.5319               955.0196               975.7008
 Red. masses --      6.3475                 7.5466                 1.3557
 Frc consts  --      2.9725                 4.0553                 0.7604
 IR Inten    --      0.9596                88.6180                 2.6003

                     34                     35                     36
                      A                      A                      A
 Frequencies --    976.2572              1012.1057              1014.1422
 Red. masses --      1.3582                 1.2997                 1.3063
 Frc consts  --      0.7627                 0.7844                 0.7915
 IR Inten    --      0.0364                 0.2733                 0.0046

                     37                     38                     39
                      A                      A                      A
 Frequencies --   1047.6481              1068.7494              1082.1719
 Red. masses --      2.1006                 2.1894                 4.8286
 Frc consts  --      1.3584                 1.4734                 3.3317
 IR Inten    --      8.1357                32.3799                 4.7798

                     40                     41                     42
                      A                      A                      A
 Frequencies --   1122.6517              1146.9833              1176.7082
 Red. masses --      1.6743                 1.2516                 1.1153
 Frc consts  --      1.2433                 0.9701                 0.9099
 IR Inten    --     64.2740                10.0831                74.2999

                     43                     44                     45
                      A                      A                      A
 Frequencies --   1182.0143              1188.1268              1252.2149
 Red. masses --      1.1915                 1.2862                 4.8611
 Frc consts  --      0.9809                 1.0698                 4.4910
 IR Inten    --      4.6225               121.4529                41.1163

                     46                     47                     48
                      A                      A                      A
 Frequencies --   1260.3895              1277.8389              1333.8643
 Red. masses --      2.1423                 1.6600                 1.7979
 Frc consts  --      2.0051                 1.5970                 1.8847
 IR Inten    --     42.1418                 2.6015                 2.0109

                     49                     50                     51
                      A                      A                      A
 Frequencies --   1352.1464              1367.5614              1380.3557
 Red. masses --      3.9304                 5.4694                 3.1945
 Frc consts  --      4.2338                 6.0268                 3.5862
 IR Inten    --     21.0731                78.4674                 3.0392

                     52                     53                     54
                      A                      A                      A
 Frequencies --   1486.7656              1488.6597              1510.7961
 Red. masses --      2.6704                 2.8553                 2.9622
 Frc consts  --      3.4778                 3.7281                 3.9836
 IR Inten    --     36.7558                13.7154                99.8687

                     55                     56                     57
                      A                      A                      A
 Frequencies --   1526.5912              1617.9055              1633.8103
 Red. masses --      3.3741                 7.7252                 6.3197
 Frc consts  --      4.6329                11.9143                 9.9391
 IR Inten    --      5.3820               147.3157                35.2852

                     58                     59                     60
                      A                      A                      A
 Frequencies --   1644.3530              1687.3418              1710.2457
 Red. masses --      8.0800                 6.9610                 6.6665
 Frc consts  --     12.8721                11.6769                11.4886
 IR Inten    --     79.8443                 0.8543                56.1719

                     61                     62                     63
                      A                      A                      A
 Frequencies --   3193.7644              3206.4581              3210.8437
 Red. masses --      1.0890                 1.0865                 1.0884
 Frc consts  --      6.5444                 6.5816                 6.6113
 IR Inten    --      3.7059                 0.5723                 5.0346

                     64                     65                     66
                      A                      A                      A
 Frequencies --   3219.8239              3227.0137              3228.8951
 Red. masses --      1.0897                 1.0956                 1.0943
 Frc consts  --      6.6560                 6.7221                 6.7221
 IR Inten    --      3.2857                16.3900                14.8354

                     67                     68                     69
                      A                      A                      A
 Frequencies --   3237.1567              3237.7209              3915.6538
 Red. masses --      1.1004                 1.0995                 1.0655
 Frc consts  --      6.7938                 6.7906                 9.6251
 IR Inten    --     16.0819                 9.9735               319.2936

 - Thermochemistry -
 -------------------
 Temperature   298.150 Kelvin.  Pressure   1.00000 Atm.
 Atom     1 has atomic number  6 and mass  12.00000

 Molecular mass:   227.04049 amu.
 Principal axes and moments of inertia in atomic units:
                           1         2         3
     Eigenvalues --  1395.071556426.013127821.08440
           X           -0.68739   0.72628  -0.00007
           Y            0.72628   0.68739  -0.00011
           Z            0.00003   0.00013   1.00000
 This molecule is an asymmetric top.
 Rotational symmetry number  1.
 Warning -- assumption of classical behavior for rotation
           may cause significant error
 Rotational temperatures (Kelvin)      0.06209     0.01348     0.01107
 Rotational constants (GHZ):           1.29365     0.28085     0.23075
 Zero-point vibrational energy     496316.5 (Joules/Mol)
                                  118.62248 (Kcal/Mol)
 Warning -- explicit consideration of  19 degrees of freedom as
           vibrations may cause significant error
 Vibrational temperatures:     34.20    60.64   149.85   212.46   286.70
          (Kelvin)            342.48   345.49   398.18   461.62   558.45
                              629.20   637.81   669.66   682.34   732.13
                              776.99   784.20   823.10   859.26   929.79
                              937.82   969.04  1019.68  1084.32  1097.54
                             1120.70  1133.16  1190.51  1275.91  1277.21
                             1282.72  1374.06  1403.82  1404.62  1456.19
                             1459.12  1507.33  1537.69  1557.00  1615.25
                             1650.25  1693.02  1700.66  1709.45  1801.66
                             1813.42  1838.53  1919.13  1945.44  1967.62
                             1986.02  2139.12  2141.85  2173.70  2196.42
                             2327.81  2350.69  2365.86  2427.71  2460.66
                             4595.11  4613.38  4619.69  4632.61  4642.95
                             4645.66  4657.55  4658.36  5633.75

 Zero-point correction=                           0.189037 (Hartree/Particle)
 Thermal correction to Energy=                    0.201278
 Thermal correction to Enthalpy=                  0.202222
 Thermal correction to Gibbs Free Energy=         0.149048
 Sum of electronic and zero-point Energies=          -1028.621777
 Sum of electronic and thermal Energies=             -1028.609537
 Sum of electronic and thermal Enthalpies=           -1028.608593
 Sum of electronic and thermal Free Energies=        -1028.661766

                     E (Thermal)             CV                S
                      KCal/Mol        Cal/Mol-Kelvin    Cal/Mol-Kelvin
 Total                  126.304             49.154            111.913
 Electronic               0.000              0.000              0.000
 Translational            0.889              2.981             42.162
 Rotational               0.889              2.981             32.617
 Vibrational            124.526             43.192             37.134
 Vibration     1          0.593              1.985              6.291
 Vibration     2          0.595              1.980              5.155
 Vibration     3          0.605              1.946              3.375
 Vibration     4          0.617              1.905              2.702
 Vibration     5          0.637              1.841              2.140
 Vibration     6          0.656              1.782              1.817
 Vibration     7          0.657              1.779              1.802
 Vibration     8          0.678              1.716              1.554
 Vibration     9          0.706              1.634              1.306
 Vibration    10          0.756              1.496              1.007
 Vibration    11          0.798              1.389              0.835
 Vibration    12          0.803              1.376              0.816
 Vibration    13          0.823              1.327              0.750
 Vibration    14          0.831              1.307              0.726
 Vibration    15          0.864              1.230              0.636
 Vibration    16          0.895              1.162              0.565
 Vibration    17          0.900              1.151              0.555
 Vibration    18          0.928              1.092              0.500
 Vibration    19          0.955              1.038              0.454

 Optimization completed.
    -- Stationary point found.
 Normal termination of Gaussian 16 at Tue Oct 27 20:39:57 2020.
