 Gaussian 16, Revision C.01,
 Gaussian 16:  ES64L-G16RevC.01  3-Jul-2019

 ----------------------------------------------------------------------
 #p opt=addgic freq wb97xd/cc-pvdz nosymm int=ultrafine scrf=(solvent=C
 arbonTetraChloride)
 ----------------------------------------------------------------------

 ------------------------------------------------
 NM 2D-scan of HBT TD-WB97XD pVDZ in CTC Relaxed.
 ------------------------------------------------
 Symbolic Z-matrix:
 Charge =  0 Multiplicity = 1

 SCF Done:  E(RwB97XD) =  -1028.77361009     A.U. after   15 cycles
 SCF Done:  E(RwB97XD) =  -1028.82268842     A.U. after   13 cycles
 SCF Done:  E(RwB97XD) =  -1028.82668399     A.U. after   13 cycles
 SCF Done:  E(RwB97XD) =  -1028.82722511     A.U. after   11 cycles
 SCF Done:  E(RwB97XD) =  -1028.82724408     A.U. after   10 cycles
 SCF Done:  E(RwB97XD) =  -1028.82724716     A.U. after    9 cycles
 SCF Done:  E(RwB97XD) =  -1028.82724749     A.U. after    7 cycles
 SCF Done:  E(RwB97XD) =  -1028.82724752     A.U. after    7 cycles
 Optimization completed.
    -- Stationary point found.
 Normal termination of Gaussian 16 at Tue Oct 27 22:17:08 2020.

 --------------------------------------------------------------------
 #P Geom=AllCheck Guess=TCheck SCRF=Check GenChk RwB97XD/CC-pVDZ Freq
 --------------------------------------------------------------------

 Structure from the checkpoint file:  "config_3_6.chk"
 ------------------------------------------------
 NM 2D-scan of HBT TD-WB97XD pVDZ in CTC Relaxed.
 ------------------------------------------------
 Charge =  0 Multiplicity = 1

                          Input orientation:
 ---------------------------------------------------------------------
 Center     Atomic      Atomic             Coordinates (Angstroms)
 Number     Number       Type             X           Y           Z
 ---------------------------------------------------------------------
      1          6           0        1.700183   -3.305235    0.000065
      2          6           0        0.980021   -2.103734    0.000075
      3          6           0        1.665884   -0.876584   -0.000073
      4          6           0        3.063125   -0.819595   -0.000234
      5          6           0        3.772422   -2.006733   -0.000241
      6          6           0        3.092005   -3.236782   -0.000092
      7          1           0        1.194230   -4.271155    0.000164
      8          1           0        3.556417    0.152857   -0.000342
      9          1           0        4.863153   -1.991524   -0.000362
     10          1           0        3.665675   -4.164980   -0.000106
     11          7           0        0.870799    0.240338   -0.000039
     12         16           0       -0.753776   -1.784562    0.000188
     13          6           0       -1.374160    1.073197    0.000139
     14          6           0       -2.770319    0.879379    0.000042
     15          6           0       -0.888545    2.416098    0.000153
     16          6           0       -3.653854    1.947626   -0.000130
     17          1           0       -3.163048   -0.140638    0.000039
     18          6           0       -1.795079    3.485424   -0.000030
     19          6           0       -3.157056    3.258943   -0.000182
     20          1           0       -4.728761    1.766072   -0.000238
     21          1           0       -1.378433    4.493124    0.000009
     22          1           0       -3.845342    4.106147   -0.000302
     23          6           0       -0.401698   -0.029462    0.000166
     24          8           0        0.402030    2.765685    0.000531
     25          1           0        0.928871    1.933779    0.000901
 ---------------------------------------------------------------------

 SCF Done:  E(RwB97XD) =  -1028.82724752     A.U. after    1 cycles

 Alpha  occ. eigenvalues --  -89.08892 -19.28010 -14.46717 -10.39606 -10.37393
 Alpha  occ. eigenvalues --  -10.35007 -10.34684 -10.32661 -10.32481 -10.31886
 Alpha  occ. eigenvalues --  -10.31640 -10.31517 -10.31441 -10.31299 -10.30211
 Alpha  occ. eigenvalues --  -10.29937  -8.10821  -6.05689  -6.05331  -6.04862
 Alpha  occ. eigenvalues --   -1.16460  -1.09008  -0.97211  -0.96044  -0.91300
 Alpha  occ. eigenvalues --   -0.88540  -0.85259  -0.84468  -0.82964  -0.75486
 Alpha  occ. eigenvalues --   -0.71299  -0.70583  -0.69452  -0.68155  -0.63011
 Alpha  occ. eigenvalues --   -0.60399  -0.58679  -0.58351  -0.56329  -0.54465
 Alpha  occ. eigenvalues --   -0.53944  -0.53175  -0.52518  -0.50954  -0.50292
 Alpha  occ. eigenvalues --   -0.49349  -0.47772  -0.45847  -0.45310  -0.44940
 Alpha  occ. eigenvalues --   -0.43773  -0.42877  -0.42656  -0.39736  -0.37140
 Alpha  occ. eigenvalues --   -0.36158  -0.32165  -0.31669  -0.29015
 Alpha virt. eigenvalues --   -0.00452   0.04803   0.06866   0.07208   0.07473
 Alpha virt. eigenvalues --    0.11466   0.13330   0.15119   0.16009   0.17803
 Alpha virt. eigenvalues --    0.18975   0.20619   0.21719   0.22511   0.22770

 Mulliken charges:
               1
     1  C    0.002310
     2  C   -0.217082
     3  C    0.235861
     4  C   -0.012774
     5  C    0.007620
     6  C   -0.001357
     7  H    0.020476
     8  H    0.017653
     9  H    0.019590
    10  H    0.021629
    11  N   -0.336049
    12  S    0.141624
    13  C   -0.071873
    14  C   -0.017759
    15  C    0.069681
    16  C   -0.008407
    17  H    0.010364
    18  C    0.014250
    19  C    0.019915
    20  H    0.010041
    21  H    0.016115
    22  H    0.018067
    23  C    0.079953
    24  O   -0.198555
    25  H    0.158709
 Sum of Mulliken charges =  -0.00000

 Dipole moment (field-independent basis, Debye):
    X=              0.1445    Y=             -2.3119    Z=              0.0003  Tot=              2.3164
 Quadrupole moment (field-independent basis, Debye-Ang):
   XX=            -82.7113   YY=            -89.8925   ZZ=           -104.2045
   XY=             -7.0356   XZ=              0.0006   YZ=             -0.0005

  Exact polarizability:     275.262     -66.075     256.470      -0.002      -0.003      63.077
 Approx polarizability:     263.280     -22.691     243.311      -0.002      -0.004      82.264

                      1                      2                      3
                      A                      A                      A
 Frequencies --     47.3307                55.9330               117.3108
 Red. masses --      5.7483                 5.6161                 5.6610
 Frc consts  --      0.0076                 0.0104                 0.0459
 IR Inten    --      0.1615                 1.0868                 1.1768

                      4                      5                      6
                      A                      A                      A
 Frequencies --    151.6993               199.5716               245.4067
 Red. masses --      4.9054                 5.7981                 5.7962
 Frc consts  --      0.0665                 0.1361                 0.2057
 IR Inten    --      0.0045                 0.4906                 0.0513

                      7                      8                      9
                      A                      A                      A
 Frequencies --    266.8032               303.9141               326.0784
 Red. masses --      7.8944                 6.3932                 5.0836
 Frc consts  --      0.3311                 0.3479                 0.3185
 IR Inten    --      1.3648                 6.6410                 0.3767

                     10                     11                     12
                      A                      A                      A
 Frequencies --    402.1602               439.1991               468.0488
 Red. masses --      9.0142                 3.1548                 3.7263
 Frc consts  --      0.8590                 0.3585                 0.4810
 IR Inten    --      0.2531                 2.0756                 8.4136

                     13                     14                     15
                      A                      A                      A
 Frequencies --    508.4343               514.5208               538.9733
 Red. masses --      4.8162                 8.4739                 3.4671
 Frc consts  --      0.7335                 1.3217                 0.5934
 IR Inten    --      6.5590                 0.0474                 3.8796

                     16                     17                     18
                      A                      A                      A
 Frequencies --    547.5758               573.8599               594.2673
 Red. masses --      8.5981                 3.7095                 7.6916
 Frc consts  --      1.5189                 0.7197                 1.6004
 IR Inten    --      2.6465                 0.0267                 5.9880

                     19                     20                     21
                      A                      A                      A
 Frequencies --    644.8633               679.6556               701.4266
 Red. masses --      5.5819                 6.4399                 8.0791
 Frc consts  --      1.3676                 1.7527                 2.3419
 IR Inten    --      0.5391                 9.0880                39.7058

                     22                     23                     24
                      A                      A                      A
 Frequencies --    725.5398               751.1317               756.0540
 Red. masses --      8.3192                 1.9694                 1.8822
 Frc consts  --      2.5802                 0.6547                 0.6339
 IR Inten    --      3.1347                46.9397                 5.8839

                     25                     26                     27
                      A                      A                      A
 Frequencies --    776.1061               784.9878               802.0769
 Red. masses --      1.4108                 1.8157                 1.4595
 Frc consts  --      0.5007                 0.6592                 0.5532
 IR Inten    --     69.7401                21.3762                64.4217

                     28                     29                     30
                      A                      A                      A
 Frequencies --    842.0759               885.0162               887.3025
 Red. masses --      6.0227                 1.5368                 1.4319
 Frc consts  --      2.5162                 0.7092                 0.6642
 IR Inten    --     22.7657                 4.2830                 1.1026

                     31                     32                     33
                      A                      A                      A
 Frequencies --    897.5656               972.2467               975.9574
 Red. masses --      6.4758                 1.3562                 1.3636
 Frc consts  --      3.0738                 0.7553                 0.7652
 IR Inten    --      1.3388                 1.1711                 1.5473

                     34                     35                     36
                      A                      A                      A
 Frequencies --    982.1232              1011.2712              1015.3847
 Red. masses --      7.5787                 1.3004                 1.3050
 Frc consts  --      4.3070                 0.7835                 0.7927
 IR Inten    --     67.5571                 0.3207                 0.0105

                     37                     38                     39
                      A                      A                      A
 Frequencies --   1051.3075              1068.7024              1094.0775
 Red. masses --      2.0265                 1.9978                 4.5346
 Frc consts  --      1.3196                 1.3444                 3.1981
 IR Inten    --      8.0616                12.2282                 5.9659

                     40                     41                     42
                      A                      A                      A
 Frequencies --   1145.9484              1150.6386              1175.0179
 Red. masses --      1.5186                 1.2793                 1.1209
 Frc consts  --      1.1750                 0.9980                 0.9118
 IR Inten    --      7.5257                 4.8585                47.7063

                     43                     44                     45
                      A                      A                      A
 Frequencies --   1184.1800              1242.9094              1283.3208
 Red. masses --      1.1874                 1.7870                 2.1848
 Frc consts  --      0.9810                 1.6265                 2.1200
 IR Inten    --      0.3137               148.1297                90.5028

                     46                     47                     48
                      A                      A                      A
 Frequencies --   1283.7792              1320.0660              1353.5360
 Red. masses --      1.6198                 5.3527                 3.0993
 Frc consts  --      1.5729                 5.4956                 3.3455
 IR Inten    --     20.6692                17.1981                13.9139

                     49                     50                     51
                      A                      A                      A
 Frequencies --   1370.6577              1377.7289              1446.9289
 Red. masses --      8.1564                 3.1614                 1.7051
 Frc consts  --      9.0284                 3.5355                 2.1033
 IR Inten    --     16.5454                11.7934                63.8066

                     52                     53                     54
                      A                      A                      A
 Frequencies --   1491.6883              1499.2073              1519.4810
 Red. masses --      2.6414                 3.1418                 3.6630
 Frc consts  --      3.4629                 4.1606                 4.9829
 IR Inten    --     25.7974                14.1246               129.9920

                     55                     56                     57
                      A                      A                      A
 Frequencies --   1542.7582              1597.2351              1645.6877
 Red. masses --      2.4586                 7.9571                 6.5178
 Frc consts  --      3.4477                11.9603                10.4004
 IR Inten    --     65.5030               206.7009                11.5485

                     58                     59                     60
                      A                      A                      A
 Frequencies --   1655.4934              1683.0830              1708.5644
 Red. masses --      4.7680                 6.8910                 6.2873
 Frc consts  --      7.6991                11.5012                10.8138
 IR Inten    --    119.4500                 9.9428               107.6975

                     61                     62                     63
                      A                      A                      A
 Frequencies --   3192.5964              3208.2684              3211.6274
 Red. masses --      1.0896                 1.0882                 1.0861
 Frc consts  --      6.5435                 6.5996                 6.6003
 IR Inten    --      3.3397                 7.2190                 1.3621

                     64                     65                     66
                      A                      A                      A
 Frequencies --   3222.3797              3228.6707              3232.4492
 Red. masses --      1.0904                 1.0940                 1.0960
 Frc consts  --      6.6709                 6.7194                 6.7470
 IR Inten    --      4.4417                10.1213                11.7760

                     67                     68                     69
                      A                      A                      A
 Frequencies --   3236.4180              3238.7709              3386.4979
 Red. masses --      1.0990                 1.0999                 1.0673
 Frc consts  --      6.7826                 6.7976                 7.2120
 IR Inten    --     18.2062                14.1440               814.2274

 - Thermochemistry -
 -------------------
 Temperature   298.150 Kelvin.  Pressure   1.00000 Atm.
 Atom     1 has atomic number  6 and mass  12.00000

 Molecular mass:   227.04049 amu.
 Principal axes and moments of inertia in atomic units:
                           1         2         3
     Eigenvalues --  1336.087256349.020507685.10769
           X           -0.69668   0.71738   0.00001
           Y            0.71738   0.69668  -0.00001
           Z            0.00001  -0.00000   1.00000
 This molecule is an asymmetric top.
 Rotational symmetry number  1.
 Warning -- assumption of classical behavior for rotation
           may cause significant error
 Rotational temperatures (Kelvin)      0.06483     0.01364     0.01127
 Rotational constants (GHZ):           1.35077     0.28426     0.23484
 Zero-point vibrational energy     499091.3 (Joules/Mol)
                                  119.28568 (Kcal/Mol)
 Warning -- explicit consideration of  18 degrees of freedom as
           vibrations may cause significant error
 Vibrational temperatures:     68.10    80.48   168.78   218.26   287.14
          (Kelvin)            353.09   383.87   437.26   469.15   578.62
                              631.91   673.42   731.52   740.28   775.46
                              787.84   825.66   855.02   927.81   977.87
                             1009.20  1043.89  1080.71  1087.79  1116.64
                             1129.42  1154.01  1211.56  1273.34  1276.63
                             1291.40  1398.85  1404.19  1413.06  1454.99
                             1460.91  1512.60  1537.62  1574.13  1648.76
                             1655.51  1690.59  1703.77  1788.27  1846.41
                             1847.07  1899.28  1947.44  1972.07  1982.24
                             2081.81  2146.21  2157.02  2186.19  2219.68
                             2298.07  2367.78  2381.89  2421.58  2458.24
                             4593.43  4615.98  4620.82  4636.29  4645.34
                             4650.77  4656.48  4659.87  4872.42

 Zero-point correction=                           0.190094 (Hartree/Particle)
 Thermal correction to Energy=                    0.201844
 Thermal correction to Enthalpy=                  0.202788
 Thermal correction to Gibbs Free Energy=         0.151338
 Sum of electronic and zero-point Energies=          -1028.637154
 Sum of electronic and thermal Energies=             -1028.625403
 Sum of electronic and thermal Enthalpies=           -1028.624459
 Sum of electronic and thermal Free Energies=        -1028.675910

                     E (Thermal)             CV                S
                      KCal/Mol        Cal/Mol-Kelvin    Cal/Mol-Kelvin
 Total                  126.659             47.811            108.287
 Electronic               0.000              0.000              0.000
 Translational            0.889              2.981             42.162
 Rotational               0.889              2.981             32.544
 Vibrational            124.882             41.849             33.581
 Vibration     1          0.595              1.979              4.926
 Vibration     2          0.596              1.975              4.596
 Vibration     3          0.608              1.935              3.144
 Vibration     4          0.619              1.901              2.651
 Vibration     5          0.638              1.840              2.137
 Vibration     6          0.660              1.770              1.763
 Vibration     7          0.672              1.734              1.617
 Vibration     8          0.695              1.666              1.395
 Vibration     9          0.710              1.623              1.279
 Vibration    10          0.768              1.465              0.955
 Vibration    11          0.799              1.385              0.829
 Vibration    12          0.825              1.321              0.743
 Vibration    13          0.864              1.231              0.637
 Vibration    14          0.870              1.218              0.623
 Vibration    15          0.894              1.164              0.567
 Vibration    16          0.903              1.145              0.549
 Vibration    17          0.930              1.088              0.497
 Vibration    18          0.952              1.044              0.460

 Optimization completed.
    -- Stationary point found.
 Normal termination of Gaussian 16 at Tue Oct 27 22:23:48 2020.
