 Gaussian 16, Revision C.01,
 Gaussian 16:  ES64L-G16RevC.01  3-Jul-2019

 ----------------------------------------------------------------------
 #p opt=addgic freq wb97xd/cc-pvdz nosymm int=ultrafine scrf=(solvent=C
 arbonTetraChloride)
 ----------------------------------------------------------------------

 ------------------------------------------------
 NM 2D-scan of HBT TD-WB97XD pVDZ in CTC Relaxed.
 ------------------------------------------------
 Symbolic Z-matrix:
 Charge =  0 Multiplicity = 1

 SCF Done:  E(RwB97XD) =  -1028.81918467     A.U. after   15 cycles
 SCF Done:  E(RwB97XD) =  -1028.82787173     A.U. after   13 cycles
 SCF Done:  E(RwB97XD) =  -1028.82860477     A.U. after   12 cycles
 SCF Done:  E(RwB97XD) =  -1028.82879381     A.U. after   11 cycles
 SCF Done:  E(RwB97XD) =  -1028.82886868     A.U. after   10 cycles
 SCF Done:  E(RwB97XD) =  -1028.82887053     A.U. after    9 cycles
 SCF Done:  E(RwB97XD) =  -1028.82887062     A.U. after    8 cycles
 SCF Done:  E(RwB97XD) =  -1028.82887069     A.U. after    7 cycles
 Optimization completed.
    -- Stationary point found.
 Normal termination of Gaussian 16 at Wed Oct 28 00:11:45 2020.

 --------------------------------------------------------------------
 #P Geom=AllCheck Guess=TCheck SCRF=Check GenChk RwB97XD/CC-pVDZ Freq
 --------------------------------------------------------------------

 Structure from the checkpoint file:  "config_4_12.chk"
 ------------------------------------------------
 NM 2D-scan of HBT TD-WB97XD pVDZ in CTC Relaxed.
 ------------------------------------------------
 Charge =  0 Multiplicity = 1

                          Input orientation:
 ---------------------------------------------------------------------
 Center     Atomic      Atomic             Coordinates (Angstroms)
 Number     Number       Type             X           Y           Z
 ---------------------------------------------------------------------
      1          6           0        1.608478   -3.275848   -0.000088
      2          6           0        0.993027   -2.024655   -0.000124
      3          6           0        1.734212   -0.831926    0.000004
      4          6           0        3.133930   -0.886511    0.000173
      5          6           0        3.749993   -2.132092    0.000207
      6          6           0        2.996587   -3.316669    0.000079
      7          1           0        1.017926   -4.192333   -0.000183
      8          1           0        3.715331    0.036021    0.000274
      9          1           0        4.839394   -2.190640    0.000338
     10          1           0        3.505542   -4.281526    0.000112
     11          7           0        0.947617    0.308468   -0.000049
     12         16           0       -0.718052   -1.661700   -0.000300
     13          6           0       -1.342642    1.094103   -0.000173
     14          6           0       -2.715119    0.807689   -0.000063
     15          6           0       -0.896113    2.440834   -0.000124
     16          6           0       -3.657662    1.823606    0.000181
     17          1           0       -3.045531   -0.233973   -0.000107
     18          6           0       -1.866127    3.462539    0.000168
     19          6           0       -3.219566    3.154104    0.000317
     20          1           0       -4.721908    1.588139    0.000295
     21          1           0       -1.522628    4.497772    0.000209
     22          1           0       -3.951086    3.964702    0.000513
     23          6           0       -0.333355    0.043733   -0.000230
     24          8           0        0.394886    2.741242   -0.000453
     25          1           0        0.905946    1.859683   -0.000871
 ---------------------------------------------------------------------

 SCF Done:  E(RwB97XD) =  -1028.82887069     A.U. after    1 cycles

 Alpha  occ. eigenvalues --  -89.08752 -19.27336 -14.47140 -10.39482 -10.37223
 Alpha  occ. eigenvalues --  -10.35148 -10.34822 -10.32366 -10.32003 -10.31819
 Alpha  occ. eigenvalues --  -10.31811 -10.31655 -10.31581 -10.31380 -10.30156
 Alpha  occ. eigenvalues --  -10.30066  -8.10824  -6.05674  -6.05315  -6.04874
 Alpha  occ. eigenvalues --   -1.16070  -1.09105  -0.97349  -0.96172  -0.91840
 Alpha  occ. eigenvalues --   -0.88632  -0.85491  -0.84453  -0.83007  -0.75534
 Alpha  occ. eigenvalues --   -0.71460  -0.70593  -0.69415  -0.68189  -0.63253
 Alpha  occ. eigenvalues --   -0.60663  -0.58928  -0.58344  -0.56350  -0.54526
 Alpha  occ. eigenvalues --   -0.54267  -0.53310  -0.52774  -0.50922  -0.50248
 Alpha  occ. eigenvalues --   -0.49425  -0.47418  -0.46020  -0.45411  -0.45045
 Alpha  occ. eigenvalues --   -0.43981  -0.42838  -0.42731  -0.39887  -0.36850
 Alpha  occ. eigenvalues --   -0.36234  -0.32220  -0.31669  -0.28978
 Alpha virt. eigenvalues --   -0.00500   0.04761   0.06825   0.07283   0.07786
 Alpha virt. eigenvalues --    0.11346   0.14366   0.15162   0.16673   0.17992
 Alpha virt. eigenvalues --    0.18974   0.20984   0.21719   0.22600   0.22668

 Mulliken charges:
               1
     1  C    0.012787
     2  C   -0.218890
     3  C    0.234689
     4  C   -0.015201
     5  C    0.005289
     6  C    0.001737
     7  H    0.019021
     8  H    0.020181
     9  H    0.020673
    10  H    0.021851
    11  N   -0.350689
    12  S    0.152271
    13  C   -0.060627
    14  C   -0.025640
    15  C    0.076316
    16  C   -0.008634
    17  H    0.014938
    18  C    0.002044
    19  C    0.021080
    20  H    0.009156
    21  H    0.015283
    22  H    0.018371
    23  C    0.085579
    24  O   -0.223293
    25  H    0.171709
 Sum of Mulliken charges =  -0.00000

 Dipole moment (field-independent basis, Debye):
    X=              0.0353    Y=             -2.8011    Z=             -0.0002  Tot=              2.8013
 Quadrupole moment (field-independent basis, Debye-Ang):
   XX=            -82.7170   YY=            -90.3479   ZZ=           -104.0423
   XY=             -7.2448   XZ=             -0.0007   YZ=              0.0010

  Exact polarizability:     274.600     -67.797     255.352       0.000       0.007      62.904
 Approx polarizability:     262.273     -23.433     242.300       0.001       0.007      82.158

                      1                      2                      3
                      A                      A                      A
 Frequencies --     31.6034                63.0759               124.2203
 Red. masses --      5.4268                 5.9277                 5.6326
 Frc consts  --      0.0032                 0.0139                 0.0512
 IR Inten    --      0.0323                 1.2775                 1.7815

                      4                      5                      6
                      A                      A                      A
 Frequencies --    152.3875               197.7130               244.7979
 Red. masses --      5.0347                 5.9997                 5.6669
 Frc consts  --      0.0689                 0.1382                 0.2001
 IR Inten    --      0.0988                 0.6409                 0.0479

                      7                      8                      9
                      A                      A                      A
 Frequencies --    275.1143               326.5744               328.8245
 Red. masses --      7.4588                 6.3571                 5.1239
 Frc consts  --      0.3326                 0.3995                 0.3264
 IR Inten    --      0.7983                 9.2176                 0.1585

                     10                     11                     12
                      A                      A                      A
 Frequencies --    415.6922               436.8656               464.7505
 Red. masses --     10.0564                 3.1163                 3.6409
 Frc consts  --      1.0239                 0.3504                 0.4633
 IR Inten    --      0.0646                 1.9569                 8.0628

                     13                     14                     15
                      A                      A                      A
 Frequencies --    516.7001               524.4969               538.0930
 Red. masses --      8.4917                 5.4671                 3.4662
 Frc consts  --      1.3357                 0.8861                 0.5913
 IR Inten    --      0.0791                14.5566                 3.5374

                     16                     17                     18
                      A                      A                      A
 Frequencies --    554.8604               575.5553               591.4545
 Red. masses --      7.4873                 3.7193                 7.6526
 Frc consts  --      1.3581                 0.7259                 1.5773
 IR Inten    --      3.6595                 0.0423                 4.1740

                     19                     20                     21
                      A                      A                      A
 Frequencies --    647.8630               683.5507               724.8213
 Red. masses --      6.2602                 6.4842                 6.6250
 Frc consts  --      1.5481                 1.7850                 2.0507
 IR Inten    --      0.0007                 5.8470                21.0536

                     22                     23                     24
                      A                      A                      A
 Frequencies --    752.5795               756.0762               767.2227
 Red. masses --     10.3107                 1.9951                 3.1998
 Frc consts  --      3.4407                 0.6720                 1.1097
 IR Inten    --     16.7170                27.4800                 1.3006

                     25                     26                     27
                      A                      A                      A
 Frequencies --    775.5700               785.8990               850.9538
 Red. masses --      1.3551                 1.9196                 5.9638
 Frc consts  --      0.4802                 0.6986                 2.5444
 IR Inten    --     61.2970                38.5364                17.1180

                     28                     29                     30
                      A                      A                      A
 Frequencies --    883.2122               886.8161               900.9022
 Red. masses --      1.5615                 1.4131                 6.6523
 Frc consts  --      0.7177                 0.6548                 3.1811
 IR Inten    --      5.2670                 0.1864                 2.9318

                     31                     32                     33
                      A                      A                      A
 Frequencies --    960.0624               969.0780               975.7009
 Red. masses --      1.0780                 1.3568                 1.3627
 Frc consts  --      0.5854                 0.7507                 0.7643
 IR Inten    --     74.3111                 0.0911                 3.8918

                     34                     35                     36
                      A                      A                      A
 Frequencies --   1002.4922              1010.9494              1015.7451
 Red. masses --      7.5689                 1.3024                 1.3051
 Frc consts  --      4.4817                 0.7842                 0.7933
 IR Inten    --     51.2790                 0.6166                 0.0610

                     37                     38                     39
                      A                      A                      A
 Frequencies --   1052.8836              1068.5337              1102.4461
 Red. masses --      1.9997                 1.9200                 3.8553
 Frc consts  --      1.3061                 1.2916                 2.7608
 IR Inten    --      8.8044                 9.4689                 5.6129

                     40                     41                     42
                      A                      A                      A
 Frequencies --   1151.3727              1155.7921              1174.8127
 Red. masses --      1.4631                 1.3410                 1.1278
 Frc consts  --      1.1428                 1.0555                 0.9171
 IR Inten    --      9.5231                 2.9739                41.7732

                     43                     44                     45
                      A                      A                      A
 Frequencies --   1184.9846              1259.8426              1287.1123
 Red. masses --      1.2119                 1.9010                 1.5984
 Frc consts  --      1.0027                 1.7777                 1.5601
 IR Inten    --      0.3018                89.9562                 2.7907

                     46                     47                     48
                      A                      A                      A
 Frequencies --   1298.7815              1331.0101              1355.6468
 Red. masses --      2.8611                 3.0263                 4.4077
 Frc consts  --      2.8435                 3.1589                 4.7726
 IR Inten    --    188.4382                24.4943                10.7021

                     49                     50                     51
                      A                      A                      A
 Frequencies --   1376.9470              1378.7956              1485.2928
 Red. masses --      7.5332                 3.8978                 2.6008
 Frc consts  --      8.4152                 4.3658                 3.3806
 IR Inten    --     11.4731                18.1997                 5.6374

                     52                     53                     54
                      A                      A                      A
 Frequencies --   1492.3768              1503.8186              1525.3623
 Red. masses --      2.5661                 2.8756                 4.0267
 Frc consts  --      3.3674                 3.8315                 5.5200
 IR Inten    --     39.9964                 9.3849               123.5336

                     55                     56                     57
                      A                      A                      A
 Frequencies --   1577.7680              1597.7952              1652.0632
 Red. masses --      4.9182                 2.7232                 6.8795
 Frc consts  --      7.2134                 4.0961                11.0626
 IR Inten    --    276.3853                24.3301                 6.4037

                     58                     59                     60
                      A                      A                      A
 Frequencies --   1677.9532              1689.3731              1713.7146
 Red. masses --      6.7984                 3.3076                 2.9443
 Frc consts  --     11.2776                 5.5617                 5.0946
 IR Inten    --     29.1842               192.6175               190.2578

                     61                     62                     63
                      A                      A                      A
 Frequencies --   2771.8556              3198.5639              3209.1716
 Red. masses --      1.0775                 1.0889                 1.0887
 Frc consts  --      4.8778                 6.5636                 6.6058
 IR Inten    --   1352.7021                 4.6256                 5.9834

                     64                     65                     66
                      A                      A                      A
 Frequencies --   3212.7409              3223.7031              3229.2738
 Red. masses --      1.0861                 1.0906                 1.0938
 Frc consts  --      6.6052                 6.6778                 6.7205
 IR Inten    --      1.6553                 3.9379                12.5421

                     67                     68                     69
                      A                      A                      A
 Frequencies --   3234.1549              3237.2345              3240.0079
 Red. masses --      1.0960                 1.0990                 1.0996
 Frc consts  --      6.7541                 6.7855                 6.8009
 IR Inten    --      9.5566                17.3197                13.1247

 - Thermochemistry -
 -------------------
 Temperature   298.150 Kelvin.  Pressure   1.00000 Atm.
 Atom     1 has atomic number  6 and mass  12.00000

 Molecular mass:   227.04049 amu.
 Principal axes and moments of inertia in atomic units:
                           1         2         3
     Eigenvalues --  1292.608056301.587417594.19537
           X           -0.70257   0.71161  -0.00001
           Y            0.71161   0.70257  -0.00002
           Z            0.00000   0.00002   1.00000
 This molecule is an asymmetric top.
 Rotational symmetry number  1.
 Warning -- assumption of classical behavior for rotation
           may cause significant error
 Rotational temperatures (Kelvin)      0.06701     0.01374     0.01141
 Rotational constants (GHZ):           1.39620     0.28639     0.23765
 Zero-point vibrational energy     498624.2 (Joules/Mol)
                                  119.17405 (Kcal/Mol)
 Warning -- explicit consideration of  18 degrees of freedom as
           vibrations may cause significant error
 Vibrational temperatures:     45.47    90.75   178.73   219.25   284.46
          (Kelvin)            352.21   395.83   469.87   473.11   598.09
                              628.55   668.67   743.42   754.63   774.20
                              798.32   828.10   850.97   932.13   983.48
                             1042.86  1082.79  1087.83  1103.86  1115.87
                             1130.73  1224.33  1270.75  1275.93  1296.20
                             1381.32  1394.29  1403.82  1442.36  1454.53
                             1461.43  1514.86  1537.38  1586.17  1656.57
                             1662.93  1690.29  1704.93  1812.63  1851.87
                             1868.66  1915.03  1950.47  1981.12  1983.78
                             2137.01  2147.20  2163.66  2194.66  2270.06
                             2298.87  2376.95  2414.20  2430.63  2465.65
                             3988.08  4602.02  4617.28  4622.42  4638.19
                             4646.20  4653.23  4657.66  4661.65

 Zero-point correction=                           0.189916 (Hartree/Particle)
 Thermal correction to Energy=                    0.201536
 Thermal correction to Enthalpy=                  0.202480
 Thermal correction to Gibbs Free Energy=         0.151058
 Sum of electronic and zero-point Energies=          -1028.638955
 Sum of electronic and thermal Energies=             -1028.627335
 Sum of electronic and thermal Enthalpies=           -1028.626391
 Sum of electronic and thermal Free Energies=        -1028.677812

                     E (Thermal)             CV                S
                      KCal/Mol        Cal/Mol-Kelvin    Cal/Mol-Kelvin
 Total                  126.466             47.211            108.226
 Electronic               0.000              0.000              0.000
 Translational            0.889              2.981             42.162
 Rotational               0.889              2.981             32.492
 Vibrational            124.688             41.249             33.572
 Vibration     1          0.594              1.983              5.726
 Vibration     2          0.597              1.972              4.359
 Vibration     3          0.610              1.929              3.034
 Vibration     4          0.619              1.900              2.642
 Vibration     5          0.637              1.843              2.154
 Vibration     6          0.660              1.771              1.768
 Vibration     7          0.677              1.719              1.564
 Vibration     8          0.710              1.622              1.277
 Vibration     9          0.712              1.618              1.266
 Vibration    10          0.779              1.436              0.907
 Vibration    11          0.797              1.390              0.837
 Vibration    12          0.822              1.328              0.752
 Vibration    13          0.872              1.213              0.618
 Vibration    14          0.879              1.196              0.600
 Vibration    15          0.893              1.166              0.569
 Vibration    16          0.910              1.129              0.534
 Vibration    17          0.932              1.084              0.494
 Vibration    18          0.949              1.050              0.465

 Optimization completed.
    -- Stationary point found.
 Normal termination of Gaussian 16 at Wed Oct 28 00:18:18 2020.
