 Gaussian 16, Revision C.01,
 Gaussian 16:  ES64L-G16RevC.01  3-Jul-2019

 ----------------------------------------------------------------------
 #p opt=addgic freq wb97xd/cc-pvdz nosymm int=ultrafine scrf=(solvent=C
 arbonTetraChloride)
 ----------------------------------------------------------------------

 ------------------------------------------------
 NM 2D-scan of HBT TD-WB97XD pVDZ in CTC Relaxed.
 ------------------------------------------------
 Symbolic Z-matrix:
 Charge =  0 Multiplicity = 1

 SCF Done:  E(RwB97XD) =  -1028.79891819     A.U. after   15 cycles
 SCF Done:  E(RwB97XD) =  -1028.80652517     A.U. after   13 cycles
 SCF Done:  E(RwB97XD) =  -1028.80775239     A.U. after   12 cycles
 SCF Done:  E(RwB97XD) =  -1028.80825736     A.U. after   12 cycles
 SCF Done:  E(RwB97XD) =  -1028.80844781     A.U. after   12 cycles
 SCF Done:  E(RwB97XD) =  -1028.80852939     A.U. after   11 cycles
 SCF Done:  E(RwB97XD) =  -1028.80853842     A.U. after   10 cycles
 SCF Done:  E(RwB97XD) =  -1028.80853919     A.U. after    8 cycles
 Optimization completed.
    -- Stationary point found.
 Normal termination of Gaussian 16 at Wed Oct 28 02:02:58 2020.

 --------------------------------------------------------------------
 #P Geom=AllCheck Guess=TCheck SCRF=Check GenChk RwB97XD/CC-pVDZ Freq
 --------------------------------------------------------------------

 Structure from the checkpoint file:  "config_6_19.chk"
 ------------------------------------------------
 NM 2D-scan of HBT TD-WB97XD pVDZ in CTC Relaxed.
 ------------------------------------------------
 Charge =  0 Multiplicity = 1

                          Input orientation:
 ---------------------------------------------------------------------
 Center     Atomic      Atomic             Coordinates (Angstroms)
 Number     Number       Type             X           Y           Z
 ---------------------------------------------------------------------
      1          6           0        1.501554   -3.225539   -0.000108
      2          6           0        1.017214   -1.924791   -0.000090
      3          6           0        1.820117   -0.774644   -0.000014
      4          6           0        3.212514   -0.968426    0.000033
      5          6           0        3.710787   -2.276569    0.000018
      6          6           0        2.873735   -3.401187   -0.000049
      7          1           0        0.812163   -4.070274   -0.000159
      8          1           0        3.896903   -0.119304    0.000090
      9          1           0        4.792256   -2.421521    0.000063
     10          1           0        3.299671   -4.405058   -0.000052
     11          7           0        1.026712    0.391632    0.000020
     12         16           0       -0.669331   -1.528118   -0.000133
     13          6           0       -1.309517    1.116664    0.000059
     14          6           0       -2.650843    0.722301    0.000123
     15          6           0       -0.893556    2.468155    0.000013
     16          6           0       -3.657507    1.668680    0.000103
     17          1           0       -2.908469   -0.339069    0.000190
     18          6           0       -1.952241    3.427027   -0.000033
     19          6           0       -3.286355    3.021676    0.000007
     20          1           0       -4.705845    1.370660    0.000152
     21          1           0       -1.703345    4.489509   -0.000099
     22          1           0       -4.066486    3.786542   -0.000030
     23          6           0       -0.267207    0.128296    0.000004
     24          8           0        0.388641    2.713504   -0.000009
     25          1           0        0.955205    1.701397    0.000014
 ---------------------------------------------------------------------

 SCF Done:  E(RwB97XD) =  -1028.80853919     A.U. after    1 cycles

 Alpha  occ. eigenvalues --  -89.08821 -19.25134 -14.48711 -10.39705 -10.36804
 Alpha  occ. eigenvalues --  -10.36342 -10.34906 -10.32575 -10.32477 -10.32020
 Alpha  occ. eigenvalues --  -10.31889 -10.31560 -10.31291 -10.30965 -10.29906
 Alpha  occ. eigenvalues --  -10.29829  -8.11076  -6.05911  -6.05544  -6.05124
 Alpha  occ. eigenvalues --   -1.14190  -1.09480  -0.97769  -0.96186  -0.92747
 Alpha  occ. eigenvalues --   -0.88813  -0.86130  -0.83979  -0.82943  -0.75620
 Alpha  occ. eigenvalues --   -0.71779  -0.71129  -0.69096  -0.67740  -0.63570
 Alpha  occ. eigenvalues --   -0.60962  -0.59408  -0.57905  -0.56136  -0.54914
 Alpha  occ. eigenvalues --   -0.54610  -0.53676  -0.52802  -0.50937  -0.49825
 Alpha  occ. eigenvalues --   -0.49363  -0.46722  -0.46443  -0.45245  -0.45244
 Alpha  occ. eigenvalues --   -0.44413  -0.42986  -0.42370  -0.40321  -0.36366
 Alpha  occ. eigenvalues --   -0.35409  -0.32621  -0.31573  -0.28368
 Alpha virt. eigenvalues --   -0.00710   0.04456   0.06364   0.07795   0.07929
 Alpha virt. eigenvalues --    0.11125   0.14940   0.15085   0.17467   0.17929
 Alpha virt. eigenvalues --    0.19139   0.20846   0.21622   0.22147   0.22764

 Mulliken charges:
               1
     1  C    0.022976
     2  C   -0.216310
     3  C    0.246739
     4  C   -0.020883
     5  C    0.001992
     6  C    0.006971
     7  H    0.020662
     8  H    0.026700
     9  H    0.023737
    10  H    0.023433
    11  N   -0.327316
    12  S    0.169039
    13  C   -0.063236
    14  C   -0.034420
    15  C    0.112722
    16  C   -0.014521
    17  H    0.021564
    18  C   -0.022458
    19  C    0.022211
    20  H    0.006397
    21  H    0.011459
    22  H    0.017394
    23  C    0.082122
    24  O   -0.326156
    25  H    0.209182
 Sum of Mulliken charges =  -0.00000

 Dipole moment (field-independent basis, Debye):
    X=              0.3795    Y=             -3.9843    Z=             -0.0000  Tot=              4.0024
 Quadrupole moment (field-independent basis, Debye-Ang):
   XX=            -82.4898   YY=            -92.1596   ZZ=           -103.8922
   XY=             -7.2230   XZ=              0.0002   YZ=              0.0000

  Exact polarizability:     275.979     -72.352     258.952       0.000       0.001      62.770
 Approx polarizability:     262.551     -25.218     244.590       0.001       0.001      82.128

 ******    2 imaginary frequencies (negative Signs) ******

                      1                      2                      3
                      A                      A                      A
 Frequencies --   -834.5389               -36.8358                64.2408
 Red. masses --      1.1673                 5.1651                 6.2429
 Frc consts  --      0.4790                 0.0041                 0.0152
 IR Inten    --   1843.1784                 0.0771                 1.1156

                      4                      5                      6
                      A                      A                      A
 Frequencies --    150.9179               156.9863               199.6626
 Red. masses --      5.0296                 5.5431                 6.4228
 Frc consts  --      0.0675                 0.0805                 0.1509
 IR Inten    --      0.7395                 4.9641                 0.3022

                      7                      8                      9
                      A                      A                      A
 Frequencies --    242.3689               288.1518               327.9398
 Red. masses --      5.5923                 7.0507                 5.1740
 Frc consts  --      0.1936                 0.3449                 0.3278
 IR Inten    --      0.1642                 9.4968                 0.0711

                     10                     11                     12
                      A                      A                      A
 Frequencies --    394.7027               433.8212               438.0126
 Red. masses --      5.9171                 3.0803                11.7957
 Frc consts  --      0.5431                 0.3416                 1.3334
 IR Inten    --     21.2630                 1.0558                 3.4672

                     13                     14                     15
                      A                      A                      A
 Frequencies --    459.0658               519.9699               536.4126
 Red. masses --      3.5030                 8.6079                 3.3439
 Frc consts  --      0.4350                 1.3712                 0.5669
 IR Inten    --      9.1250                 5.3817                 3.4674

                     16                     17                     18
                      A                      A                      A
 Frequencies --    566.5771               575.0904               577.3160
 Red. masses --      7.9787                 3.7235                 7.8461
 Frc consts  --      1.5090                 0.7256                 1.5408
 IR Inten    --     11.7303                 0.1088                 1.5054

                     19                     20                     21
                      A                      A                      A
 Frequencies --    648.3295               657.3377               693.7024
 Red. masses --      6.4361                 6.7100                 6.7077
 Frc consts  --      1.5939                 1.7082                 1.9018
 IR Inten    --      0.0012               136.3262                15.2225

                     22                     23                     24
                      A                      A                      A
 Frequencies --    750.7674               755.3781               767.9046
 Red. masses --      6.4559                 2.2071                 1.6305
 Frc consts  --      2.1440                 0.7420                 0.5665
 IR Inten    --      4.4644                23.9026                33.7857

                     25                     26                     27
                      A                      A                      A
 Frequencies --    772.7906               781.9488               785.7986
 Red. masses --      2.3203                 1.7958                 8.1577
 Frc consts  --      0.8164                 0.6469                 2.9679
 IR Inten    --     21.2749                50.7571                16.1166

                     28                     29                     30
                      A                      A                      A
 Frequencies --    861.3124               876.9521               885.7021
 Red. masses --      6.3085                 1.6177                 1.3876
 Frc consts  --      2.7574                 0.7330                 0.6413
 IR Inten    --     17.2165                 6.9400                 0.4231

                     31                     32                     33
                      A                      A                      A
 Frequencies --    924.9371               961.0589               974.1656
 Red. masses --      7.2691                 1.3633                 1.3649
 Frc consts  --      3.6640                 0.7419                 0.7632
 IR Inten    --     14.6533                 0.9089                 1.5743

                     34                     35                     36
                      A                      A                      A
 Frequencies --   1010.5911              1015.6369              1026.7968
 Red. masses --      1.3058                 1.3062                 7.7191
 Frc consts  --      0.7857                 0.7938                 4.7949
 IR Inten    --      0.3081                 0.0041                 7.8615

                     37                     38                     39
                      A                      A                      A
 Frequencies --   1052.9709              1063.4281              1112.8877
 Red. masses --      2.0210                 1.8568                 2.9614
 Frc consts  --      1.3203                 1.2372                 2.1610
 IR Inten    --      7.1192                 8.8238                 3.1950

                     40                     41                     42
                      A                      A                      A
 Frequencies --   1160.4093              1163.7873              1166.4998
 Red. masses --      1.4287                 1.0542                 1.4062
 Frc consts  --      1.1335                 0.8413                 1.1274
 IR Inten    --      8.2672                71.7264                 0.8415

                     43                     44                     45
                      A                      A                      A
 Frequencies --   1175.9532              1185.9853              1254.6731
 Red. masses --      1.1100                 1.3083                 2.1727
 Frc consts  --      0.9043                 1.0842                 2.0151
 IR Inten    --     83.8825                 2.6306                39.8534

                     46                     47                     48
                      A                      A                      A
 Frequencies --   1288.0018              1303.3951              1328.0177
 Red. masses --      1.9186                 2.8359                 2.3720
 Frc consts  --      1.8753                 2.8385                 2.4647
 IR Inten    --      8.6603               138.9621               198.7040

                     49                     50                     51
                      A                      A                      A
 Frequencies --   1375.1969              1379.6148              1411.7045
 Red. masses --      6.9707                 2.6090                 6.2688
 Frc consts  --      7.7671                 2.9258                 7.3608
 IR Inten    --     31.9061                21.4228                62.1041

                     52                     53                     54
                      A                      A                      A
 Frequencies --   1481.1869              1494.9053              1505.6537
 Red. masses --      2.7314                 2.7301                 2.9116
 Frc consts  --      3.5307                 3.5946                 3.8889
 IR Inten    --     40.6902                12.5164                36.5142

                     55                     56                     57
                      A                      A                      A
 Frequencies --   1573.0864              1579.8108              1632.6781
 Red. masses --      4.3962                 6.7900                 6.1402
 Frc consts  --      6.4097                 9.9846                 9.6435
 IR Inten    --    209.9384               854.2755               215.4331

                     58                     59                     60
                      A                      A                      A
 Frequencies --   1656.1540              1681.0123              1702.6491
 Red. masses --      6.9118                 6.7232                 6.8784
 Frc consts  --     11.1697                11.1936                11.7487
 IR Inten    --     11.4155                 5.5198               180.5308

                     61                     62                     63
                      A                      A                      A
 Frequencies --   1885.1200              3198.3033              3203.8854
 Red. masses --      1.0958                 1.0882                 1.0894
 Frc consts  --      2.2944                 6.5583                 6.5883
 IR Inten    --    142.7017                 2.3354                 9.8427

                     64                     65                     66
                      A                      A                      A
 Frequencies --   3210.9648              3220.1423              3223.6455
 Red. masses --      1.0863                 1.0907                 1.0937
 Frc consts  --      6.5987                 6.6637                 6.6967
 IR Inten    --      1.4573                 1.9619                19.5120

                     67                     68                     69
                      A                      A                      A
 Frequencies --   3229.5095              3237.0509              3237.4360
 Red. masses --      1.0957                 1.0984                 1.1001
 Frc consts  --      6.7331                 6.7810                 6.7936
 IR Inten    --      7.3246                19.5738                10.2723

 - Thermochemistry -
 -------------------
 Temperature   298.150 Kelvin.  Pressure   1.00000 Atm.
 Atom     1 has atomic number  6 and mass  12.00000

 Molecular mass:   227.04049 amu.
 Principal axes and moments of inertia in atomic units:
                           1         2         3
     Eigenvalues --  1253.215846228.903497482.11932
           X            0.70911   0.70510  -0.00000
           Y           -0.70510   0.70911  -0.00002
           Z           -0.00001   0.00002   1.00000
 This molecule is an asymmetric top.
 Rotational symmetry number  1.
 Warning -- assumption of classical behavior for rotation
           may cause significant error
 Rotational temperatures (Kelvin)      0.06911     0.01391     0.01158
 Rotational constants (GHZ):           1.44009     0.28974     0.24121
    2 imaginary frequencies ignored.
 Zero-point vibrational energy     487227.4 (Joules/Mol)
                                  116.45015 (Kcal/Mol)
 Warning -- explicit consideration of  16 degrees of freedom as
           vibrations may cause significant error
 Vibrational temperatures:     92.43   217.14   225.87   287.27   348.71
          (Kelvin)            414.59   471.83   567.89   624.17   630.20
                              660.49   748.12   771.78   815.18   827.43
                              830.63   932.80   945.76   998.08  1080.19
                             1086.82  1104.84  1111.87  1125.05  1130.59
                             1239.24  1261.74  1274.33  1330.78  1382.75
                             1401.61  1454.02  1461.27  1477.33  1514.99
                             1530.04  1601.20  1669.57  1674.43  1678.33
                             1691.93  1706.37  1805.19  1853.15  1875.29
                             1910.72  1978.60  1984.96  2031.13  2131.10
                             2150.84  2166.30  2263.32  2273.00  2349.06
                             2382.84  2418.60  2449.73  2712.27  4601.65
                             4609.68  4619.86  4633.07  4638.11  4646.54
                             4657.39  4657.95

 Zero-point correction=                           0.185575 (Hartree/Particle)
 Thermal correction to Energy=                    0.196026
 Thermal correction to Enthalpy=                  0.196970
 Thermal correction to Gibbs Free Energy=         0.148906
 Sum of electronic and zero-point Energies=          -1028.622964
 Sum of electronic and thermal Energies=             -1028.612513
 Sum of electronic and thermal Enthalpies=           -1028.611569
 Sum of electronic and thermal Free Energies=        -1028.659633

                     E (Thermal)             CV                S
                      KCal/Mol        Cal/Mol-Kelvin    Cal/Mol-Kelvin
 Total                  123.008             44.289            101.159
 Electronic               0.000              0.000              0.000
 Translational            0.889              2.981             42.162
 Rotational               0.889              2.981             32.435
 Vibrational            121.231             38.327             26.562
 Vibration     1          0.597              1.971              4.322
 Vibration     2          0.618              1.902              2.661
 Vibration     3          0.621              1.895              2.586
 Vibration     4          0.638              1.840              2.136
 Vibration     5          0.659              1.775              1.785
 Vibration     6          0.685              1.696              1.485
 Vibration     7          0.711              1.620              1.270
 Vibration     8          0.762              1.481              0.982
 Vibration     9          0.795              1.397              0.846
 Vibration    10          0.798              1.387              0.833
 Vibration    11          0.817              1.341              0.769
 Vibration    12          0.875              1.206              0.610
 Vibration    13          0.891              1.169              0.573
 Vibration    14          0.922              1.104              0.511
 Vibration    15          0.931              1.085              0.495
 Vibration    16          0.934              1.080              0.490

 Optimization completed.
    -- Stationary point found.
 Normal termination of Gaussian 16 at Wed Oct 28 02:09:35 2020.
