 Gaussian 16, Revision C.01,
 Gaussian 16:  ES64L-G16RevC.01  3-Jul-2019

 ----------------------------------------------------------------------
 #p opt=addgic freq wb97xd/cc-pvdz nosymm int=ultrafine scrf=(solvent=C
 arbonTetraChloride)
 ----------------------------------------------------------------------

 ------------------------------------------------
 NM 2D-scan of HBT TD-WB97XD pVDZ in CTC Relaxed.
 ------------------------------------------------
 Symbolic Z-matrix:
 Charge =  0 Multiplicity = 1

 SCF Done:  E(RwB97XD) =  -1028.78756248     A.U. after   16 cycles
 SCF Done:  E(RwB97XD) =  -1028.80883248     A.U. after   14 cycles
 SCF Done:  E(RwB97XD) =  -1028.81100482     A.U. after   13 cycles
 SCF Done:  E(RwB97XD) =  -1028.81159003     A.U. after   12 cycles
 SCF Done:  E(RwB97XD) =  -1028.81163260     A.U. after   10 cycles
 SCF Done:  E(RwB97XD) =  -1028.81163949     A.U. after    9 cycles
 SCF Done:  E(RwB97XD) =  -1028.81163996     A.U. after    9 cycles
 Optimization completed.
    -- Stationary point found.
 Normal termination of Gaussian 16 at Wed Oct 28 00:14:58 2020.

 --------------------------------------------------------------------
 #P Geom=AllCheck Guess=TCheck SCRF=Check GenChk RwB97XD/CC-pVDZ Freq
 --------------------------------------------------------------------

 Structure from the checkpoint file:  "config_9_15.chk"
 ------------------------------------------------
 NM 2D-scan of HBT TD-WB97XD pVDZ in CTC Relaxed.
 ------------------------------------------------
 Charge =  0 Multiplicity = 1

                          Input orientation:
 ---------------------------------------------------------------------
 Center     Atomic      Atomic             Coordinates (Angstroms)
 Number     Number       Type             X           Y           Z
 ---------------------------------------------------------------------
      1          6           0        1.567342   -3.270334   -0.000069
      2          6           0        0.993957   -2.003231   -0.000035
      3          6           0        1.771863   -0.838561    0.000010
      4          6           0        3.165011   -0.928280    0.000023
      5          6           0        3.740434   -2.197620   -0.000013
      6          6           0        2.955376   -3.357455   -0.000059
      7          1           0        0.944784   -4.165336   -0.000102
      8          1           0        3.780238   -0.028188    0.000059
      9          1           0        4.827611   -2.285727   -0.000005
     10          1           0        3.434033   -4.337262   -0.000085
     11          7           0        0.976445    0.302529    0.000042
     12         16           0       -0.716302   -1.610787   -0.000029
     13          6           0       -1.320374    1.110125    0.000033
     14          6           0       -2.705053    0.776683    0.000055
     15          6           0       -0.870928    2.494751    0.000023
     16          6           0       -3.665759    1.748128    0.000064
     17          1           0       -3.003202   -0.275563    0.000071
     18          6           0       -1.937801    3.477635   -0.000002
     19          6           0       -3.257814    3.114013    0.000030
     20          1           0       -4.724185    1.488235    0.000086
     21          1           0       -1.639637    4.527649   -0.000048
     22          1           0       -4.025099    3.892510    0.000022
     23          6           0       -0.347952    0.093149    0.000016
     24          8           0        0.348287    2.808767   -0.000080
     25          1           0        1.245370    1.304528    0.000092
 ---------------------------------------------------------------------

 SCF Done:  E(RwB97XD) =  -1028.81163996     A.U. after    1 cycles

 Alpha  occ. eigenvalues --  -89.09779 -19.21648 -14.52027 -10.41168 -10.37374
 Alpha  occ. eigenvalues --  -10.36130 -10.35883 -10.33185 -10.32949 -10.32485
 Alpha  occ. eigenvalues --  -10.32260 -10.31209 -10.30795 -10.30402 -10.29211
 Alpha  occ. eigenvalues --  -10.28690  -8.11855  -6.06730  -6.06353  -6.05863
 Alpha  occ. eigenvalues --   -1.12836  -1.09744  -0.98537  -0.95478  -0.93235
 Alpha  occ. eigenvalues --   -0.89211  -0.86684  -0.83770  -0.81960  -0.75599
 Alpha  occ. eigenvalues --   -0.72933  -0.72120  -0.68927  -0.67966  -0.64796
 Alpha  occ. eigenvalues --   -0.60912  -0.59711  -0.56789  -0.55831  -0.55791
 Alpha  occ. eigenvalues --   -0.55017  -0.53856  -0.52991  -0.50187  -0.49680
 Alpha  occ. eigenvalues --   -0.49034  -0.48288  -0.46756  -0.45589  -0.44802
 Alpha  occ. eigenvalues --   -0.44482  -0.42990  -0.41901  -0.40448  -0.36797
 Alpha  occ. eigenvalues --   -0.33515  -0.31977  -0.31608  -0.26466
 Alpha virt. eigenvalues --   -0.01215   0.03843   0.05819   0.06936   0.09195
 Alpha virt. eigenvalues --    0.11201   0.14106   0.14806   0.16234   0.17425
 Alpha virt. eigenvalues --    0.18595   0.20039   0.20942   0.21542   0.22921

 Mulliken charges:
               1
     1  C    0.017681
     2  C   -0.232467
     3  C    0.253216
     4  C   -0.011145
     5  C    0.009032
     6  C    0.003973
     7  H    0.024287
     8  H    0.030162
     9  H    0.026719
    10  H    0.025797
    11  N   -0.145765
    12  S    0.182585
    13  C   -0.099824
    14  C   -0.017300
    15  C    0.105032
    16  C   -0.029658
    17  H    0.011711
    18  C   -0.023496
    19  C    0.026732
    20  H    0.002546
    21  H    0.002857
    22  H    0.014010
    23  C    0.073425
    24  O   -0.392788
    25  H    0.142677
 Sum of Mulliken charges =  -0.00000

 Dipole moment (field-independent basis, Debye):
    X=              1.6685    Y=             -5.2554    Z=              0.0002  Tot=              5.5139
 Quadrupole moment (field-independent basis, Debye-Ang):
   XX=            -81.7895   YY=            -95.6067   ZZ=           -104.0051
   XY=             -6.7967   XZ=              0.0002   YZ=              0.0009

  Exact polarizability:     285.878     -86.290     283.883      -0.001       0.002      62.851
 Approx polarizability:     265.243     -31.834     255.319      -0.001       0.001      81.911

                      1                      2                      3
                      A                      A                      A
 Frequencies --     55.7165                70.6154               107.5371
 Red. masses --      5.9067                 4.7184                 5.7211
 Frc consts  --      0.0108                 0.0139                 0.0390
 IR Inten    --      1.1574                 0.9629                 2.2089

                      4                      5                      6
                      A                      A                      A
 Frequencies --    136.4900               198.2011               230.0945
 Red. masses --      5.4633                 6.2458                 6.0140
 Frc consts  --      0.0600                 0.1446                 0.1876
 IR Inten    --      1.7007                 0.0005                 0.8406

                      7                      8                      9
                      A                      A                      A
 Frequencies --    265.0974               301.1372               308.8762
 Red. masses --      7.7625                 6.5453                 5.3894
 Frc consts  --      0.3214                 0.3497                 0.3029
 IR Inten    --      8.6308                 2.1937                 0.7112

                     10                     11                     12
                      A                      A                      A
 Frequencies --    407.5215               428.8008               449.2071
 Red. masses --      9.5268                 3.2644                 3.5281
 Frc consts  --      0.9322                 0.3536                 0.4195
 IR Inten    --      3.2699                 0.0223                10.3055

                     13                     14                     15
                      A                      A                      A
 Frequencies --    510.5198               525.4338               535.1564
 Red. masses --      8.5254                 2.7345                 7.1928
 Frc consts  --      1.3092                 0.4448                 1.2137
 IR Inten    --     11.0745                 5.5259                 6.6784

                     16                     17                     18
                      A                      A                      A
 Frequencies --    551.0676               561.7254               582.1220
 Red. masses --      6.8908                 3.8401                 7.0278
 Frc consts  --      1.2329                 0.7139                 1.4031
 IR Inten    --      7.5977                 0.0328                36.2145

                     19                     20                     21
                      A                      A                      A
 Frequencies --    635.2928               651.0222               721.0798
 Red. masses --      5.5279                 5.8551                 5.9408
 Frc consts  --      1.3145                 1.4621                 1.8200
 IR Inten    --      0.4972                 4.5200                42.5383

                     22                     23                     24
                      A                      A                      A
 Frequencies --    737.7528               751.2770               759.8397
 Red. masses --      7.9938                 2.6996                 1.4475
 Frc consts  --      2.5634                 0.8977                 0.4924
 IR Inten    --     67.8784                 5.8128                63.5219

                     25                     26                     27
                      A                      A                      A
 Frequencies --    774.1679               777.0357               835.4808
 Red. masses --      1.7085                 2.0219                 5.5975
 Frc consts  --      0.6033                 0.7193                 2.3021
 IR Inten    --     16.5079                40.3949                17.8153

                     28                     29                     30
                      A                      A                      A
 Frequencies --    851.2106               863.4022               879.4967
 Red. masses --      1.1248                 4.1238                 1.9843
 Frc consts  --      0.4802                 1.8112                 0.9043
 IR Inten    --     58.1487                 7.1875                35.6945

                     31                     32                     33
                      A                      A                      A
 Frequencies --    884.3086               964.0150               965.6782
 Red. masses --      1.3751                 4.6821                 1.3233
 Frc consts  --      0.6335                 2.5637                 0.7271
 IR Inten    --      0.0158                34.1306                 0.1135

                     34                     35                     36
                      A                      A                      A
 Frequencies --    970.8516              1013.8577              1018.5218
 Red. masses --      1.3604                 1.3038                 1.3077
 Frc consts  --      0.7555                 0.7896                 0.7993
 IR Inten    --      1.3066                 0.0201                 0.3909

                     37                     38                     39
                      A                      A                      A
 Frequencies --   1037.8998              1055.4394              1088.1053
 Red. masses --      2.1674                 2.0593                 3.5801
 Frc consts  --      1.3756                 1.3515                 2.4974
 IR Inten    --     15.9035                11.5419                25.9121

                     40                     41                     42
                      A                      A                      A
 Frequencies --   1136.1337              1160.7441              1163.4439
 Red. masses --      1.9387                 1.3879                 1.2144
 Frc consts  --      1.4744                 1.1017                 0.9685
 IR Inten    --     74.8873                 0.4907                69.2594

                     43                     44                     45
                      A                      A                      A
 Frequencies --   1179.9183              1197.8992              1250.4136
 Red. masses --      1.1480                 1.2924                 1.9693
 Frc consts  --      0.9417                 1.0927                 1.8142
 IR Inten    --     15.4903                21.4627                22.6147

                     46                     47                     48
                      A                      A                      A
 Frequencies --   1287.0621              1309.8169              1356.7243
 Red. masses --      1.6440                 2.6250                 3.3233
 Frc consts  --      1.6045                 2.6533                 3.6042
 IR Inten    --     21.4679               122.1726                12.2135

                     49                     50                     51
                      A                      A                      A
 Frequencies --   1380.1936              1400.0451              1419.6322
 Red. masses --      4.4104                 4.7758                 2.7067
 Frc consts  --      4.9501                 5.5155                 3.2139
 IR Inten    --    100.2831                38.4092                21.5744

                     52                     53                     54
                      A                      A                      A
 Frequencies --   1491.3990              1504.2666              1517.6136
 Red. masses --      2.6828                 2.7293                 3.2967
 Frc consts  --      3.5158                 3.6387                 4.4736
 IR Inten    --     12.8193               147.3251                43.0908

                     55                     56                     57
                      A                      A                      A
 Frequencies --   1568.7669              1602.4342              1635.1047
 Red. masses --      4.3095                 5.7927                 8.2351
 Frc consts  --      6.2488                 8.7637                12.9721
 IR Inten    --   1812.2427               149.6347               356.2372

                     58                     59                     60
                      A                      A                      A
 Frequencies --   1667.1652              1681.3932              1713.5901
 Red. masses --      7.0792                 7.0144                 6.8238
 Frc consts  --     11.5929                11.6837                11.8057
 IR Inten    --     30.8841                76.4785               324.7804

                     61                     62                     63
                      A                      A                      A
 Frequencies --   3186.6764              3195.9822              3215.4279
 Red. masses --      1.0886                 1.0880                 1.0863
 Frc consts  --      6.5129                 6.5476                 6.6171
 IR Inten    --      3.3530                15.7757                 1.2164

                     64                     65                     66
                      A                      A                      A
 Frequencies --   3220.7149              3225.1211              3233.9756
 Red. masses --      1.0950                 1.0907                 1.0964
 Frc consts  --      6.6925                 6.6843                 6.7562
 IR Inten    --     27.7583                 2.4818                 7.8612

                     67                     68                     69
                      A                      A                      A
 Frequencies --   3234.0024              3240.3450              3243.5064
 Red. masses --      1.0971                 1.0983                 1.0880
 Frc consts  --      6.7607                 6.7945                 6.7439
 IR Inten    --     11.4850                70.9081               203.6189

 - Thermochemistry -
 -------------------
 Temperature   298.150 Kelvin.  Pressure   1.00000 Atm.
 Atom     1 has atomic number  6 and mass  12.00000

 Molecular mass:   227.04049 amu.
 Principal axes and moments of inertia in atomic units:
                           1         2         3
     Eigenvalues --  1289.380396334.783417624.16379
           X           -0.70305   0.71114   0.00001
           Y            0.71114   0.70305  -0.00000
           Z            0.00001  -0.00000   1.00000
 This molecule is an asymmetric top.
 Rotational symmetry number  1.
 Warning -- assumption of classical behavior for rotation
           may cause significant error
 Rotational temperatures (Kelvin)      0.06717     0.01367     0.01136
 Rotational constants (GHZ):           1.39970     0.28489     0.23671
 Zero-point vibrational energy     496932.2 (Joules/Mol)
                                  118.76963 (Kcal/Mol)
 Warning -- explicit consideration of  18 degrees of freedom as
           vibrations may cause significant error
 Vibrational temperatures:     80.16   101.60   154.72   196.38   285.17
          (Kelvin)            331.05   381.42   433.27   444.40   586.33
                              616.95   646.31   734.52   755.98   769.97
                              792.86   808.20   837.54   914.04   936.68
                             1037.47  1061.46  1080.92  1093.24  1113.85
                             1117.98  1202.07  1224.70  1242.24  1265.40
                             1272.32  1387.00  1389.40  1396.84  1458.72
                             1465.43  1493.31  1518.54  1565.54  1634.64
                             1670.05  1673.94  1697.64  1723.51  1799.07
                             1851.80  1884.53  1952.02  1985.79  2014.35
                             2042.53  2145.79  2164.30  2183.51  2257.11
                             2305.55  2352.55  2398.68  2419.15  2465.47
                             4584.92  4598.31  4626.28  4633.89  4640.23
                             4652.97  4653.01  4662.13  4666.68

 Zero-point correction=                           0.189271 (Hartree/Particle)
 Thermal correction to Energy=                    0.201113
 Thermal correction to Enthalpy=                  0.202057
 Thermal correction to Gibbs Free Energy=         0.150644
 Sum of electronic and zero-point Energies=          -1028.622368
 Sum of electronic and thermal Energies=             -1028.610527
 Sum of electronic and thermal Enthalpies=           -1028.609583
 Sum of electronic and thermal Free Energies=        -1028.660996

                     E (Thermal)             CV                S
                      KCal/Mol        Cal/Mol-Kelvin    Cal/Mol-Kelvin
 Total                  126.200             48.098            108.207
 Electronic               0.000              0.000              0.000
 Translational            0.889              2.981             42.162
 Rotational               0.889              2.981             32.499
 Vibrational            124.423             42.137             33.547
 Vibration     1          0.596              1.975              4.603
 Vibration     2          0.598              1.968              4.136
 Vibration     3          0.606              1.943              3.313
 Vibration     4          0.614              1.917              2.853
 Vibration     5          0.637              1.842              2.150
 Vibration     6          0.652              1.795              1.878
 Vibration     7          0.671              1.737              1.628
 Vibration     8          0.693              1.672              1.411
 Vibration     9          0.698              1.657              1.368
 Vibration    10          0.772              1.454              0.935
 Vibration    11          0.790              1.408              0.863
 Vibration    12          0.808              1.363              0.798
 Vibration    13          0.866              1.227              0.632
 Vibration    14          0.880              1.194              0.597
 Vibration    15          0.890              1.172              0.576
 Vibration    16          0.906              1.137              0.542
 Vibration    17          0.917              1.114              0.520
 Vibration    18          0.939              1.070              0.481

 Optimization completed.
    -- Stationary point found.
 Normal termination of Gaussian 16 at Wed Oct 28 00:21:45 2020.
