 Gaussian 16, Revision C.01,
 Gaussian 16:  ES64L-G16RevC.01  3-Jul-2019

 ----------------------------------------------------------------------
 #p opt=addgic freq wb97xd/cc-pvdz nosymm int=ultrafine scrf=(solvent=C
 arbonTetraChloride)
 ----------------------------------------------------------------------

 ------------------------------------------------
 NM 2D-scan of HBT TD-WB97XD pVDZ in CTC Relaxed.
 ------------------------------------------------
 Symbolic Z-matrix:
 Charge =  0 Multiplicity = 1

 SCF Done:  E(RwB97XD) =  -1028.57877192     A.U. after   15 cycles
 SCF Done:  E(RwB97XD) =  -1028.76879896     A.U. after   13 cycles
 SCF Done:  E(RwB97XD) =  -1028.80328045     A.U. after   15 cycles
 SCF Done:  E(RwB97XD) =  -1028.81642006     A.U. after   13 cycles
 SCF Done:  E(RwB97XD) =  -1028.81778893     A.U. after   12 cycles
 SCF Done:  E(RwB97XD) =  -1028.81793085     A.U. after   11 cycles
 SCF Done:  E(RwB97XD) =  -1028.81794259     A.U. after    9 cycles
 SCF Done:  E(RwB97XD) =  -1028.81794348     A.U. after    8 cycles
 Optimization completed.
    -- Stationary point found.
 Normal termination of Gaussian 16 at Tue Oct 27 20:50:12 2020.

 --------------------------------------------------------------------
 #P Geom=AllCheck Guess=TCheck SCRF=Check GenChk RwB97XD/CC-pVDZ Freq
 --------------------------------------------------------------------

 Structure from the checkpoint file:  "config_2_2.chk"
 ------------------------------------------------
 NM 2D-scan of HBT TD-WB97XD pVDZ in CTC Relaxed.
 ------------------------------------------------
 Charge =  0 Multiplicity = 1

                          Input orientation:
 ---------------------------------------------------------------------
 Center     Atomic      Atomic             Coordinates (Angstroms)
 Number     Number       Type             X           Y           Z
 ---------------------------------------------------------------------
      1          6           0        1.763532   -3.324627   -0.000016
      2          6           0        0.972798   -2.161898   -0.000011
      3          6           0        1.619906   -0.912171   -0.000018
      4          6           0        3.011323   -0.780507   -0.000025
      5          6           0        3.782533   -1.923431   -0.000030
      6          6           0        3.153340   -3.181970   -0.000027
      7          1           0        1.317737   -4.319962   -0.000013
      8          1           0        3.442486    0.221038   -0.000029
      9          1           0        4.871266   -1.857311   -0.000037
     10          1           0        3.769234   -4.083071   -0.000032
     11          7           0        0.818475    0.190230   -0.000018
     12         16           0       -0.776203   -1.877793   -0.000003
     13          6           0       -1.393830    1.062501   -0.000005
     14          6           0       -2.803741    0.929910   -0.000018
     15          6           0       -0.884642    2.404085    0.000026
     16          6           0       -3.649465    2.028396    0.000010
     17          1           0       -3.236762   -0.073546   -0.000050
     18          6           0       -1.753697    3.500801    0.000070
     19          6           0       -3.117914    3.327205    0.000062
     20          1           0       -4.729522    1.879584   -0.000003
     21          1           0       -1.293070    4.488885    0.000107
     22          1           0       -3.777594    4.196626    0.000095
     23          6           0       -0.447810   -0.078855   -0.000010
     24          8           0        0.401974    2.805365    0.000035
     25          1           0        0.969249    2.024075    0.000038
 ---------------------------------------------------------------------

 SCF Done:  E(RwB97XD) =  -1028.81794348     A.U. after    1 cycles

 Alpha  occ. eigenvalues --  -89.08926 -19.28480 -14.46478 -10.39708 -10.37573
 Alpha  occ. eigenvalues --  -10.35134 -10.34409 -10.33192 -10.32565 -10.31914
 Alpha  occ. eigenvalues --  -10.31647 -10.31381 -10.31311 -10.31212 -10.30242
 Alpha  occ. eigenvalues --  -10.29849  -8.10754  -6.05634  -6.05280  -6.04785
 Alpha  occ. eigenvalues --   -1.16588  -1.08903  -0.97110  -0.95951  -0.90880
 Alpha  occ. eigenvalues --   -0.88439  -0.85173  -0.84383  -0.82882  -0.75447
 Alpha  occ. eigenvalues --   -0.71218  -0.70666  -0.69510  -0.67922  -0.62892
 Alpha  occ. eigenvalues --   -0.60104  -0.58525  -0.58277  -0.56287  -0.54421
 Alpha  occ. eigenvalues --   -0.53670  -0.53067  -0.52306  -0.50945  -0.50285
 Alpha  occ. eigenvalues --   -0.49193  -0.47795  -0.45713  -0.45195  -0.44855
 Alpha  occ. eigenvalues --   -0.43651  -0.42875  -0.42553  -0.39604  -0.37203
 Alpha  occ. eigenvalues --   -0.36075  -0.32096  -0.31657  -0.29030
 Alpha virt. eigenvalues --   -0.00410   0.04824   0.06797   0.07164   0.07189
 Alpha virt. eigenvalues --    0.11586   0.12271   0.15090   0.15681   0.17466
 Alpha virt. eigenvalues --    0.18985   0.20216   0.21705   0.22382   0.22806

 Mulliken charges:
               1
     1  C   -0.005419
     2  C   -0.211386
     3  C    0.233897
     4  C   -0.012378
     5  C    0.008776
     6  C   -0.003362
     7  H    0.021871
     8  H    0.015806
     9  H    0.018892
    10  H    0.021549
    11  N   -0.312968
    12  S    0.130639
    13  C   -0.076343
    14  C   -0.012932
    15  C    0.068907
    16  C   -0.008394
    17  H    0.008914
    18  C    0.021408
    19  C    0.018404
    20  H    0.010650
    21  H    0.016848
    22  H    0.017745
    23  C    0.066404
    24  O   -0.187647
    25  H    0.150121
 Sum of Mulliken charges =  -0.00000

 Dipole moment (field-independent basis, Debye):
    X=              0.2843    Y=             -1.9371    Z=              0.0000  Tot=              1.9579
 Quadrupole moment (field-independent basis, Debye-Ang):
   XX=            -82.5994   YY=            -89.7240   ZZ=           -104.3503
   XY=             -6.7597   XZ=             -0.0001   YZ=              0.0003

  Exact polarizability:     275.863     -64.549     257.538      -0.001       0.002      63.245
 Approx polarizability:     264.274     -21.876     244.525      -0.001       0.002      82.382

                      1                      2                      3
                      A                      A                      A
 Frequencies --     44.5845                47.1781               110.5207
 Red. masses --      5.4111                 6.1524                 5.6662
 Frc consts  --      0.0063                 0.0081                 0.0408
 IR Inten    --      0.0353                 1.1386                 0.7935

                      4                      5                      6
                      A                      A                      A
 Frequencies --    149.8453               199.9862               243.7313
 Red. masses --      4.7807                 5.5736                 5.8693
 Frc consts  --      0.0632                 0.1313                 0.2054
 IR Inten    --      0.0043                 0.1860                 0.2175

                      7                      8                      9
                      A                      A                      A
 Frequencies --    254.5233               286.0786               323.1313
 Red. masses --      8.4902                 6.1445                 4.9567
 Frc consts  --      0.3241                 0.2963                 0.3049
 IR Inten    --      3.8353                 4.6216                 0.9582

                     10                     11                     12
                      A                      A                      A
 Frequencies --    392.1215               440.9963               470.3224
 Red. masses --      8.4284                 3.1838                 3.7376
 Frc consts  --      0.7636                 0.3648                 0.4871
 IR Inten    --      0.2711                 1.8325                10.6624

                     13                     14                     15
                      A                      A                      A
 Frequencies --    485.2032               510.9669               539.6387
 Red. masses --      4.5358                 8.9467                 3.4507
 Frc consts  --      0.6292                 1.3763                 0.5921
 IR Inten    --      2.6663                 0.7200                 4.5105

                     16                     17                     18
                      A                      A                      A
 Frequencies --    545.4824               571.7867               586.0380
 Red. masses --      8.6876                 3.3559                 1.2354
 Frc consts  --      1.5230                 0.6464                 0.2500
 IR Inten    --      3.1780                 2.9170                68.9421

                     19                     20                     21
                      A                      A                      A
 Frequencies --    595.9001               653.6149               667.0345
 Red. masses --      7.7119                 4.0081                 8.2216
 Frc consts  --      1.6135                 1.0089                 2.1553
 IR Inten    --      6.5309                15.8736                62.7426

                     22                     23                     24
                      A                      A                      A
 Frequencies --    677.1986               712.9139               753.9368
 Red. masses --      6.8776                 7.2112                 1.9580
 Frc consts  --      1.8583                 2.1594                 0.6557
 IR Inten    --      0.8283                 2.1670                21.7614

                     25                     26                     27
                      A                      A                      A
 Frequencies --    766.1136               778.3685               787.5241
 Red. masses --      3.8248                 1.3069                 1.8951
 Frc consts  --      1.3227                 0.4665                 0.6925
 IR Inten    --      7.9241                60.6446                34.0368

                     28                     29                     30
                      A                      A                      A
 Frequencies --    833.0725               886.0379               886.8772
 Red. masses --      6.2476                 1.4615                 1.4979
 Frc consts  --      2.5546                 0.6760                 0.6942
 IR Inten    --     30.6602                 4.5183                 0.4789

                     31                     32                     33
                      A                      A                      A
 Frequencies --    893.9281               964.1620               974.5624
 Red. masses --      6.3809                 7.5971                 1.3527
 Frc consts  --      3.0043                 4.1610                 0.7570
 IR Inten    --      0.8692                80.8528                 1.7855

                     34                     35                     36
                      A                      A                      A
 Frequencies --    975.5278              1011.7324              1014.3739
 Red. masses --      1.3634                 1.2994                 1.3060
 Frc consts  --      0.7645                 0.7837                 0.7918
 IR Inten    --      0.8292                 0.2782                 0.0066

                     37                     38                     39
                      A                      A                      A
 Frequencies --   1048.8471              1069.3688              1085.7376
 Red. masses --      2.0758                 2.1010                 4.8233
 Frc consts  --      1.3454                 1.4156                 3.3500
 IR Inten    --      8.1919                18.6218                 5.4626

                     40                     41                     42
                      A                      A                      A
 Frequencies --   1138.3989              1148.8185              1175.8743
 Red. masses --      1.6616                 1.2607                 1.1146
 Frc consts  --      1.2687                 0.9803                 0.9080
 IR Inten    --     18.2124                 8.1811                53.9354

                     43                     44                     45
                      A                      A                      A
 Frequencies --   1182.4135              1215.8889              1270.0046
 Red. masses --      1.1823                 1.4678                 2.1593
 Frc consts  --      0.9739                 1.2785                 2.0520
 IR Inten    --      0.2243               185.2245                49.9441

                     46                     47                     48
                      A                      A                      A
 Frequencies --   1275.2661              1281.9128              1348.3411
 Red. masses --      2.7668                 2.1240                 2.5888
 Frc consts  --      2.6511                 2.0564                 2.7730
 IR Inten    --     25.1633                11.2504                10.9937

                     49                     50                     51
                      A                      A                      A
 Frequencies --   1361.0432              1378.7576              1388.9595
 Red. masses --      4.2067                 2.8771                 2.5626
 Frc consts  --      4.5913                 3.2224                 2.9128
 IR Inten    --     14.2838                 0.6995                93.0704

                     52                     53                     54
                      A                      A                      A
 Frequencies --   1488.5655              1492.4258              1513.7062
 Red. masses --      2.6013                 3.0864                 3.1139
 Frc consts  --      3.3960                 4.0503                 4.2038
 IR Inten    --     22.1922                25.2976               115.5961

                     55                     56                     57
                      A                      A                      A
 Frequencies --   1530.6675              1610.7301              1637.9534
 Red. masses --      3.1176                 8.5795                 6.0514
 Frc consts  --      4.3036                13.1146                 9.5656
 IR Inten    --     11.1500               182.0225                38.1655

                     58                     59                     60
                      A                      A                      A
 Frequencies --   1645.1264              1685.3769              1709.0184
 Red. masses --      6.8924                 6.8982                 6.6294
 Frc consts  --     10.9906                11.5447                11.4082
 IR Inten    --     70.5656                 1.5509                72.4231

                     61                     62                     63
                      A                      A                      A
 Frequencies --   3193.4411              3208.5429              3209.7002
 Red. masses --      1.0891                 1.0863                 1.0884
 Frc consts  --      6.5440                 6.5889                 6.6064
 IR Inten    --      3.7043                 0.4761                 5.4708

                     64                     65                     66
                      A                      A                      A
 Frequencies --   3220.4560              3228.3670              3228.8615
 Red. masses --      1.0898                 1.0958                 1.0941
 Frc consts  --      6.6594                 6.7289                 6.7204
 IR Inten    --      3.4032                14.6251                13.7180

                     67                     68                     69
                      A                      A                      A
 Frequencies --   3236.5907              3237.5468              3742.9559
 Red. masses --      1.0995                 1.1003                 1.0655
 Frc consts  --      6.7861                 6.7949                 8.7945
 IR Inten    --     16.1550                11.8966               484.9206

 - Thermochemistry -
 -------------------
 Temperature   298.150 Kelvin.  Pressure   1.00000 Atm.
 Atom     1 has atomic number  6 and mass  12.00000

 Molecular mass:   227.04049 amu.
 Principal axes and moments of inertia in atomic units:
                           1         2         3
     Eigenvalues --  1374.461766391.267387765.72914
           X           -0.69120   0.72266   0.00000
           Y            0.72266   0.69120  -0.00001
           Z            0.00001   0.00001   1.00000
 This molecule is an asymmetric top.
 Rotational symmetry number  1.
 Warning -- assumption of classical behavior for rotation
           may cause significant error
 Rotational temperatures (Kelvin)      0.06302     0.01355     0.01115
 Rotational constants (GHZ):           1.31305     0.28238     0.23240
 Zero-point vibrational energy     497794.1 (Joules/Mol)
                                  118.97565 (Kcal/Mol)
 Warning -- explicit consideration of  19 degrees of freedom as
           vibrations may cause significant error
 Vibrational temperatures:     64.15    67.88   159.01   215.59   287.74
          (Kelvin)            350.68   366.20   411.60   464.91   564.18
                              634.50   676.69   698.10   735.17   776.42
                              784.83   822.67   843.18   857.37   940.41
                              959.71   974.34  1025.72  1084.75  1102.27
                             1119.90  1133.07  1198.61  1274.81  1276.02
                             1286.16  1387.21  1402.18  1403.57  1455.66
                             1459.46  1509.06  1538.58  1562.13  1637.90
                             1652.89  1691.82  1701.23  1749.39  1827.25
                             1834.82  1844.39  1939.96  1958.24  1983.72
                             1998.40  2141.71  2147.27  2177.89  2202.29
                             2317.48  2356.65  2366.97  2424.88  2458.90
                             4594.65  4616.38  4618.04  4633.52  4644.90
                             4645.61  4656.73  4658.11  5385.28

 Zero-point correction=                           0.189600 (Hartree/Particle)
 Thermal correction to Energy=                    0.201577
 Thermal correction to Enthalpy=                  0.202522
 Thermal correction to Gibbs Free Energy=         0.150463
 Sum of electronic and zero-point Energies=          -1028.628344
 Sum of electronic and thermal Energies=             -1028.616366
 Sum of electronic and thermal Enthalpies=           -1028.615422
 Sum of electronic and thermal Free Energies=        -1028.667481

                     E (Thermal)             CV                S
                      KCal/Mol        Cal/Mol-Kelvin    Cal/Mol-Kelvin
 Total                  126.492             48.556            109.567
 Electronic               0.000              0.000              0.000
 Translational            0.889              2.981             42.162
 Rotational               0.889              2.981             32.589
 Vibrational            124.714             42.594             34.816
 Vibration     1          0.595              1.980              5.044
 Vibration     2          0.595              1.979              4.932
 Vibration     3          0.606              1.941              3.260
 Vibration     4          0.618              1.903              2.674
 Vibration     5          0.638              1.840              2.133
 Vibration     6          0.659              1.773              1.775
 Vibration     7          0.665              1.755              1.699
 Vibration     8          0.684              1.700              1.497
 Vibration     9          0.708              1.629              1.294
 Vibration    10          0.760              1.487              0.992
 Vibration    11          0.801              1.381              0.823
 Vibration    12          0.827              1.316              0.737
 Vibration    13          0.841              1.283              0.696
 Vibration    14          0.866              1.226              0.631
 Vibration    15          0.895              1.162              0.566
 Vibration    16          0.901              1.150              0.554
 Vibration    17          0.928              1.092              0.501
 Vibration    18          0.943              1.062              0.474
 Vibration    19          0.954              1.041              0.457

 Optimization completed.
    -- Stationary point found.
 Normal termination of Gaussian 16 at Tue Oct 27 20:56:06 2020.
