 Gaussian 16, Revision C.01,
 Gaussian 16:  ES64L-G16RevC.01  3-Jul-2019

 ----------------------------------------------------------------------
 #p opt=addgic freq wb97xd/cc-pvdz nosymm int=ultrafine scrf=(solvent=C
 arbonTetraChloride)
 ----------------------------------------------------------------------

 ------------------------------------------------
 NM 2D-scan of HBT TD-WB97XD pVDZ in CTC Relaxed.
 ------------------------------------------------
 Symbolic Z-matrix:
 Charge =  0 Multiplicity = 1

 SCF Done:  E(RwB97XD) =  -1028.80069374     A.U. after   15 cycles
 SCF Done:  E(RwB97XD) =  -1028.82832625     A.U. after   13 cycles
 SCF Done:  E(RwB97XD) =  -1028.83025698     A.U. after   12 cycles
 SCF Done:  E(RwB97XD) =  -1028.83048509     A.U. after   11 cycles
 SCF Done:  E(RwB97XD) =  -1028.83053161     A.U. after   10 cycles
 SCF Done:  E(RwB97XD) =  -1028.83053492     A.U. after    9 cycles
 Optimization completed.
    -- Stationary point found.
 Normal termination of Gaussian 16 at Tue Oct 27 23:45:52 2020.

 --------------------------------------------------------------------
 #P Geom=AllCheck Guess=TCheck SCRF=Check GenChk RwB97XD/CC-pVDZ Freq
 --------------------------------------------------------------------

 Structure from the checkpoint file:  "config_3_11.chk"
 ------------------------------------------------
 NM 2D-scan of HBT TD-WB97XD pVDZ in CTC Relaxed.
 ------------------------------------------------
 Charge =  0 Multiplicity = 1

                          Input orientation:
 ---------------------------------------------------------------------
 Center     Atomic      Atomic             Coordinates (Angstroms)
 Number     Number       Type             X           Y           Z
 ---------------------------------------------------------------------
      1          6           0        1.626989   -3.293975   -0.000012
      2          6           0        0.984036   -2.053826    0.000002
      3          6           0        1.714749   -0.852495   -0.000020
      4          6           0        3.114467   -0.880408   -0.000056
      5          6           0        3.754297   -2.110824   -0.000068
      6          6           0        3.017154   -3.306678   -0.000047
      7          1           0        1.058490   -4.224385    0.000002
      8          1           0        3.672628    0.056370   -0.000072
      9          1           0        4.844449   -2.151950   -0.000096
     10          1           0        3.542327   -4.262969   -0.000059
     11          7           0        0.939905    0.290203   -0.000002
     12         16           0       -0.730157   -1.691363    0.000033
     13          6           0       -1.341249    1.094489    0.000048
     14          6           0       -2.720537    0.824247    0.000028
     15          6           0       -0.902991    2.445975    0.000056
     16          6           0       -3.655577    1.846378   -0.000001
     17          1           0       -3.061179   -0.214106    0.000023
     18          6           0       -1.861411    3.472599    0.000020
     19          6           0       -3.214415    3.176304   -0.000009
     20          1           0       -4.720853    1.615589   -0.000023
     21          1           0       -1.503466    4.502787    0.000028
     22          1           0       -3.941008    3.991065   -0.000031
     23          6           0       -0.338788    0.030319    0.000041
     24          8           0        0.384176    2.792074    0.000126
     25          1           0        0.915694    1.949636    0.000198
 ---------------------------------------------------------------------

 SCF Done:  E(RwB97XD) =  -1028.83053492     A.U. after    1 cycles

 Alpha  occ. eigenvalues --  -89.08708 -19.27947 -14.46938 -10.39455 -10.37361
 Alpha  occ. eigenvalues --  -10.34905 -10.34823 -10.32353 -10.32312 -10.31870
 Alpha  occ. eigenvalues --  -10.31631 -10.31601 -10.31469 -10.31391 -10.30234
 Alpha  occ. eigenvalues --  -10.30086  -8.10731  -6.05585  -6.05229  -6.04779
 Alpha  occ. eigenvalues --   -1.16419  -1.08966  -0.97271  -0.96164  -0.91593
 Alpha  occ. eigenvalues --   -0.88579  -0.85381  -0.84543  -0.82947  -0.75492
 Alpha  occ. eigenvalues --   -0.71414  -0.70585  -0.69431  -0.68189  -0.63155
 Alpha  occ. eigenvalues --   -0.60506  -0.58788  -0.58404  -0.56403  -0.54509
 Alpha  occ. eigenvalues --   -0.54056  -0.53211  -0.52739  -0.50880  -0.50338
 Alpha  occ. eigenvalues --   -0.49336  -0.47646  -0.45914  -0.45387  -0.44996
 Alpha  occ. eigenvalues --   -0.43912  -0.42929  -0.42623  -0.39779  -0.37185
 Alpha  occ. eigenvalues --   -0.36198  -0.32123  -0.31706  -0.29074
 Alpha virt. eigenvalues --   -0.00461   0.04831   0.06839   0.07190   0.07737
 Alpha virt. eigenvalues --    0.11435   0.14097   0.15169   0.16450   0.17968
 Alpha virt. eigenvalues --    0.18938   0.20856   0.21689   0.22555   0.22764

 Mulliken charges:
               1
     1  C    0.009054
     2  C   -0.215377
     3  C    0.227447
     4  C   -0.014522
     5  C    0.005893
     6  C    0.000315
     7  H    0.019136
     8  H    0.018294
     9  H    0.019796
    10  H    0.021493
    11  N   -0.346801
    12  S    0.146027
    13  C   -0.058702
    14  C   -0.024139
    15  C    0.068006
    16  C   -0.006962
    17  H    0.014497
    18  C    0.009118
    19  C    0.020588
    20  H    0.009753
    21  H    0.016315
    22  H    0.018525
    23  C    0.084114
    24  O   -0.205405
    25  H    0.163537
 Sum of Mulliken charges =  -0.00000

 Dipole moment (field-independent basis, Debye):
    X=             -0.0172    Y=             -2.4948    Z=              0.0000  Tot=              2.4948
 Quadrupole moment (field-independent basis, Debye-Ang):
   XX=            -82.7341   YY=            -90.0487   ZZ=           -104.1105
   XY=             -7.1484   XZ=              0.0000   YZ=              0.0000

  Exact polarizability:     274.463     -66.897     255.341      -0.001       0.001      62.965
 Approx polarizability:     262.354     -22.992     242.484      -0.001       0.000      82.182

                      1                      2                      3
                      A                      A                      A
 Frequencies --     46.4976                60.3544               121.2100
 Red. masses --      5.6244                 5.6428                 5.6526
 Frc consts  --      0.0072                 0.0121                 0.0489
 IR Inten    --      0.1142                 1.1377                 1.3075

                      4                      5                      6
                      A                      A                      A
 Frequencies --    152.5078               198.7361               245.5894
 Red. masses --      5.0002                 5.9515                 5.7135
 Frc consts  --      0.0685                 0.1385                 0.2030
 IR Inten    --      0.0252                 0.6520                 0.0293

                      7                      8                      9
                      A                      A                      A
 Frequencies --    272.0870               312.8557               328.2252
 Red. masses --      7.6723                 6.4517                 5.1067
 Frc consts  --      0.3346                 0.3721                 0.3241
 IR Inten    --      0.9407                 6.9172                 0.1945

                     10                     11                     12
                      A                      A                      A
 Frequencies --    410.2498               438.1504               467.2142
 Red. masses --      9.5200                 3.1369                 3.6917
 Frc consts  --      0.9440                 0.3548                 0.4748
 IR Inten    --      0.1797                 2.0388                 7.9791

                     13                     14                     15
                      A                      A                      A
 Frequencies --    516.2346               520.3483               538.3222
 Red. masses --      8.5258                 5.0981                 3.4647
 Frc consts  --      1.3387                 0.8133                 0.5916
 IR Inten    --      0.5914                 8.1594                 3.6736

                     16                     17                     18
                      A                      A                      A
 Frequencies --    549.8236               575.1139               592.1362
 Red. masses --      8.1374                 3.7253                 7.6802
 Frc consts  --      1.4494                 0.7260                 1.5866
 IR Inten    --      2.3587                 0.0297                 5.4273

                     19                     20                     21
                      A                      A                      A
 Frequencies --    647.0800               680.4321               718.1841
 Red. masses --      6.0338                 6.5212                 7.0475
 Frc consts  --      1.4885                 1.7789                 2.1417
 IR Inten    --      0.0506                 5.2740                29.8246

                     22                     23                     24
                      A                      A                      A
 Frequencies --    737.5043               756.0453               763.6889
 Red. masses --      9.6286                 2.0026                 2.9661
 Frc consts  --      3.0856                 0.6744                 1.0192
 IR Inten    --     10.1167                30.0135                 1.6797

                     25                     26                     27
                      A                      A                      A
 Frequencies --    776.1985               786.9688               846.9733
 Red. masses --      1.3365                 1.9088                 5.9626
 Frc consts  --      0.4744                 0.6965                 2.5201
 IR Inten    --     65.2207                34.4000                19.7978

                     28                     29                     30
                      A                      A                      A
 Frequencies --    857.0032               884.4031               888.1421
 Red. masses --      1.1344                 1.5337                 1.4194
 Frc consts  --      0.4909                 0.7068                 0.6596
 IR Inten    --     76.9378                 3.1533                 2.5392

                     31                     32                     33
                      A                      A                      A
 Frequencies --    896.4743               970.9246               976.3740
 Red. masses --      6.5410                 1.3585                 1.3644
 Frc consts  --      3.0972                 0.7545                 0.7664
 IR Inten    --      2.4874                 1.0671                 1.7142

                     34                     35                     36
                      A                      A                      A
 Frequencies --    993.2949              1011.2381              1015.8244
 Red. masses --      7.6038                 1.3019                 1.3046
 Frc consts  --      4.4201                 0.7844                 0.7932
 IR Inten    --     57.2339                 0.3880                 0.0224

                     37                     38                     39
                      A                      A                      A
 Frequencies --   1052.3122              1069.5040              1099.5201
 Red. masses --      1.9996                 1.9519                 4.1599
 Frc consts  --      1.3046                 1.3155                 2.9630
 IR Inten    --      8.4468                10.9567                 6.0027

                     40                     41                     42
                      A                      A                      A
 Frequencies --   1149.8611              1153.8097              1175.3133
 Red. masses --      1.4774                 1.3146                 1.1246
 Frc consts  --      1.1509                 1.0311                 0.9153
 IR Inten    --      7.0835                 3.4851                42.2591

                     43                     44                     45
                      A                      A                      A
 Frequencies --   1185.1884              1253.4203              1285.3350
 Red. masses --      1.2030                 1.8790                 1.6130
 Frc consts  --      0.9956                 1.7392                 1.5701
 IR Inten    --      0.4390               115.9584                 4.1954

                     46                     47                     48
                      A                      A                      A
 Frequencies --   1289.6423              1337.0649              1344.4158
 Red. masses --      2.4411                 4.0132                 3.4957
 Frc consts  --      2.3921                 4.2271                 3.7227
 IR Inten    --    139.9025                32.5057                 0.2419

                     49                     50                     51
                      A                      A                      A
 Frequencies --   1373.1677              1378.7658              1473.3833
 Red. masses --      7.6864                 3.8468                 2.0238
 Frc consts  --      8.5392                 4.3086                 2.5885
 IR Inten    --     15.0112                17.3469                24.8444

                     52                     53                     54
                      A                      A                      A
 Frequencies --   1490.5026              1504.4485              1524.3816
 Red. masses --      2.6235                 2.9199                 3.8213
 Frc consts  --      3.4339                 3.8938                 5.2318
 IR Inten    --     42.6966                 5.2505               122.5506

                     55                     56                     57
                      A                      A                      A
 Frequencies --   1557.5516              1591.6335              1648.2787
 Red. masses --      2.1930                 6.0979                 6.7791
 Frc consts  --      3.1345                 9.1016                10.8513
 IR Inten    --    143.3332               172.2930                 5.6048

                     58                     59                     60
                      A                      A                      A
 Frequencies --   1668.2771              1680.3396              1709.2574
 Red. masses --      3.7915                 6.8602                 5.4465
 Frc consts  --      6.2173                11.4124                 9.3752
 IR Inten    --    148.5106                13.3593               130.0818

                     61                     62                     63
                      A                      A                      A
 Frequencies --   3198.3323              3203.1079              3210.8851
 Red. masses --      1.0840                 1.0747                 1.0877
 Frc consts  --      6.5330                 6.4967                 6.6072
 IR Inten    --    190.3058               764.5820                17.9718

                     64                     65                     66
                      A                      A                      A
 Frequencies --   3212.3642              3223.6197              3229.8775
 Red. masses --      1.0861                 1.0906                 1.0940
 Frc consts  --      6.6036                 6.6773                 6.7239
 IR Inten    --      1.9128                 2.4133                12.9081

                     67                     68                     69
                      A                      A                      A
 Frequencies --   3234.3442              3237.7173              3240.0826
 Red. masses --      1.0959                 1.0992                 1.0995
 Frc consts  --      6.7548                 6.7889                 6.8009
 IR Inten    --      8.0409                15.7385                11.6771

 - Thermochemistry -
 -------------------
 Temperature   298.150 Kelvin.  Pressure   1.00000 Atm.
 Atom     1 has atomic number  6 and mass  12.00000

 Molecular mass:   227.04049 amu.
 Principal axes and moments of inertia in atomic units:
                           1         2         3
     Eigenvalues --  1308.525606334.418677642.94426
           X           -0.69917   0.71496   0.00000
           Y            0.71496   0.69917  -0.00001
           Z            0.00001   0.00000   1.00000
 This molecule is an asymmetric top.
 Rotational symmetry number  1.
 Warning -- assumption of classical behavior for rotation
           may cause significant error
 Rotational temperatures (Kelvin)      0.06619     0.01367     0.01133
 Rotational constants (GHZ):           1.37922     0.28491     0.23613
 Zero-point vibrational energy     499668.9 (Joules/Mol)
                                  119.42373 (Kcal/Mol)
 Warning -- explicit consideration of  18 degrees of freedom as
           vibrations may cause significant error
 Vibrational temperatures:     66.90    86.84   174.39   219.42   285.94
          (Kelvin)            353.35   391.47   450.13   472.24   590.26
                              630.40   672.22   742.75   748.67   774.53
                              791.07   827.46   851.95   931.00   978.99
                             1033.31  1061.10  1087.78  1098.78  1116.78
                             1132.27  1218.61  1233.04  1272.46  1277.84
                             1289.83  1396.94  1404.78  1429.13  1454.95
                             1461.54  1514.04  1538.78  1581.96  1654.39
                             1660.07  1691.01  1705.22  1803.39  1849.31
                             1855.51  1923.74  1934.31  1975.68  1983.74
                             2119.87  2144.50  2164.57  2193.25  2240.97
                             2290.01  2371.51  2400.28  2417.63  2459.24
                             4601.69  4608.56  4619.75  4621.88  4638.07
                             4647.07  4653.50  4658.35  4661.76

 Zero-point correction=                           0.190314 (Hartree/Particle)
 Thermal correction to Energy=                    0.201974
 Thermal correction to Enthalpy=                  0.202919
 Thermal correction to Gibbs Free Energy=         0.151690
 Sum of electronic and zero-point Energies=          -1028.640221
 Sum of electronic and thermal Energies=             -1028.628560
 Sum of electronic and thermal Enthalpies=           -1028.627616
 Sum of electronic and thermal Free Energies=        -1028.678845

                     E (Thermal)             CV                S
                      KCal/Mol        Cal/Mol-Kelvin    Cal/Mol-Kelvin
 Total                  126.741             47.498            107.820
 Electronic               0.000              0.000              0.000
 Translational            0.889              2.981             42.162
 Rotational               0.889              2.981             32.516
 Vibrational            124.963             41.537             33.142
 Vibration     1          0.595              1.979              4.961
 Vibration     2          0.597              1.973              4.446
 Vibration     3          0.609              1.932              3.081
 Vibration     4          0.619              1.900              2.641
 Vibration     5          0.637              1.842              2.145
 Vibration     6          0.660              1.770              1.762
 Vibration     7          0.675              1.725              1.583
 Vibration     8          0.701              1.649              1.347
 Vibration     9          0.711              1.619              1.269
 Vibration    10          0.774              1.448              0.926
 Vibration    11          0.798              1.387              0.832
 Vibration    12          0.824              1.323              0.745
 Vibration    13          0.871              1.214              0.619
 Vibration    14          0.875              1.205              0.609
 Vibration    15          0.893              1.165              0.569
 Vibration    16          0.905              1.140              0.545
 Vibration    17          0.931              1.085              0.494
 Vibration    18          0.950              1.049              0.463

 Optimization completed.
    -- Stationary point found.
 Normal termination of Gaussian 16 at Tue Oct 27 23:52:21 2020.
