 Gaussian 16, Revision C.01,
 Gaussian 16:  ES64L-G16RevC.01  3-Jul-2019

 ----------------------------------------------------------------------
 #p opt=addgic freq wb97xd/cc-pvdz nosymm int=ultrafine scrf=(solvent=C
 arbonTetraChloride)
 ----------------------------------------------------------------------

 ------------------------------------------------
 NM 2D-scan of HBT TD-WB97XD pVDZ in CTC Relaxed.
 ------------------------------------------------
 Symbolic Z-matrix:
 Charge =  0 Multiplicity = 1

 SCF Done:  E(RwB97XD) =  -1028.80315936     A.U. after   16 cycles
 SCF Done:  E(RwB97XD) =  -1028.81093013     A.U. after   14 cycles
 SCF Done:  E(RwB97XD) =  -1028.81165222     A.U. after   13 cycles
 SCF Done:  E(RwB97XD) =  -1028.81196933     A.U. after   12 cycles
 SCF Done:  E(RwB97XD) =  -1028.81199761     A.U. after   11 cycles
 SCF Done:  E(RwB97XD) =  -1028.81200002     A.U. after   10 cycles
 SCF Done:  E(RwB97XD) =  -1028.81200009     A.U. after   10 cycles
 SCF Done:  E(RwB97XD) =  -1028.81200144     A.U. after    9 cycles
 Optimization completed.
    -- Stationary point found.
 Normal termination of Gaussian 16 at Wed Oct 28 00:36:26 2020.

 --------------------------------------------------------------------
 #P Geom=AllCheck Guess=TCheck SCRF=Check GenChk RwB97XD/CC-pVDZ Freq
 --------------------------------------------------------------------

 Structure from the checkpoint file:  "config_8_14.chk"
 ------------------------------------------------
 NM 2D-scan of HBT TD-WB97XD pVDZ in CTC Relaxed.
 ------------------------------------------------
 Charge =  0 Multiplicity = 1

                          Input orientation:
 ---------------------------------------------------------------------
 Center     Atomic      Atomic             Coordinates (Angstroms)
 Number     Number       Type             X           Y           Z
 ---------------------------------------------------------------------
      1          6           0        1.573771   -3.260903    0.000002
      2          6           0        0.991647   -1.996582   -0.000008
      3          6           0        1.758832   -0.818373   -0.000030
      4          6           0        3.153406   -0.905178   -0.000051
      5          6           0        3.737425   -2.169758   -0.000039
      6          6           0        2.961608   -3.337147   -0.000012
      7          1           0        0.957295   -4.160229    0.000019
      8          1           0        3.763336   -0.001577   -0.000071
      9          1           0        4.825259   -2.250140   -0.000052
     10          1           0        3.448585   -4.312938   -0.000005
     11          7           0        0.962608    0.326287   -0.000032
     12         16           0       -0.719027   -1.624703   -0.000004
     13          6           0       -1.325910    1.096420    0.000027
     14          6           0       -2.709871    0.775352    0.000010
     15          6           0       -0.863181    2.467687    0.000070
     16          6           0       -3.657082    1.761418    0.000008
     17          1           0       -3.018763   -0.273645   -0.000010
     18          6           0       -1.900685    3.465430    0.000060
     19          6           0       -3.228202    3.117643    0.000027
     20          1           0       -4.719394    1.518345   -0.000010
     21          1           0       -1.588041    4.510915    0.000090
     22          1           0       -3.982817    3.908183    0.000024
     23          6           0       -0.348296    0.078545    0.000002
     24          8           0        0.376066    2.764609    0.000142
     25          1           0        1.112723    1.410987   -0.000061
 ---------------------------------------------------------------------

 SCF Done:  E(RwB97XD) =  -1028.81200144     A.U. after    1 cycles

 Alpha  occ. eigenvalues --  -89.09739 -19.22219 -14.51349 -10.40884 -10.37251
 Alpha  occ. eigenvalues --  -10.36239 -10.35846 -10.33103 -10.32790 -10.32363
 Alpha  occ. eigenvalues --  -10.32211 -10.31321 -10.30898 -10.30523 -10.29314
 Alpha  occ. eigenvalues --  -10.28856  -8.11820  -6.06687  -6.06318  -6.05837
 Alpha  occ. eigenvalues --   -1.12728  -1.09687  -0.98363  -0.95522  -0.93148
 Alpha  occ. eigenvalues --   -0.89165  -0.86543  -0.83776  -0.82202  -0.75659
 Alpha  occ. eigenvalues --   -0.72172  -0.72032  -0.68724  -0.67951  -0.64504
 Alpha  occ. eigenvalues --   -0.60901  -0.59665  -0.56935  -0.55621  -0.55607
 Alpha  occ. eigenvalues --   -0.54928  -0.53769  -0.52931  -0.50369  -0.49842
 Alpha  occ. eigenvalues --   -0.49150  -0.48089  -0.46692  -0.45483  -0.44865
 Alpha  occ. eigenvalues --   -0.44446  -0.43116  -0.41864  -0.40544  -0.36678
 Alpha  occ. eigenvalues --   -0.33361  -0.32769  -0.31577  -0.26848
 Alpha virt. eigenvalues --   -0.01144   0.03948   0.05926   0.06947   0.08863
 Alpha virt. eigenvalues --    0.11095   0.14262   0.14843   0.16402   0.17574
 Alpha virt. eigenvalues --    0.18903   0.20328   0.21073   0.21612   0.23059

 Mulliken charges:
               1
     1  C    0.017951
     2  C   -0.228451
     3  C    0.263014
     4  C   -0.011516
     5  C    0.008163
     6  C    0.003967
     7  H    0.024069
     8  H    0.029759
     9  H    0.026017
    10  H    0.025510
    11  N   -0.192259
    12  S    0.183459
    13  C   -0.103729
    14  C   -0.017893
    15  C    0.114760
    16  C   -0.026434
    17  H    0.012173
    18  C   -0.016238
    19  C    0.025234
    20  H    0.003136
    21  H    0.004337
    22  H    0.014420
    23  C    0.069499
    24  O   -0.408941
    25  H    0.179991
 Sum of Mulliken charges =  -0.00000

 Dipole moment (field-independent basis, Debye):
    X=              1.3143    Y=             -5.0177    Z=             -0.0003  Tot=              5.1869
 Quadrupole moment (field-independent basis, Debye-Ang):
   XX=            -82.1713   YY=            -94.6746   ZZ=           -104.0069
   XY=             -7.0132   XZ=             -0.0004   YZ=             -0.0008

  Exact polarizability:     283.469     -82.646     278.912      -0.001       0.002      62.841
 Approx polarizability:     264.870     -30.033     254.619      -0.000       0.002      81.986

 ******    1 imaginary frequencies (negative Signs) ******

                      1                      2                      3
                      A                      A                      A
 Frequencies --   -112.4064                53.9503                77.4572
 Red. masses --      4.2637                 5.8670                 4.6872
 Frc consts  --      0.0317                 0.0101                 0.0166
 IR Inten    --     44.6226                 1.2028                 0.5800

                      4                      5                      6
                      A                      A                      A
 Frequencies --    145.4634               200.9627               205.2072
 Red. masses --      5.3064                 6.2500                 5.0358
 Frc consts  --      0.0662                 0.1487                 0.1249
 IR Inten    --      1.4646                 0.0414                22.6770

                      7                      8                      9
                      A                      A                      A
 Frequencies --    237.9328               290.4402               312.8318
 Red. masses --      6.2974                 6.4247                 5.3732
 Frc consts  --      0.2100                 0.3193                 0.3098
 IR Inten    --      0.8088                 0.6818                 0.5169

                     10                     11                     12
                      A                      A                      A
 Frequencies --    417.4016               430.7235               453.3229
 Red. masses --     10.6578                 3.1954                 3.5641
 Frc consts  --      1.0940                 0.3493                 0.4315
 IR Inten    --      1.9523                 0.2034                10.5393

                     13                     14                     15
                      A                      A                      A
 Frequencies --    492.2790               513.5421               530.9122
 Red. masses --      3.6511                 8.6684                 2.8762
 Frc consts  --      0.5213                 1.3469                 0.4777
 IR Inten    --     11.5134                11.2771                 4.7079

                     16                     17                     18
                      A                      A                      A
 Frequencies --    551.0723               563.7616               576.5712
 Red. masses --      8.4697                 3.7955                 6.5420
 Frc consts  --      1.5154                 0.7107                 1.2813
 IR Inten    --     12.6491                 0.0424                25.5631

                     19                     20                     21
                      A                      A                      A
 Frequencies --    621.3829               642.8966               719.0377
 Red. masses --      5.7713                 6.1869                 5.5405
 Frc consts  --      1.3129                 1.5066                 1.6877
 IR Inten    --      6.7112                 0.0465                 7.6197

                     22                     23                     24
                      A                      A                      A
 Frequencies --    729.5754               751.6409               762.4602
 Red. masses --      7.1817                 2.5919                 1.4504
 Frc consts  --      2.2522                 0.8628                 0.4968
 IR Inten    --     71.4177                11.5517                54.2604

                     25                     26                     27
                      A                      A                      A
 Frequencies --    776.5571               778.5896               787.0680
 Red. masses --      1.6917                 2.3117                 3.8465
 Frc consts  --      0.6011                 0.8256                 1.4039
 IR Inten    --     18.7044                40.3754                31.4166

                     28                     29                     30
                      A                      A                      A
 Frequencies --    852.2562               877.4925               884.3656
 Red. masses --      5.9226                 1.8456                 1.3783
 Frc consts  --      2.5345                 0.8373                 0.6351
 IR Inten    --     15.0754                 9.6576                 0.6766

                     31                     32                     33
                      A                      A                      A
 Frequencies --    950.0410               965.9190               971.4369
 Red. masses --      5.1006                 1.3283                 1.3615
 Frc consts  --      2.7124                 0.7302                 0.7570
 IR Inten    --     24.0193                 0.3284                 2.1356

                     34                     35                     36
                      A                      A                      A
 Frequencies --   1014.4422              1016.9378              1036.9642
 Red. masses --      1.3047                 1.3073                 2.9044
 Frc consts  --      0.7911                 0.7965                 1.8401
 IR Inten    --      0.0934                 0.0167                19.4981

                     37                     38                     39
                      A                      A                      A
 Frequencies --   1037.3967              1054.3912              1054.7610
 Red. masses --      1.0785                 2.3049                 2.4310
 Frc consts  --      0.6839                 1.5098                 1.5934
 IR Inten    --     78.5777                 9.2040                 4.0983

                     40                     41                     42
                      A                      A                      A
 Frequencies --   1117.0797              1161.9489              1163.3999
 Red. masses --      2.7979                 1.3842                 1.2994
 Frc consts  --      2.0571                 1.1011                 1.0362
 IR Inten    --     12.3100                 0.3672                31.2784

                     43                     44                     45
                      A                      A                      A
 Frequencies --   1179.5958              1190.1311              1252.9773
 Red. masses --      1.1485                 1.2347                 1.9239
 Frc consts  --      0.9415                 1.0304                 1.7796
 IR Inten    --     30.6122                 5.3153                19.2049

                     46                     47                     48
                      A                      A                      A
 Frequencies --   1288.4691              1324.7689              1355.4896
 Red. masses --      1.5844                 2.7263                 3.8260
 Frc consts  --      1.5497                 2.8191                 4.1418
 IR Inten    --     26.1800               156.3401                26.6954

                     49                     50                     51
                      A                      A                      A
 Frequencies --   1371.1068              1400.1407              1419.3518
 Red. masses --      4.7366                 3.9287                 3.5034
 Frc consts  --      5.2463                 4.5378                 4.1584
 IR Inten    --     27.3188                10.5432                55.7913

                     52                     53                     54
                      A                      A                      A
 Frequencies --   1491.5970              1501.3815              1514.1128
 Red. masses --      2.6685                 2.7247                 3.1976
 Frc consts  --      3.4980                 3.6187                 4.3191
 IR Inten    --     16.4393                37.7019                13.4902

                     55                     56                     57
                      A                      A                      A
 Frequencies --   1580.7048              1592.3371              1619.2029
 Red. masses --      4.7003                 4.5692                 8.5886
 Frc consts  --      6.9195                 6.8259                13.2671
 IR Inten    --   1786.8701               185.7224               469.4560

                     58                     59                     60
                      A                      A                      A
 Frequencies --   1656.5755              1679.9669              1711.0091
 Red. masses --      6.9484                 6.9288                 6.4438
 Frc consts  --     11.2346                11.5216                11.1147
 IR Inten    --     21.6246                25.7423               254.1103

                     61                     62                     63
                      A                      A                      A
 Frequencies --   2506.7671              3190.2894              3198.4819
 Red. masses --      1.1077                 1.0884                 1.0884
 Frc consts  --      4.1010                 6.5268                 6.5604
 IR Inten    --    552.1503                 2.7761                14.7153

                     64                     65                     66
                      A                      A                      A
 Frequencies --   3215.0728              3224.3862              3224.6909
 Red. masses --      1.0863                 1.0947                 1.0908
 Frc consts  --      6.6155                 6.7054                 6.6829
 IR Inten    --      1.1361                23.1380                 3.0381

                     67                     68                     69
                      A                      A                      A
 Frequencies --   3234.0736              3235.5943              3240.6556
 Red. masses --      1.0961                 1.0978                 1.0999
 Frc consts  --      6.7545                 6.7714                 6.8055
 IR Inten    --      5.7598                18.1339                10.7429

 - Thermochemistry -
 -------------------
 Temperature   298.150 Kelvin.  Pressure   1.00000 Atm.
 Atom     1 has atomic number  6 and mass  12.00000

 Molecular mass:   227.04049 amu.
 Principal axes and moments of inertia in atomic units:
                           1         2         3
     Eigenvalues --  1292.022726275.472727567.49543
           X           -0.70387   0.71033  -0.00000
           Y            0.71033   0.70387  -0.00002
           Z            0.00001   0.00001   1.00000
 This molecule is an asymmetric top.
 Rotational symmetry number  1.
 Warning -- assumption of classical behavior for rotation
           may cause significant error
 Rotational temperatures (Kelvin)      0.06704     0.01380     0.01145
 Rotational constants (GHZ):           1.39683     0.28759     0.23849
    1 imaginary frequencies ignored.
 Zero-point vibrational energy     491550.4 (Joules/Mol)
                                  117.48336 (Kcal/Mol)
 Warning -- explicit consideration of  17 degrees of freedom as
           vibrations may cause significant error
 Vibrational temperatures:     77.62   111.44   209.29   289.14   295.25
          (Kelvin)            342.33   417.88   450.10   600.55   619.72
                              652.23   708.28   738.87   763.86   792.87
                              811.13   829.56   894.03   924.98  1034.53
                             1049.70  1081.44  1097.01  1117.29  1120.22
                             1132.42  1226.21  1262.52  1272.40  1366.90
                             1389.74  1397.68  1459.56  1463.15  1491.96
                             1492.58  1517.03  1517.57  1607.23  1671.79
                             1673.87  1697.18  1712.33  1802.75  1853.82
                             1906.05  1950.25  1972.72  2014.49  2042.13
                             2146.08  2160.15  2178.47  2274.28  2291.02
                             2329.67  2383.44  2417.10  2461.76  3606.68
                             4590.11  4601.90  4625.77  4639.17  4639.61
                             4653.11  4655.30  4662.58

 Zero-point correction=                           0.187222 (Hartree/Particle)
 Thermal correction to Energy=                    0.198413
 Thermal correction to Enthalpy=                  0.199358
 Thermal correction to Gibbs Free Energy=         0.149419
 Sum of electronic and zero-point Energies=          -1028.624780
 Sum of electronic and thermal Energies=             -1028.613588
 Sum of electronic and thermal Enthalpies=           -1028.612644
 Sum of electronic and thermal Free Energies=        -1028.662582

                     E (Thermal)             CV                S
                      KCal/Mol        Cal/Mol-Kelvin    Cal/Mol-Kelvin
 Total                  124.506             46.273            105.104
 Electronic               0.000              0.000              0.000
 Translational            0.889              2.981             42.162
 Rotational               0.889              2.981             32.484
 Vibrational            122.729             40.311             30.458
 Vibration     1          0.596              1.976              4.667
 Vibration     2          0.599              1.964              3.954
 Vibration     3          0.617              1.908              2.731
 Vibration     4          0.638              1.839              2.124
 Vibration     5          0.640              1.832              2.086
 Vibration     6          0.656              1.783              1.818
 Vibration     7          0.686              1.692              1.471
 Vibration     8          0.701              1.649              1.347
 Vibration     9          0.780              1.432              0.901
 Vibration    10          0.792              1.403              0.856
 Vibration    11          0.812              1.354              0.786
 Vibration    12          0.848              1.267              0.678
 Vibration    13          0.869              1.220              0.625
 Vibration    14          0.886              1.182              0.585
 Vibration    15          0.906              1.137              0.542
 Vibration    16          0.920              1.110              0.516
 Vibration    17          0.933              1.082              0.492

 Optimization completed.
    -- Stationary point found.
 Normal termination of Gaussian 16 at Wed Oct 28 00:42:32 2020.
