 Gaussian 16, Revision C.01,
 Gaussian 16:  ES64L-G16RevC.01  3-Jul-2019

 ----------------------------------------------------------------------
 #p opt=addgic freq wb97xd/cc-pvdz nosymm int=ultrafine scrf=(solvent=C
 arbonTetraChloride)
 ----------------------------------------------------------------------

 ------------------------------------------------
 NM 2D-scan of HBT TD-WB97XD pVDZ in CTC Relaxed.
 ------------------------------------------------
 Symbolic Z-matrix:
 Charge =  0 Multiplicity = 1

 SCF Done:  E(RwB97XD) =  -1028.73550166     A.U. after   15 cycles
 SCF Done:  E(RwB97XD) =  -1028.81763001     A.U. after   13 cycles
 SCF Done:  E(RwB97XD) =  -1028.81973245     A.U. after   13 cycles
 SCF Done:  E(RwB97XD) =  -1028.83008103     A.U. after   13 cycles
 SCF Done:  E(RwB97XD) =  -1028.83019216     A.U. after   11 cycles
 SCF Done:  E(RwB97XD) =  -1028.83020873     A.U. after   10 cycles
 SCF Done:  E(RwB97XD) =  -1028.83020991     A.U. after    9 cycles
 SCF Done:  E(RwB97XD) =  -1028.83021013     A.U. after    7 cycles
 SCF Done:  E(RwB97XD) =  -1028.83021018     A.U. after    6 cycles
 Optimization completed.
    -- Stationary point found.
 Normal termination of Gaussian 16 at Tue Oct 27 23:19:45 2020.

 --------------------------------------------------------------------
 #P Geom=AllCheck Guess=TCheck SCRF=Check GenChk RwB97XD/CC-pVDZ Freq
 --------------------------------------------------------------------

 Structure from the checkpoint file:  "config_2_11.chk"
 ------------------------------------------------
 NM 2D-scan of HBT TD-WB97XD pVDZ in CTC Relaxed.
 ------------------------------------------------
 Charge =  0 Multiplicity = 1

                          Input orientation:
 ---------------------------------------------------------------------
 Center     Atomic      Atomic             Coordinates (Angstroms)
 Number     Number       Type             X           Y           Z
 ---------------------------------------------------------------------
      1          6           0        1.631003   -3.308784   -0.000067
      2          6           0        0.975999   -2.073056   -0.000044
      3          6           0        1.706033   -0.869580    0.000026
      4          6           0        3.105417   -0.887302    0.000080
      5          6           0        3.754882   -2.110857    0.000055
      6          6           0        3.022372   -3.310152   -0.000019
      7          1           0        1.072654   -4.245389   -0.000117
      8          1           0        3.652689    0.055874    0.000134
      9          1           0        4.845230   -2.145912    0.000093
     10          1           0        3.553009   -4.263533   -0.000035
     11          7           0        0.944326    0.279757    0.000030
     12         16           0       -0.738026   -1.703976   -0.000065
     13          6           0       -1.333052    1.099994   -0.000036
     14          6           0       -2.715543    0.830358   -0.000013
     15          6           0       -0.911267    2.457861   -0.000015
     16          6           0       -3.654002    1.848157    0.000077
     17          1           0       -3.054773   -0.208450   -0.000038
     18          6           0       -1.871245    3.479857    0.000085
     19          6           0       -3.221416    3.181406    0.000137
     20          1           0       -4.718090    1.611929    0.000110
     21          1           0       -1.511682    4.509363    0.000093
     22          1           0       -3.951310    3.993038    0.000206
     23          6           0       -0.333388    0.028758   -0.000050
     24          8           0        0.368589    2.851448   -0.000173
     25          1           0        0.930566    2.046008   -0.000342
 ---------------------------------------------------------------------

 SCF Done:  E(RwB97XD) =  -1028.83021018     A.U. after    1 cycles

 Alpha  occ. eigenvalues --  -89.08633 -19.28430 -14.46826 -10.39418 -10.37495
 Alpha  occ. eigenvalues --  -10.34824 -10.34727 -10.32539 -10.32329 -10.31909
 Alpha  occ. eigenvalues --  -10.31558 -10.31500 -10.31404 -10.31383 -10.30296
 Alpha  occ. eigenvalues --  -10.30116  -8.10624  -6.05482  -6.05128  -6.04671
 Alpha  occ. eigenvalues --   -1.16643  -1.08830  -0.97229  -0.96154  -0.91407
 Alpha  occ. eigenvalues --   -0.88538  -0.85339  -0.84589  -0.82880  -0.75460
 Alpha  occ. eigenvalues --   -0.71403  -0.70620  -0.69441  -0.68150  -0.63113
 Alpha  occ. eigenvalues --   -0.60344  -0.58688  -0.58434  -0.56452  -0.54506
 Alpha  occ. eigenvalues --   -0.53881  -0.53137  -0.52717  -0.50823  -0.50405
 Alpha  occ. eigenvalues --   -0.49229  -0.47785  -0.45838  -0.45359  -0.44969
 Alpha  occ. eigenvalues --   -0.43886  -0.42991  -0.42517  -0.39687  -0.37373
 Alpha  occ. eigenvalues --   -0.36171  -0.32036  -0.31741  -0.29141
 Alpha virt. eigenvalues --   -0.00427   0.04886   0.06797   0.07145   0.07706
 Alpha virt. eigenvalues --    0.11528   0.13912   0.15176   0.16332   0.17917
 Alpha virt. eigenvalues --    0.18905   0.20635   0.21658   0.22519   0.22833

 Mulliken charges:
               1
     1  C    0.006242
     2  C   -0.210627
     3  C    0.219427
     4  C   -0.014225
     5  C    0.006166
     6  C   -0.000605
     7  H    0.019162
     8  H    0.016726
     9  H    0.019163
    10  H    0.021173
    11  N   -0.338098
    12  S    0.139827
    13  C   -0.053632
    14  C   -0.023765
    15  C    0.061361
    16  C   -0.005510
    17  H    0.014958
    18  C    0.014122
    19  C    0.020104
    20  H    0.010180
    21  H    0.017141
    22  H    0.018687
    23  C    0.079607
    24  O   -0.195146
    25  H    0.157558
 Sum of Mulliken charges =  -0.00000

 Dipole moment (field-independent basis, Debye):
    X=             -0.0478    Y=             -2.2537    Z=             -0.0002  Tot=              2.2542
 Quadrupole moment (field-independent basis, Debye-Ang):
   XX=            -82.7095   YY=            -89.8785   ZZ=           -104.1645
   XY=             -7.0206   XZ=             -0.0005   YZ=              0.0004

  Exact polarizability:     274.353     -66.297     255.424      -0.001       0.004      63.009
 Approx polarizability:     262.447     -22.651     242.703      -0.000       0.004      82.198

                      1                      2                      3
                      A                      A                      A
 Frequencies --     51.5622                59.3545               114.5328
 Red. masses --      6.1767                 5.1432                 5.6509
 Frc consts  --      0.0097                 0.0107                 0.0437
 IR Inten    --      0.5067                 0.6558                 1.2353

                      4                      5                      6
                      A                      A                      A
 Frequencies --    151.8605               199.2825               246.0492
 Red. masses --      4.9692                 5.9168                 5.7350
 Frc consts  --      0.0675                 0.1384                 0.2046
 IR Inten    --      0.0018                 0.6101                 0.0269

                      7                      8                      9
                      A                      A                      A
 Frequencies --    264.8384               295.5136               327.7979
 Red. masses --      8.0556                 6.2649                 5.0822
 Frc consts  --      0.3329                 0.3223                 0.3217
 IR Inten    --      2.3502                 6.3639                 0.2361

                     10                     11                     12
                      A                      A                      A
 Frequencies --    406.0164               439.1227               469.2381
 Red. masses --      8.9074                 3.1509                 3.7302
 Frc consts  --      0.8651                 0.3580                 0.4839
 IR Inten    --      0.2049                 2.0254                 8.0928

                     13                     14                     15
                      A                      A                      A
 Frequencies --    505.2085               515.8271               538.4070
 Red. masses --      4.8405                 8.6107                 3.4524
 Frc consts  --      0.7279                 1.3499                 0.5897
 IR Inten    --      6.4576                 0.0427                 3.8486

                     16                     17                     18
                      A                      A                      A
 Frequencies --    546.9183               574.8230               592.5733
 Red. masses --      8.4806                 3.7327                 7.7096
 Frc consts  --      1.4946                 0.7267                 1.5950
 IR Inten    --      2.2762                 0.0166                 6.0993

                     19                     20                     21
                      A                      A                      A
 Frequencies --    644.4242               677.6643               709.8320
 Red. masses --      5.2072                 6.5764                 8.1611
 Frc consts  --      1.2741                 1.7794                 2.4227
 IR Inten    --      1.2890                 4.4700                40.7010

                     22                     23                     24
                      A                      A                      A
 Frequencies --    728.2825               737.0709               756.4016
 Red. masses --      8.0504                 1.3330                 1.9242
 Frc consts  --      2.5158                 0.4267                 0.6487
 IR Inten    --      2.4432                69.7241                19.1226

                     25                     26                     27
                      A                      A                      A
 Frequencies --    774.1933               781.4488               790.2491
 Red. masses --      1.8946                 1.5611                 1.8874
 Frc consts  --      0.6691                 0.5617                 0.6944
 IR Inten    --     58.6074                13.7289                51.5713

                     28                     29                     30
                      A                      A                      A
 Frequencies --    843.6046               885.0891               888.4557
 Red. masses --      6.0001                 1.5380                 1.4249
 Frc consts  --      2.5158                 0.7099                 0.6627
 IR Inten    --     22.3623                 3.8455                 0.9167

                     31                     32                     33
                      A                      A                      A
 Frequencies --    892.4050               972.1183               976.7312
 Red. masses --      6.4722                 1.3573                 1.3646
 Frc consts  --      3.0369                 0.7557                 0.7670
 IR Inten    --      3.0705                 1.1499                 1.5729

                     34                     35                     36
                      A                      A                      A
 Frequencies --    985.2474              1011.5751              1015.7216
 Red. masses --      7.6380                 1.3019                 1.3045
 Frc consts  --      4.3684                 0.7849                 0.7929
 IR Inten    --     62.9115                 0.3458                 0.0156

                     37                     38                     39
                      A                      A                      A
 Frequencies --   1051.9816              1070.5848              1098.0614
 Red. masses --      2.0047                 1.9867                 4.3435
 Frc consts  --      1.3071                 1.3416                 3.0856
 IR Inten    --      8.3176                12.6650                 6.1753

                     40                     41                     42
                      A                      A                      A
 Frequencies --   1148.6055              1152.4328              1176.1756
 Red. masses --      1.5074                 1.3036                 1.1252
 Frc consts  --      1.1717                 1.0201                 0.9171
 IR Inten    --      5.0505                 4.2712                43.4714

                     43                     44                     45
                      A                      A                      A
 Frequencies --   1185.1227              1242.9862              1281.9595
 Red. masses --      1.2015                 1.7867                 2.2279
 Frc consts  --      0.9943                 1.6264                 2.1572
 IR Inten    --      0.3765               151.6290                88.1227

                     46                     47                     48
                      A                      A                      A
 Frequencies --   1284.4215              1325.6641              1343.9734
 Red. masses --      1.6086                 5.0840                 3.0245
 Frc consts  --      1.5636                 5.2640                 3.2188
 IR Inten    --     17.3599                28.8778                 6.5096

                     49                     50                     51
                      A                      A                      A
 Frequencies --   1370.0221              1377.2776              1440.9160
 Red. masses --      7.8384                 3.4657                 1.6738
 Frc consts  --      8.6683                 3.8733                 2.0475
 IR Inten    --     16.1271                12.8586                66.7325

                     52                     53                     54
                      A                      A                      A
 Frequencies --   1489.8080              1502.4299              1521.2940
 Red. masses --      2.6446                 2.9231                 3.6345
 Frc consts  --      3.4584                 3.8876                 4.9559
 IR Inten    --     37.0567                 3.7732                95.5958

                     55                     56                     57
                      A                      A                      A
 Frequencies --   1538.0243              1596.1751              1645.3539
 Red. masses --      2.4977                 8.0481                 6.6982
 Frc consts  --      3.4811                12.0810                10.6839
 IR Inten    --    111.0711               198.5115                 6.9095

                     58                     59                     60
                      A                      A                      A
 Frequencies --   1657.2589              1681.8163              1708.8534
 Red. masses --      5.0475                 6.8953                 6.2328
 Frc consts  --      8.1679                11.4911                10.7236
 IR Inten    --    116.6250                 6.1148               108.3753

                     61                     62                     63
                      A                      A                      A
 Frequencies --   3199.9763              3211.8175              3211.9807
 Red. masses --      1.0886                 1.0862                 1.0885
 Frc consts  --      6.5679                 6.6015                 6.6165
 IR Inten    --      3.3202                 1.4158                 6.9608

                     64                     65                     66
                      A                      A                      A
 Frequencies --   3223.2117              3230.6402              3234.0636
 Red. masses --      1.0906                 1.0940                 1.0959
 Frc consts  --      6.6756                 6.7276                 6.7534
 IR Inten    --      5.3564                10.6707                11.6051

                     67                     68                     69
                      A                      A                      A
 Frequencies --   3238.2288              3239.8308              3453.0084
 Red. masses --      1.0994                 1.0995                 1.0676
 Frc consts  --      6.7926                 6.7997                 7.5002
 IR Inten    --     17.7425                12.7042               683.5962

 - Thermochemistry -
 -------------------
 Temperature   298.150 Kelvin.  Pressure   1.00000 Atm.
 Atom     1 has atomic number  6 and mass  12.00000

 Molecular mass:   227.04049 amu.
 Principal axes and moments of inertia in atomic units:
                           1         2         3
     Eigenvalues --  1320.437836366.338997686.77681
           X           -0.69613   0.71792   0.00000
           Y            0.71792   0.69613  -0.00001
           Z            0.00001   0.00000   1.00000
 This molecule is an asymmetric top.
 Rotational symmetry number  1.
 Warning -- assumption of classical behavior for rotation
           may cause significant error
 Rotational temperatures (Kelvin)      0.06559     0.01360     0.01127
 Rotational constants (GHZ):           1.36677     0.28348     0.23479
 Zero-point vibrational energy     499461.2 (Joules/Mol)
                                  119.37410 (Kcal/Mol)
 Warning -- explicit consideration of  18 degrees of freedom as
           vibrations may cause significant error
 Vibrational temperatures:     74.19    85.40   164.79   218.49   286.72
          (Kelvin)            354.01   381.04   425.18   471.63   584.17
                              631.80   675.13   726.88   742.16   774.65
                              786.89   827.04   852.58   927.18   975.01
                             1021.29  1047.84  1060.48  1088.29  1113.89
                             1124.33  1136.99  1213.76  1273.45  1278.29
                             1283.97  1398.66  1405.30  1417.55  1455.43
                             1461.40  1513.57  1540.33  1579.87  1652.59
                             1658.09  1692.25  1705.13  1788.38  1844.45
                             1848.00  1907.33  1933.68  1971.16  1981.60
                             2073.16  2143.50  2161.66  2188.80  2212.87
                             2296.54  2367.30  2384.43  2419.76  2458.66
                             4604.05  4621.09  4621.32  4637.48  4648.17
                             4653.10  4659.09  4661.39  4968.11

 Zero-point correction=                           0.190235 (Hartree/Particle)
 Thermal correction to Energy=                    0.201988
 Thermal correction to Enthalpy=                  0.202933
 Thermal correction to Gibbs Free Energy=         0.151574
 Sum of electronic and zero-point Energies=          -1028.639975
 Sum of electronic and thermal Energies=             -1028.628222
 Sum of electronic and thermal Enthalpies=           -1028.627278
 Sum of electronic and thermal Free Energies=        -1028.678636

                     E (Thermal)             CV                S
                      KCal/Mol        Cal/Mol-Kelvin    Cal/Mol-Kelvin
 Total                  126.750             47.852            108.093
 Electronic               0.000              0.000              0.000
 Translational            0.889              2.981             42.162
 Rotational               0.889              2.981             32.535
 Vibrational            124.972             41.891             33.395
 Vibration     1          0.596              1.977              4.757
 Vibration     2          0.597              1.974              4.479
 Vibration     3          0.607              1.937              3.191
 Vibration     4          0.619              1.901              2.649
 Vibration     5          0.637              1.841              2.140
 Vibration     6          0.661              1.769              1.759
 Vibration     7          0.671              1.737              1.630
 Vibration     8          0.690              1.682              1.442
 Vibration     9          0.711              1.620              1.271
 Vibration    10          0.771              1.457              0.941
 Vibration    11          0.799              1.385              0.829
 Vibration    12          0.826              1.318              0.740
 Vibration    13          0.860              1.238              0.645
 Vibration    14          0.871              1.215              0.620
 Vibration    15          0.893              1.165              0.569
 Vibration    16          0.902              1.146              0.551
 Vibration    17          0.931              1.086              0.495
 Vibration    18          0.950              1.048              0.463

 Optimization completed.
    -- Stationary point found.
 Normal termination of Gaussian 16 at Tue Oct 27 23:25:40 2020.
