 Gaussian 16, Revision C.01,
 Gaussian 16:  ES64L-G16RevC.01  3-Jul-2019

 ----------------------------------------------------------------------
 #p opt=addgic freq wb97xd/cc-pvdz nosymm int=ultrafine scrf=(solvent=C
 arbonTetraChloride)
 ----------------------------------------------------------------------

 ------------------------------------------------
 NM 2D-scan of HBT TD-WB97XD pVDZ in CTC Relaxed.
 ------------------------------------------------
 Symbolic Z-matrix:
 Charge =  0 Multiplicity = 1

 SCF Done:  E(RwB97XD) =  -1028.60299074     A.U. after   15 cycles
 SCF Done:  E(RwB97XD) =  -1028.77708111     A.U. after   13 cycles
 SCF Done:  E(RwB97XD) =  -1028.80400223     A.U. after   15 cycles
 SCF Done:  E(RwB97XD) =  -1028.81856776     A.U. after   13 cycles
 SCF Done:  E(RwB97XD) =  -1028.81988303     A.U. after   12 cycles
 SCF Done:  E(RwB97XD) =  -1028.82002474     A.U. after   11 cycles
 SCF Done:  E(RwB97XD) =  -1028.82003741     A.U. after    9 cycles
 SCF Done:  E(RwB97XD) =  -1028.82003834     A.U. after    8 cycles
 Optimization completed.
    -- Stationary point found.
 Normal termination of Gaussian 16 at Tue Oct 27 21:07:09 2020.

 --------------------------------------------------------------------
 #P Geom=AllCheck Guess=TCheck SCRF=Check GenChk RwB97XD/CC-pVDZ Freq
 --------------------------------------------------------------------

 Structure from the checkpoint file:  "config_2_3.chk"
 ------------------------------------------------
 NM 2D-scan of HBT TD-WB97XD pVDZ in CTC Relaxed.
 ------------------------------------------------
 Charge =  0 Multiplicity = 1

                          Input orientation:
 ---------------------------------------------------------------------
 Center     Atomic      Atomic             Coordinates (Angstroms)
 Number     Number       Type             X           Y           Z
 ---------------------------------------------------------------------
      1          6           0        1.748776   -3.323595   -0.000009
      2          6           0        0.972729   -2.152109   -0.000014
      3          6           0        1.629311   -0.907297   -0.000027
      4          6           0        3.022278   -0.791940   -0.000034
      5          6           0        3.780374   -1.944354   -0.000030
      6          6           0        3.139453   -3.196742   -0.000018
      7          1           0        1.290302   -4.313119   -0.000002
      8          1           0        3.466392    0.203925   -0.000042
      9          1           0        4.869748   -1.889470   -0.000036
     10          1           0        3.746203   -4.103971   -0.000016
     11          7           0        0.832485    0.200345   -0.000030
     12         16           0       -0.772586   -1.857847   -0.000019
     13          6           0       -1.387001    1.066410   -0.000007
     14          6           0       -2.794482    0.918517   -0.000018
     15          6           0       -0.887446    2.410071    0.000028
     16          6           0       -3.650701    2.008535    0.000012
     17          1           0       -3.217116   -0.089378   -0.000051
     18          6           0       -1.766631    3.498889    0.000072
     19          6           0       -3.129813    3.311480    0.000064
     20          1           0       -4.729357    1.850136    0.000000
     21          1           0       -1.316726    4.491942    0.000110
     22          1           0       -3.797479    4.174805    0.000098
     23          6           0       -0.435131   -0.067039   -0.000019
     24          8           0        0.398250    2.810552    0.000042
     25          1           0        0.964373    2.026286    0.000042
 ---------------------------------------------------------------------

 SCF Done:  E(RwB97XD) =  -1028.82003834     A.U. after    1 cycles

 Alpha  occ. eigenvalues --  -89.08901 -19.28473 -14.46513 -10.39671 -10.37562
 Alpha  occ. eigenvalues --  -10.35100 -10.34440 -10.33113 -10.32539 -10.31916
 Alpha  occ. eigenvalues --  -10.31635 -10.31385 -10.31322 -10.31234 -10.30248
 Alpha  occ. eigenvalues --  -10.29876  -8.10747  -6.05625  -6.05270  -6.04780
 Alpha  occ. eigenvalues --   -1.16599  -1.08897  -0.97123  -0.95974  -0.90941
 Alpha  occ. eigenvalues --   -0.88453  -0.85189  -0.84411  -0.82887  -0.75449
 Alpha  occ. eigenvalues --   -0.71231  -0.70659  -0.69505  -0.67962  -0.62915
 Alpha  occ. eigenvalues --   -0.60134  -0.58541  -0.58299  -0.56308  -0.54431
 Alpha  occ. eigenvalues --   -0.53695  -0.53078  -0.52350  -0.50934  -0.50301
 Alpha  occ. eigenvalues --   -0.49202  -0.47811  -0.45728  -0.45214  -0.44868
 Alpha  occ. eigenvalues --   -0.43675  -0.42889  -0.42555  -0.39616  -0.37230
 Alpha  occ. eigenvalues --   -0.36089  -0.32093  -0.31667  -0.29041
 Alpha virt. eigenvalues --   -0.00412   0.04832   0.06798   0.07188   0.07232
 Alpha virt. eigenvalues --    0.11580   0.12485   0.15098   0.15735   0.17521
 Alpha virt. eigenvalues --    0.18979   0.20258   0.21707   0.22408   0.22812

 Mulliken charges:
               1
     1  C   -0.004171
     2  C   -0.211554
     3  C    0.232427
     4  C   -0.012361
     5  C    0.008548
     6  C   -0.003091
     7  H    0.021552
     8  H    0.015839
     9  H    0.018912
    10  H    0.021492
    11  N   -0.316035
    12  S    0.131965
    13  C   -0.073840
    14  C   -0.013963
    15  C    0.067701
    16  C   -0.008092
    17  H    0.009291
    18  C    0.020728
    19  C    0.018611
    20  H    0.010589
    21  H    0.016850
    22  H    0.017849
    23  C    0.068175
    24  O   -0.188286
    25  H    0.150865
 Sum of Mulliken charges =  -0.00000

 Dipole moment (field-independent basis, Debye):
    X=              0.2471    Y=             -1.9737    Z=              0.0000  Tot=              1.9891
 Quadrupole moment (field-independent basis, Debye-Ang):
   XX=            -82.6184   YY=            -89.7291   ZZ=           -104.3270
   XY=             -6.7891   XZ=             -0.0000   YZ=              0.0003

  Exact polarizability:     275.686     -64.785     257.282      -0.001       0.002      63.214
 Approx polarizability:     264.062     -21.996     244.279      -0.000       0.002      82.357

                      1                      2                      3
                      A                      A                      A
 Frequencies --     46.5739                48.3520               110.7840
 Red. masses --      5.9302                 5.5463                 5.6701
 Frc consts  --      0.0076                 0.0076                 0.0410
 IR Inten    --      0.3285                 0.8301                 0.8399

                      4                      5                      6
                      A                      A                      A
 Frequencies --    149.8303               199.8770               244.1583
 Red. masses --      4.8045                 5.6181                 5.8592
 Frc consts  --      0.0635                 0.1322                 0.2058
 IR Inten    --      0.0030                 0.2357                 0.1711

                      7                      8                      9
                      A                      A                      A
 Frequencies --    256.6131               288.3692               323.6636
 Red. masses --      8.4369                 6.1899                 4.9788
 Frc consts  --      0.3273                 0.3033                 0.3073
 IR Inten    --      3.2470                 4.8000                 0.8113

                     10                     11                     12
                      A                      A                      A
 Frequencies --    393.7452               440.6160               470.1860
 Red. masses --      8.5092                 3.1763                 3.7490
 Frc consts  --      0.7773                 0.3633                 0.4883
 IR Inten    --      0.2789                 1.8945                10.0163

                     13                     14                     15
                      A                      A                      A
 Frequencies --    489.9213               511.5832               539.4028
 Red. masses --      4.5764                 8.9340                 3.4538
 Frc consts  --      0.6472                 1.3776                 0.5921
 IR Inten    --      2.8851                 0.5710                 4.2840

                     16                     17                     18
                      A                      A                      A
 Frequencies --    545.4499               572.4680               595.6150
 Red. masses --      8.6848                 3.6451                 7.7098
 Frc consts  --      1.5224                 0.7038                 1.6115
 IR Inten    --      3.0746                 0.3316                 6.5339

                     19                     20                     21
                      A                      A                      A
 Frequencies --    601.9324               656.7394               671.4584
 Red. masses --      1.2864                 3.2543                 7.7525
 Frc consts  --      0.2746                 0.8270                 2.0593
 IR Inten    --     64.1129                23.5491                56.7093

                     22                     23                     24
                      A                      A                      A
 Frequencies --    678.1263               714.6213               754.1137
 Red. masses --      7.2855                 7.2438                 1.9513
 Frc consts  --      1.9739                 2.1796                 0.6538
 IR Inten    --      4.6290                 1.9869                21.9597

                     25                     26                     27
                      A                      A                      A
 Frequencies --    766.6764               778.3487               787.6388
 Red. masses --      3.7614                 1.3109                 1.9019
 Frc consts  --      1.3026                 0.4679                 0.6952
 IR Inten    --      9.0779                58.8581                34.8702

                     28                     29                     30
                      A                      A                      A
 Frequencies --    834.5413               885.8898               886.7039
 Red. masses --      6.2023                 1.4782                 1.4845
 Frc consts  --      2.5451                 0.6835                 0.6877
 IR Inten    --     29.3660                 4.9117                 0.1219

                     31                     32                     33
                      A                      A                      A
 Frequencies --    894.1547               966.7943               973.9977
 Red. masses --      6.3789                 7.6075                 1.3536
 Frc consts  --      3.0048                 4.1895                 0.7566
 IR Inten    --      0.9426                77.9885                 1.4983

                     34                     35                     36
                      A                      A                      A
 Frequencies --    975.4148              1011.7173              1014.4650
 Red. masses --      1.3641                 1.2998                 1.3058
 Frc consts  --      0.7647                 0.7838                 0.7918
 IR Inten    --      1.0940                 0.2882                 0.0072

                     37                     38                     39
                      A                      A                      A
 Frequencies --   1049.0326              1069.5839              1087.3978
 Red. masses --      2.0566                 2.0830                 4.8253
 Frc consts  --      1.3334                 1.4040                 3.3617
 IR Inten    --      8.0663                17.1454                 5.6991

                     40                     41                     42
                      A                      A                      A
 Frequencies --   1140.6304              1149.0758              1175.9340
 Red. masses --      1.6312                 1.2639                 1.1151
 Frc consts  --      1.2504                 0.9832                 0.9085
 IR Inten    --     13.4074                 7.5522                52.0026

                     43                     44                     45
                      A                      A                      A
 Frequencies --   1182.3730              1221.1983              1271.4644
 Red. masses --      1.1829                 1.5321                 2.1411
 Frc consts  --      0.9743                 1.3462                 2.0394
 IR Inten    --      0.1588               185.4071                57.2623

                     46                     47                     48
                      A                      A                      A
 Frequencies --   1278.7970              1286.0330              1350.7627
 Red. masses --      1.7586                 3.8318                 2.8022
 Frc consts  --      1.6944                 3.7339                 3.0123
 IR Inten    --      7.7877                24.7126                13.0561

                     49                     50                     51
                      A                      A                      A
 Frequencies --   1363.0237              1377.3242              1395.8856
 Red. masses --      4.6504                 2.8489                 2.2341
 Frc consts  --      5.0904                 3.1842                 2.5648
 IR Inten    --     14.4179                 1.0152                93.4590

                     52                     53                     54
                      A                      A                      A
 Frequencies --   1488.7431              1493.8850              1514.4191
 Red. masses --      2.6168                 3.0938                 3.1999
 Frc consts  --      3.4172                 4.0680                 4.3239
 IR Inten    --     22.4993                22.1844               119.0320

                     55                     56                     57
                      A                      A                      A
 Frequencies --   1531.0757              1608.6482              1639.1762
 Red. masses --      3.0018                 8.7012                 6.0883
 Frc consts  --      4.1459                13.2663                 9.6382
 IR Inten    --     16.4590               187.6370                33.5279

                     58                     59                     60
                      A                      A                      A
 Frequencies --   1645.8526              1685.1319              1709.0219
 Red. masses --      6.5654                 6.9084                 6.6046
 Frc consts  --     10.4784                11.5584                11.3656
 IR Inten    --     75.7501                 2.0381                76.3535

                     61                     62                     63
                      A                      A                      A
 Frequencies --   3193.4361              3209.4647              3209.5758
 Red. masses --      1.0892                 1.0862                 1.0883
 Frc consts  --      6.5445                 6.5922                 6.6054
 IR Inten    --      3.8012                 0.8136                 5.2177

                     64                     65                     66
                      A                      A                      A
 Frequencies --   3220.6842              3228.9741              3229.2450
 Red. masses --      1.0899                 1.0958                 1.0940
 Frc consts  --      6.6610                 6.7317                 6.7212
 IR Inten    --      3.3813                13.9734                12.9281

                     67                     68                     69
                      A                      A                      A
 Frequencies --   3236.5783              3237.7418              3710.7297
 Red. masses --      1.0995                 1.1002                 1.0657
 Frc consts  --      6.7863                 6.7954                 8.6460
 IR Inten    --     16.8385                12.4905               505.9184

 - Thermochemistry -
 -------------------
 Temperature   298.150 Kelvin.  Pressure   1.00000 Atm.
 Atom     1 has atomic number  6 and mass  12.00000

 Molecular mass:   227.04049 amu.
 Principal axes and moments of inertia in atomic units:
                           1         2         3
     Eigenvalues --  1367.856106389.024197756.88029
           X           -0.69185   0.72204   0.00000
           Y            0.72204   0.69185  -0.00001
           Z            0.00001   0.00001   1.00000
 This molecule is an asymmetric top.
 Rotational symmetry number  1.
 Warning -- assumption of classical behavior for rotation
           may cause significant error
 Rotational temperatures (Kelvin)      0.06332     0.01356     0.01117
 Rotational constants (GHZ):           1.31939     0.28248     0.23266
 Zero-point vibrational energy     498073.8 (Joules/Mol)
                                  119.04250 (Kcal/Mol)
 Warning -- explicit consideration of  19 degrees of freedom as
           vibrations may cause significant error
 Vibrational temperatures:     67.01    69.57   159.39   215.57   287.58
          (Kelvin)            351.29   369.21   414.90   465.68   566.51
                              633.95   676.49   704.89   736.05   776.08
                              784.78   823.65   856.96   866.05   944.90
                              966.08   975.67  1028.18  1085.00  1103.08
                             1119.87  1133.24  1200.72  1274.60  1275.77
                             1286.49  1391.00  1401.37  1403.40  1455.64
                             1459.59  1509.32  1538.89  1564.52  1641.11
                             1653.26  1691.91  1701.17  1757.03  1829.35
                             1839.90  1850.31  1943.45  1961.09  1981.66
                             2008.37  2141.97  2149.37  2178.91  2202.88
                             2314.49  2358.41  2368.01  2424.53  2458.90
                             4594.64  4617.70  4617.86  4633.85  4645.77
                             4646.16  4656.71  4658.39  5338.91

 Zero-point correction=                           0.189706 (Hartree/Particle)
 Thermal correction to Energy=                    0.201649
 Thermal correction to Enthalpy=                  0.202593
 Thermal correction to Gibbs Free Energy=         0.150650
 Sum of electronic and zero-point Energies=          -1028.630332
 Sum of electronic and thermal Energies=             -1028.618390
 Sum of electronic and thermal Enthalpies=           -1028.617446
 Sum of electronic and thermal Free Energies=        -1028.669388

                     E (Thermal)             CV                S
                      KCal/Mol        Cal/Mol-Kelvin    Cal/Mol-Kelvin
 Total                  126.536             48.454            109.322
 Electronic               0.000              0.000              0.000
 Translational            0.889              2.981             42.162
 Rotational               0.889              2.981             32.583
 Vibrational            124.759             42.493             34.577
 Vibration     1          0.595              1.979              4.958
 Vibration     2          0.595              1.978              4.884
 Vibration     3          0.607              1.941              3.255
 Vibration     4          0.618              1.903              2.674
 Vibration     5          0.638              1.840              2.134
 Vibration     6          0.659              1.772              1.772
 Vibration     7          0.666              1.752              1.685
 Vibration     8          0.685              1.695              1.484
 Vibration     9          0.708              1.628              1.292
 Vibration    10          0.761              1.484              0.986
 Vibration    11          0.801              1.382              0.825
 Vibration    12          0.827              1.316              0.737
 Vibration    13          0.846              1.272              0.684
 Vibration    14          0.867              1.224              0.630
 Vibration    15          0.894              1.163              0.567
 Vibration    16          0.901              1.150              0.554
 Vibration    17          0.929              1.091              0.500
 Vibration    18          0.953              1.041              0.457
 Vibration    19          0.960              1.028              0.446

 Optimization completed.
    -- Stationary point found.
 Normal termination of Gaussian 16 at Tue Oct 27 21:13:02 2020.
