 Gaussian 16, Revision C.01,
 Gaussian 16:  ES64L-G16RevC.01  3-Jul-2019

 ----------------------------------------------------------------------
 #p opt=addgic freq wb97xd/cc-pvdz nosymm int=ultrafine scrf=(solvent=C
 arbonTetraChloride)
 ----------------------------------------------------------------------

 ------------------------------------------------
 NM 2D-scan of HBT TD-WB97XD pVDZ in CTC Relaxed.
 ------------------------------------------------
 Symbolic Z-matrix:
 Charge =  0 Multiplicity = 1

 SCF Done:  E(RwB97XD) =  -1028.80124691     A.U. after   16 cycles
 SCF Done:  E(RwB97XD) =  -1028.80868263     A.U. after   14 cycles
 SCF Done:  E(RwB97XD) =  -1028.80913486     A.U. after   13 cycles
 SCF Done:  E(RwB97XD) =  -1028.80906865     A.U. after   12 cycles
 SCF Done:  E(RwB97XD) =  -1028.80940680     A.U. after   11 cycles
 SCF Done:  E(RwB97XD) =  -1028.80941442     A.U. after   10 cycles
 SCF Done:  E(RwB97XD) =  -1028.80940769     A.U. after   11 cycles
 SCF Done:  E(RwB97XD) =  -1028.80941663     A.U. after   10 cycles
 Optimization completed.
    -- Stationary point found.
 Normal termination of Gaussian 16 at Tue Oct 27 20:34:03 2020.

 --------------------------------------------------------------------
 #P Geom=AllCheck Guess=TCheck SCRF=Check GenChk RwB97XD/CC-pVDZ Freq
 --------------------------------------------------------------------

 Structure from the checkpoint file:  "config_9_1.chk"
 ------------------------------------------------
 NM 2D-scan of HBT TD-WB97XD pVDZ in CTC Relaxed.
 ------------------------------------------------
 Charge =  0 Multiplicity = 1

                          Input orientation:
 ---------------------------------------------------------------------
 Center     Atomic      Atomic             Coordinates (Angstroms)
 Number     Number       Type             X           Y           Z
 ---------------------------------------------------------------------
      1          6           0        1.760238   -3.259863   -0.000013
      2          6           0        1.007309   -2.083348   -0.000006
      3          6           0        1.657724   -0.847692   -0.000015
      4          6           0        3.047672   -0.731762   -0.000029
      5          6           0        3.789952   -1.902501   -0.000034
      6          6           0        3.150552   -3.150954   -0.000028
      7          1           0        1.280986   -4.238985   -0.000009
      8          1           0        3.516001    0.252612   -0.000035
      9          1           0        4.879421   -1.852406   -0.000046
     10          1           0        3.751597   -4.061152   -0.000034
     11          7           0        0.776978    0.199569   -0.000016
     12         16           0       -0.752560   -1.828962    0.000005
     13          6           0       -1.427651    1.035729    0.000001
     14          6           0       -2.839035    0.920040   -0.000018
     15          6           0       -0.810714    2.359171    0.000032
     16          6           0       -3.652824    2.032911    0.000000
     17          1           0       -3.287704   -0.077355   -0.000050
     18          6           0       -1.704187    3.479562    0.000073
     19          6           0       -3.066971    3.321650    0.000052
     20          1           0       -4.737328    1.922632   -0.000017
     21          1           0       -1.241225    4.467448    0.000121
     22          1           0       -3.711240    4.204175    0.000079
     23          6           0       -0.516574   -0.079106   -0.000002
     24          8           0        0.451830    2.552724    0.000088
     25          1           0        0.962042    1.285588   -0.000026
 ---------------------------------------------------------------------

 SCF Done:  E(RwB97XD) =  -1028.80941663     A.U. after    1 cycles

 Alpha  occ. eigenvalues --  -89.10190 -19.22543 -14.49905 -10.41219 -10.36467
 Alpha  occ. eigenvalues --  -10.36393 -10.35978 -10.33292 -10.32568 -10.32347
 Alpha  occ. eigenvalues --  -10.32240 -10.31381 -10.31339 -10.30725 -10.29254
 Alpha  occ. eigenvalues --  -10.28721  -8.12120  -6.07006  -6.06626  -6.06137
 Alpha  occ. eigenvalues --   -1.13519  -1.10113  -0.98262  -0.95047  -0.92760
 Alpha  occ. eigenvalues --   -0.89207  -0.86102  -0.84038  -0.82131  -0.75845
 Alpha  occ. eigenvalues --   -0.72348  -0.71152  -0.69148  -0.68159  -0.64213
 Alpha  occ. eigenvalues --   -0.60794  -0.59612  -0.57005  -0.55736  -0.55623
 Alpha  occ. eigenvalues --   -0.54776  -0.53588  -0.52565  -0.50880  -0.49973
 Alpha  occ. eigenvalues --   -0.49220  -0.47911  -0.46564  -0.45442  -0.44946
 Alpha  occ. eigenvalues --   -0.44329  -0.43023  -0.41715  -0.40566  -0.36615
 Alpha  occ. eigenvalues --   -0.33339  -0.33018  -0.31572  -0.26967
 Alpha virt. eigenvalues --   -0.01148   0.03931   0.06416   0.06704   0.08731
 Alpha virt. eigenvalues --    0.10895   0.12468   0.14747   0.15986   0.17563
 Alpha virt. eigenvalues --    0.19208   0.20427   0.21427   0.21795   0.22870

 Mulliken charges:
               1
     1  C    0.008262
     2  C   -0.245879
     3  C    0.279294
     4  C   -0.010035
     5  C    0.012413
     6  C    0.000674
     7  H    0.025466
     8  H    0.031723
     9  H    0.026066
    10  H    0.025634
    11  N   -0.177013
    12  S    0.178882
    13  C   -0.140781
    14  C   -0.002974
    15  C    0.116522
    16  C   -0.029209
    17  H    0.001695
    18  C   -0.009598
    19  C    0.025698
    20  H    0.004070
    21  H    0.004033
    22  H    0.013647
    23  C    0.073435
    24  O   -0.385609
    25  H    0.173584
 Sum of Mulliken charges =  -0.00000

 Dipole moment (field-independent basis, Debye):
    X=              1.3560    Y=             -4.5740    Z=             -0.0002  Tot=              4.7707
 Quadrupole moment (field-independent basis, Debye-Ang):
   XX=            -82.6896   YY=            -93.0320   ZZ=           -104.0834
   XY=             -7.0688   XZ=             -0.0003   YZ=             -0.0002

  Exact polarizability:     284.406     -80.408     278.327      -0.001       0.003      63.047
 Approx polarizability:     266.915     -30.221     254.751      -0.000       0.002      82.181

                      1                      2                      3
                      A                      A                      A
 Frequencies --     47.4374                65.8346                75.5849
 Red. masses --      5.0465                 6.0269                 4.8551
 Frc consts  --      0.0067                 0.0154                 0.0163
 IR Inten    --      0.0453                 2.2319                40.5921

                      4                      5                      6
                      A                      A                      A
 Frequencies --    144.9705               198.7352               229.0224
 Red. masses --      5.1144                 5.8956                 4.0768
 Frc consts  --      0.0633                 0.1372                 0.1260
 IR Inten    --      0.8788                 0.0380                89.2614

                      7                      8                      9
                      A                      A                      A
 Frequencies --    239.7344               281.8607               312.1932
 Red. masses --      6.1517                 5.8797                 5.3207
 Frc consts  --      0.2083                 0.2752                 0.3055
 IR Inten    --      0.6346                 8.7788                 0.9662

                     10                     11                     12
                      A                      A                      A
 Frequencies --    407.2092               432.1798               452.5141
 Red. masses --     10.9683                 3.1805                 3.6429
 Frc consts  --      1.0716                 0.3500                 0.4395
 IR Inten    --      5.7759                 1.1604                10.2244

                     13                     14                     15
                      A                      A                      A
 Frequencies --    475.8542               512.8738               536.9820
 Red. masses --      3.3297                 8.6533                 3.0763
 Frc consts  --      0.4442                 1.3411                 0.5226
 IR Inten    --     43.8522                10.3494                 4.9190

                     16                     17                     18
                      A                      A                      A
 Frequencies --    548.3230               564.9223               583.0022
 Red. masses --      8.9003                 3.6426                 6.9868
 Frc consts  --      1.5766                 0.6849                 1.3992
 IR Inten    --      6.8562                 0.0677                28.7656

                     19                     20                     21
                      A                      A                      A
 Frequencies --    617.8525               644.6285               699.1274
 Red. masses --      6.1859                 6.4376                 6.8915
 Frc consts  --      1.3913                 1.5761                 1.9846
 IR Inten    --      4.3870                 0.0001                60.0530

                     22                     23                     24
                      A                      A                      A
 Frequencies --    709.6259               751.0635               764.3430
 Red. masses --      6.1372                 2.4394                 1.5102
 Frc consts  --      1.8209                 0.8107                 0.5198
 IR Inten    --      0.8659                13.5562                45.6199

                     25                     26                     27
                      A                      A                      A
 Frequencies --    776.3078               777.8983               809.5044
 Red. masses --      2.3368                 1.6593                 4.2062
 Frc consts  --      0.8297                 0.5916                 1.6240
 IR Inten    --     36.9130                25.6621                20.3794

                     28                     29                     30
                      A                      A                      A
 Frequencies --    847.8693               879.2274               881.5563
 Red. masses --      5.8750                 1.7402                 1.4099
 Frc consts  --      2.4884                 0.7926                 0.6456
 IR Inten    --     16.2914                 9.1058                 0.0036

                     31                     32                     33
                      A                      A                      A
 Frequencies --    941.8508               969.0690               971.9512
 Red. masses --      6.0829                 1.3308                 1.3590
 Frc consts  --      3.1792                 0.7363                 0.7564
 IR Inten    --     31.7153                 0.4849                 0.8654

                     34                     35                     36
                      A                      A                      A
 Frequencies --   1014.4043              1015.0138              1040.6210
 Red. masses --      1.3021                 1.3052                 4.2724
 Frc consts  --      0.7894                 0.7923                 2.7259
 IR Inten    --      0.1134                 0.0507                17.8842

                     37                     38                     39
                      A                      A                      A
 Frequencies --   1052.9630              1054.7708              1080.7305
 Red. masses --      2.1755                 2.1247                 1.0755
 Frc consts  --      1.4211                 1.3927                 0.7401
 IR Inten    --      5.4543                 8.7189                69.7745

                     40                     41                     42
                      A                      A                      A
 Frequencies --   1100.7817              1152.8018              1157.1906
 Red. masses --      3.4362                 1.3738                 1.2531
 Frc consts  --      2.4532                 1.0756                 0.9887
 IR Inten    --     26.0059                 9.5400                16.0138

                     43                     44                     45
                      A                      A                      A
 Frequencies --   1180.6578              1187.0812              1261.3008
 Red. masses --      1.1372                 1.1849                 1.8031
 Frc consts  --      0.9340                 0.9838                 1.6901
 IR Inten    --     31.2532                 6.6213                16.7693

                     46                     47                     48
                      A                      A                      A
 Frequencies --   1287.8600              1327.7686              1361.5256
 Red. masses --      1.5323                 3.2341                 3.7332
 Frc consts  --      1.4974                 3.3593                 4.0775
 IR Inten    --     22.7851               167.5265               109.8713

                     49                     50                     51
                      A                      A                      A
 Frequencies --   1378.1543              1392.6793              1414.9784
 Red. masses --      7.0102                 3.8535                 2.4548
 Frc consts  --      7.8447                 4.4036                 2.8958
 IR Inten    --     40.1810                10.9615                 7.9081

                     52                     53                     54
                      A                      A                      A
 Frequencies --   1495.0255              1505.4767              1525.5614
 Red. masses --      2.6803                 2.7937                 3.5047
 Frc consts  --      3.5296                 3.7306                 4.8057
 IR Inten    --     19.6323                81.6038               233.8423

                     55                     56                     57
                      A                      A                      A
 Frequencies --   1579.9768              1595.6524              1616.6295
 Red. masses --      5.4242                 6.1611                 4.3404
 Frc consts  --      7.9779                 9.2424                 6.6834
 IR Inten    --   1073.7130               226.0327               707.0860

                     58                     59                     60
                      A                      A                      A
 Frequencies --   1666.1454              1682.2905              1714.1805
 Red. masses --      7.1841                 6.8736                 5.6379
 Frc consts  --     11.7503                11.4614                 9.7607
 IR Inten    --     45.3085                45.7247               104.6316

                     61                     62                     63
                      A                      A                      A
 Frequencies --   2297.2076              3182.8975              3195.9175
 Red. masses --      1.1378                 1.0894                 1.0883
 Frc consts  --      3.5377                 6.5025                 6.5494
 IR Inten    --    618.1824                 5.1608                12.7147

                     64                     65                     66
                      A                      A                      A
 Frequencies --   3216.2413              3223.5720              3225.7891
 Red. masses --      1.0863                 1.0938                 1.0906
 Frc consts  --      6.6204                 6.6965                 6.6866
 IR Inten    --      1.0568                16.7334                 2.6090

                     67                     68                     69
                      A                      A                      A
 Frequencies --   3231.0338              3234.6023              3241.6796
 Red. masses --      1.0979                 1.0962                 1.1002
 Frc consts  --      6.7529                 6.7575                 6.8116
 IR Inten    --     21.7961                 6.5556                11.2457

 - Thermochemistry -
 -------------------
 Temperature   298.150 Kelvin.  Pressure   1.00000 Atm.
 Atom     1 has atomic number  6 and mass  12.00000

 Molecular mass:   227.04049 amu.
 Principal axes and moments of inertia in atomic units:
                           1         2         3
     Eigenvalues --  1327.513596261.356837588.87042
           X           -0.70446   0.70975  -0.00000
           Y            0.70975   0.70446  -0.00001
           Z            0.00001   0.00001   1.00000
 This molecule is an asymmetric top.
 Rotational symmetry number  1.
 Warning -- assumption of classical behavior for rotation
           may cause significant error
 Rotational temperatures (Kelvin)      0.06525     0.01383     0.01141
 Rotational constants (GHZ):           1.35949     0.28823     0.23781
 Zero-point vibrational energy     490721.8 (Joules/Mol)
                                  117.28532 (Kcal/Mol)
 Warning -- explicit consideration of  19 degrees of freedom as
           vibrations may cause significant error
 Vibrational temperatures:     68.25    94.72   108.75   208.58   285.94
          (Kelvin)            329.51   344.92   405.53   449.18   585.88
                              621.81   651.07   684.65   737.91   772.60
                              788.91   812.80   838.81   888.95   927.48
                             1005.89  1020.99  1080.61  1099.72  1116.93
                             1119.22  1164.70  1219.89  1265.01  1268.36
                             1355.11  1394.27  1398.42  1459.50  1460.38
                             1497.22  1514.98  1517.58  1554.93  1583.78
                             1658.62  1664.94  1698.70  1707.95  1814.73
                             1852.94  1910.36  1958.93  1982.86  2003.75
                             2035.84  2151.01  2166.05  2194.94  2273.23
                             2295.79  2325.97  2397.21  2420.44  2466.32
                             3305.17  4579.48  4598.21  4627.45  4638.00
                             4641.19  4648.74  4653.87  4664.05

 Zero-point correction=                           0.186906 (Hartree/Particle)
 Thermal correction to Energy=                    0.198919
 Thermal correction to Enthalpy=                  0.199863
 Thermal correction to Gibbs Free Energy=         0.147760
 Sum of electronic and zero-point Energies=          -1028.622511
 Sum of electronic and thermal Energies=             -1028.610498
 Sum of electronic and thermal Enthalpies=           -1028.609554
 Sum of electronic and thermal Free Energies=        -1028.661657

                     E (Thermal)             CV                S
                      KCal/Mol        Cal/Mol-Kelvin    Cal/Mol-Kelvin
 Total                  124.823             48.292            109.660
 Electronic               0.000              0.000              0.000
 Translational            0.889              2.981             42.162
 Rotational               0.889              2.981             32.511
 Vibrational            123.046             42.330             34.987
 Vibration     1          0.595              1.979              4.921
 Vibration     2          0.597              1.971              4.274
 Vibration     3          0.599              1.965              4.002
 Vibration     4          0.616              1.908              2.737
 Vibration     5          0.637              1.842              2.145
 Vibration     6          0.652              1.797              1.887
 Vibration     7          0.657              1.780              1.805
 Vibration     8          0.681              1.707              1.522
 Vibration     9          0.701              1.650              1.351
 Vibration    10          0.772              1.455              0.937
 Vibration    11          0.793              1.400              0.852
 Vibration    12          0.811              1.355              0.788
 Vibration    13          0.832              1.304              0.721
 Vibration    14          0.868              1.221              0.627
 Vibration    15          0.892              1.168              0.572
 Vibration    16          0.904              1.143              0.548
 Vibration    17          0.921              1.107              0.514
 Vibration    18          0.940              1.068              0.480
 Vibration    19          0.978              0.994              0.420

 Optimization completed.
    -- Stationary point found.
 Normal termination of Gaussian 16 at Tue Oct 27 20:40:08 2020.
