 Gaussian 16, Revision C.01,
 Gaussian 16:  ES64L-G16RevC.01  3-Jul-2019

 ----------------------------------------------------------------------
 #p opt=addgic freq wb97xd/cc-pvdz nosymm int=ultrafine scrf=(solvent=C
 arbonTetraChloride)
 ----------------------------------------------------------------------

 ------------------------------------------------
 NM 2D-scan of HBT TD-WB97XD pVDZ in CTC Relaxed.
 ------------------------------------------------
 Symbolic Z-matrix:
 Charge =  0 Multiplicity = 1

 SCF Done:  E(RwB97XD) =  -1028.42161149     A.U. after   16 cycles
 SCF Done:  E(RwB97XD) =  -1028.67790014     A.U. after   14 cycles
 SCF Done:  E(RwB97XD) =  -1028.77442066     A.U. after   15 cycles
 SCF Done:  E(RwB97XD) =  -1028.78904437     A.U. after   13 cycles
 SCF Done:  E(RwB97XD) =  -1028.79136994     A.U. after   13 cycles
 SCF Done:  E(RwB97XD) =  -1028.79169643     A.U. after   12 cycles
 SCF Done:  E(RwB97XD) =  -1028.79173591     A.U. after   11 cycles
 SCF Done:  E(RwB97XD) =  -1028.79173794     A.U. after    9 cycles
 Optimization completed.
    -- Stationary point found.
 Normal termination of Gaussian 16 at Wed Oct 28 00:59:39 2020.

 --------------------------------------------------------------------
 #P Geom=AllCheck Guess=TCheck SCRF=Check GenChk RwB97XD/CC-pVDZ Freq
 --------------------------------------------------------------------

 Structure from the checkpoint file:  "config_12_15.chk"
 ------------------------------------------------
 NM 2D-scan of HBT TD-WB97XD pVDZ in CTC Relaxed.
 ------------------------------------------------
 Charge =  0 Multiplicity = 1

                          Input orientation:
 ---------------------------------------------------------------------
 Center     Atomic      Atomic             Coordinates (Angstroms)
 Number     Number       Type             X           Y           Z
 ---------------------------------------------------------------------
      1          6           0        1.582858   -3.283888   -0.000012
      2          6           0        1.005441   -2.021941   -0.000007
      3          6           0        1.784840   -0.884406   -0.000016
      4          6           0        3.177962   -0.947737   -0.000022
      5          6           0        3.759081   -2.216017   -0.000022
      6          6           0        2.972205   -3.370922   -0.000019
      7          1           0        0.964420   -4.180991   -0.000010
      8          1           0        3.788825   -0.043537   -0.000026
      9          1           0        4.846443   -2.300992   -0.000027
     10          1           0        3.449657   -4.351008   -0.000023
     11          7           0        0.975935    0.245389   -0.000025
     12         16           0       -0.707009   -1.587881    0.000007
     13          6           0       -1.350657    1.129262    0.000004
     14          6           0       -2.729181    0.800034    0.000001
     15          6           0       -0.884009    2.512497    0.000027
     16          6           0       -3.699969    1.773532    0.000023
     17          1           0       -3.029693   -0.251989   -0.000019
     18          6           0       -1.979014    3.499663    0.000056
     19          6           0       -3.302989    3.138592    0.000051
     20          1           0       -4.755789    1.501164    0.000020
     21          1           0       -1.691950    4.553332    0.000081
     22          1           0       -4.075395    3.912489    0.000069
     23          6           0       -0.369882    0.111630   -0.000008
     24          8           0        0.324261    2.764282    0.000038
     25          1           0        1.566518    1.034502   -0.000055
 ---------------------------------------------------------------------

 SCF Done:  E(RwB97XD) =  -1028.79173794     A.U. after    1 cycles

 Alpha  occ. eigenvalues --  -89.09756 -19.20963 -14.52363 -10.41810 -10.36951
 Alpha  occ. eigenvalues --  -10.35878 -10.35674 -10.33268 -10.33234 -10.32711
 Alpha  occ. eigenvalues --  -10.32320 -10.31045 -10.30651 -10.30236 -10.29055
 Alpha  occ. eigenvalues --  -10.28598  -8.11842  -6.06730  -6.06329  -6.05844
 Alpha  occ. eigenvalues --   -1.13077  -1.10208  -0.98668  -0.95634  -0.93318
 Alpha  occ. eigenvalues --   -0.89152  -0.86681  -0.83931  -0.81536  -0.75574
 Alpha  occ. eigenvalues --   -0.74458  -0.71825  -0.69536  -0.67779  -0.64273
 Alpha  occ. eigenvalues --   -0.60902  -0.59770  -0.56634  -0.56010  -0.56004
 Alpha  occ. eigenvalues --   -0.55015  -0.53668  -0.52940  -0.50089  -0.49296
 Alpha  occ. eigenvalues --   -0.49002  -0.48251  -0.46718  -0.45674  -0.44721
 Alpha  occ. eigenvalues --   -0.44499  -0.42834  -0.41822  -0.40351  -0.36952
 Alpha  occ. eigenvalues --   -0.33624  -0.31686  -0.31035  -0.25988
 Alpha virt. eigenvalues --   -0.01347   0.03723   0.05878   0.07068   0.09691
 Alpha virt. eigenvalues --    0.11353   0.13763   0.14574   0.15865   0.16568
 Alpha virt. eigenvalues --    0.17938   0.19713   0.21004   0.21609   0.22842

 Mulliken charges:
               1
     1  C    0.013902
     2  C   -0.234952
     3  C    0.197774
     4  C   -0.014861
     5  C    0.010171
     6  C    0.004949
     7  H    0.023494
     8  H    0.031007
     9  H    0.027875
    10  H    0.026080
    11  N   -0.097509
    12  S    0.176993
    13  C   -0.090580
    14  C   -0.017546
    15  C    0.096498
    16  C   -0.035167
    17  H    0.009602
    18  C   -0.050091
    19  C    0.029346
    20  H    0.001826
    21  H    0.001162
    22  H    0.013917
    23  C    0.109181
    24  O   -0.350372
    25  H    0.117300
 Sum of Mulliken charges =  -0.00000

 Dipole moment (field-independent basis, Debye):
    X=              2.3549    Y=             -5.4197    Z=             -0.0001  Tot=              5.9092
 Quadrupole moment (field-independent basis, Debye-Ang):
   XX=            -80.8089   YY=            -96.1126   ZZ=           -103.9742
   XY=             -6.3846   XZ=             -0.0003   YZ=             -0.0001

  Exact polarizability:     291.933     -93.064     289.768      -0.002       0.002      62.896
 Approx polarizability:     268.400     -36.112     254.642      -0.001       0.001      81.889

 ******    1 imaginary frequencies (negative Signs) ******

                      1                      2                      3
                      A                      A                      A
 Frequencies --   -105.0141                53.0378                68.5810
 Red. masses --      2.3334                 5.5698                 6.1488
 Frc consts  --      0.0152                 0.0092                 0.0170
 IR Inten    --     22.0891                 0.0023                 1.7219

                      4                      5                      6
                      A                      A                      A
 Frequencies --    103.5300               184.2764               200.6658
 Red. masses --      5.7602                 4.1065                 4.2293
 Frc consts  --      0.0364                 0.0822                 0.1003
 IR Inten    --      1.1755                 7.1335                18.7849

                      7                      8                      9
                      A                      A                      A
 Frequencies --    261.3250               264.0521               290.3594
 Red. masses --      2.2729                 8.1202                 7.0023
 Frc consts  --      0.0915                 0.3336                 0.3478
 IR Inten    --     26.1909                 4.7905                 2.4110

                     10                     11                     12
                      A                      A                      A
 Frequencies --    329.9478               387.9450               430.8542
 Red. masses --      3.4647                 7.4842                 2.9589
 Frc consts  --      0.2222                 0.6636                 0.3236
 IR Inten    --     13.3120                 3.6848                 3.9304

                     13                     14                     15
                      A                      A                      A
 Frequencies --    441.2102               502.8389               518.9901
 Red. masses --      3.4633                 7.8360                 2.6370
 Frc consts  --      0.3972                 1.1673                 0.4185
 IR Inten    --      7.3268                 9.3906                 3.3613

                     16                     17                     18
                      A                      A                      A
 Frequencies --    528.2673               544.8893               563.4804
 Red. masses --      6.5590                 7.8070                 3.8043
 Frc consts  --      1.0784                 1.3657                 0.7117
 IR Inten    --      3.3545                14.5918                 0.0017

                     19                     20                     21
                      A                      A                      A
 Frequencies --    579.1004               627.5123               657.5812
 Red. masses --      7.4332                 6.8567                 6.4071
 Frc consts  --      1.4687                 1.5908                 1.6323
 IR Inten    --     39.6221                 0.7345                 0.3885

                     22                     23                     24
                      A                      A                      A
 Frequencies --    703.1138               741.3545               749.9187
 Red. masses --      5.2429                 7.1253                 2.5361
 Frc consts  --      1.5271                 2.3073                 0.8403
 IR Inten    --     58.4488                36.7546                13.7204

                     25                     26                     27
                      A                      A                      A
 Frequencies --    757.4763               773.9921               778.7604
 Red. masses --      1.4205                 1.6000                 2.4205
 Frc consts  --      0.4802                 0.5647                 0.8649
 IR Inten    --     48.1247                52.5199                16.1820

                     28                     29                     30
                      A                      A                      A
 Frequencies --    827.7837               874.7007               879.0477
 Red. masses --      6.2242                 2.0988                 1.3782
 Frc consts  --      2.5129                 0.9461                 0.6275
 IR Inten    --     26.3812                15.4717                 0.8960

                     31                     32                     33
                      A                      A                      A
 Frequencies --    895.2067               964.3173               968.8452
 Red. masses --      5.8208                 1.3250                 1.3604
 Frc consts  --      2.7484                 0.7259                 0.7524
 IR Inten    --      1.7311                 0.0840                 1.5684

                     34                     35                     36
                      A                      A                      A
 Frequencies --    972.7689              1012.6589              1017.1632
 Red. masses --      3.9543                 1.3029                 1.3068
 Frc consts  --      2.2046                 0.7872                 0.7966
 IR Inten    --     20.7779                 0.0015                 0.3242

                     37                     38                     39
                      A                      A                      A
 Frequencies --   1045.4021              1059.1712              1094.9094
 Red. masses --      2.0907                 2.0934                 1.9794
 Frc consts  --      1.3462                 1.3837                 1.3981
 IR Inten    --      9.3677                12.8450                23.9014

                     40                     41                     42
                      A                      A                      A
 Frequencies --   1099.9943              1156.9817              1159.6207
 Red. masses --      3.1140                 1.3504                 1.2780
 Frc consts  --      2.2200                 1.0650                 1.0125
 IR Inten    --      1.5015                 4.1345                41.0756

                     43                     44                     45
                      A                      A                      A
 Frequencies --   1179.9304              1189.5110              1220.3804
 Red. masses --      1.1651                 1.1919                 2.4558
 Frc consts  --      0.9557                 0.9936                 2.1549
 IR Inten    --     52.8334                17.7019                69.9255

                     46                     47                     48
                      A                      A                      A
 Frequencies --   1273.8762              1305.4583              1350.7541
 Red. masses --      2.1742                 1.7338                 2.6181
 Frc consts  --      2.0788                 1.7409                 2.8144
 IR Inten    --     81.5032               117.7559                29.7018

                     49                     50                     51
                      A                      A                      A
 Frequencies --   1383.7437              1397.3977              1410.6776
 Red. masses --      4.3582                 6.3752                 2.2151
 Frc consts  --      4.9167                 7.3347                 2.5972
 IR Inten    --    199.8792                49.7807                16.0184

                     52                     53                     54
                      A                      A                      A
 Frequencies --   1489.6933              1504.1665              1526.2023
 Red. masses --      3.2884                 3.1046                 4.0998
 Frc consts  --      4.2996                 4.1386                 5.6265
 IR Inten    --    361.8929               937.4725              1360.0312

                     55                     56                     57
                      A                      A                      A
 Frequencies --   1536.9286              1590.0257              1654.9067
 Red. masses --      3.1008                 6.8773                 5.8067
 Frc consts  --      4.3155                10.2441                 9.3697
 IR Inten    --     23.5215                24.9352                74.7453

                     58                     59                     60
                      A                      A                      A
 Frequencies --   1678.9630              1709.6992              1750.9959
 Red. masses --      7.0905                 7.9925                10.1588
 Frc consts  --     11.7764                13.7649                18.3511
 IR Inten    --     23.2977                12.9374               466.8759

                     61                     62                     63
                      A                      A                      A
 Frequencies --   3182.4718              3192.3974              3214.1733
 Red. masses --      1.0886                 1.0878                 1.0878
 Frc consts  --      6.4959                 6.5316                 6.6210
 IR Inten    --      3.3511                13.9550                 1.3127

                     64                     65                     66
                      A                      A                      A
 Frequencies --   3216.4319              3223.5255              3229.3493
 Red. masses --      1.0941                 1.0910                 1.0973
 Frc consts  --      6.6688                 6.6796                 6.7426
 IR Inten    --     33.7243                 1.2820                20.4436

                     67                     68                     69
                      A                      A                      A
 Frequencies --   3233.3616              3243.3379              3970.8977
 Red. masses --      1.0952                 1.0993                 1.0785
 Frc consts  --      6.7464                 6.8129                10.0192
 IR Inten    --      5.1263                12.3536               132.2603

 - Thermochemistry -
 -------------------
 Temperature   298.150 Kelvin.  Pressure   1.00000 Atm.
 Atom     1 has atomic number  6 and mass  12.00000

 Molecular mass:   227.04049 amu.
 Principal axes and moments of inertia in atomic units:
                           1         2         3
     Eigenvalues --  1263.844166446.170837710.01499
           X           -0.70630   0.70792   0.00000
           Y            0.70792   0.70630  -0.00001
           Z            0.00001   0.00000   1.00000
 This molecule is an asymmetric top.
 Rotational symmetry number  1.
 Warning -- assumption of classical behavior for rotation
           may cause significant error
 Rotational temperatures (Kelvin)      0.06853     0.01344     0.01123
 Rotational constants (GHZ):           1.42798     0.27997     0.23408
    1 imaginary frequencies ignored.
 Zero-point vibrational energy     496036.9 (Joules/Mol)
                                  118.55566 (Kcal/Mol)
 Warning -- explicit consideration of  18 degrees of freedom as
           vibrations may cause significant error
 Vibrational temperatures:     76.31    98.67   148.96   265.13   288.71
          (Kelvin)            375.99   379.91   417.76   474.72   558.17
                              619.90   634.80   723.47   746.71   760.06
                              783.97   810.72   833.20   902.85   946.11
                             1011.62  1066.64  1078.97  1089.84  1113.60
                             1120.46  1191.00  1258.50  1264.75  1288.00
                             1387.44  1393.95  1399.60  1456.99  1463.47
                             1504.10  1523.91  1575.33  1582.65  1664.64
                             1668.44  1697.66  1711.44  1755.86  1832.82
                             1878.26  1943.43  1990.90  2010.54  2029.65
                             2143.34  2164.16  2195.86  2211.30  2287.69
                             2381.04  2415.65  2459.88  2519.29  4578.87
                             4593.15  4624.48  4627.73  4637.93  4646.31
                             4652.09  4666.44  5713.24

 Zero-point correction=                           0.188930 (Hartree/Particle)
 Thermal correction to Energy=                    0.200638
 Thermal correction to Enthalpy=                  0.201582
 Thermal correction to Gibbs Free Energy=         0.150458
 Sum of electronic and zero-point Energies=          -1028.602807
 Sum of electronic and thermal Energies=             -1028.591100
 Sum of electronic and thermal Enthalpies=           -1028.590156
 Sum of electronic and thermal Free Energies=        -1028.641280

                     E (Thermal)             CV                S
                      KCal/Mol        Cal/Mol-Kelvin    Cal/Mol-Kelvin
 Total                  125.902             47.583            107.600
 Electronic               0.000              0.000              0.000
 Translational            0.889              2.981             42.162
 Rotational               0.889              2.981             32.507
 Vibrational            124.125             41.622             32.930
 Vibration     1          0.596              1.976              4.701
 Vibration     2          0.598              1.969              4.194
 Vibration     3          0.605              1.946              3.387
 Vibration     4          0.631              1.861              2.285
 Vibration     5          0.638              1.839              2.127
 Vibration     6          0.669              1.744              1.653
 Vibration     7          0.671              1.739              1.635
 Vibration     8          0.686              1.692              1.472
 Vibration     9          0.713              1.616              1.260
 Vibration    10          0.756              1.496              1.008
 Vibration    11          0.792              1.403              0.856
 Vibration    12          0.801              1.380              0.823
 Vibration    13          0.858              1.244              0.651
 Vibration    14          0.874              1.208              0.612
 Vibration    15          0.883              1.187              0.591
 Vibration    16          0.900              1.151              0.555
 Vibration    17          0.919              1.110              0.517
 Vibration    18          0.936              1.076              0.487

 Optimization completed.
    -- Stationary point found.
 Normal termination of Gaussian 16 at Wed Oct 28 01:05:36 2020.
