 Gaussian 16, Revision C.01,
 Gaussian 16:  ES64L-G16RevC.01  3-Jul-2019

 ----------------------------------------------------------------------
 #p opt=addgic freq wb97xd/cc-pvdz nosymm int=ultrafine scrf=(solvent=C
 arbonTetraChloride)
 ----------------------------------------------------------------------

 ------------------------------------------------
 NM 2D-scan of HBT TD-WB97XD pVDZ in CTC Relaxed.
 ------------------------------------------------
 Symbolic Z-matrix:
 Charge =  0 Multiplicity = 1

 SCF Done:  E(RwB97XD) =  -1028.76288649     A.U. after   15 cycles
 SCF Done:  E(RwB97XD) =  -1028.82345399     A.U. after   13 cycles
 SCF Done:  E(RwB97XD) =  -1028.82790572     A.U. after   13 cycles
 SCF Done:  E(RwB97XD) =  -1028.83074357     A.U. after   12 cycles
 SCF Done:  E(RwB97XD) =  -1028.83083835     A.U. after   10 cycles
 SCF Done:  E(RwB97XD) =  -1028.83086480     A.U. after   10 cycles
 SCF Done:  E(RwB97XD) =  -1028.83086626     A.U. after    9 cycles
 SCF Done:  E(RwB97XD) =  -1028.83086631     A.U. after    7 cycles
 SCF Done:  E(RwB97XD) =  -1028.83086634     A.U. after    6 cycles
 Optimization completed.
    -- Stationary point found.
 Normal termination of Gaussian 16 at Wed Oct 28 00:11:33 2020.

 --------------------------------------------------------------------
 #P Geom=AllCheck Guess=TCheck SCRF=Check GenChk RwB97XD/CC-pVDZ Freq
 --------------------------------------------------------------------

 Structure from the checkpoint file:  "config_2_14.chk"
 ------------------------------------------------
 NM 2D-scan of HBT TD-WB97XD pVDZ in CTC Relaxed.
 ------------------------------------------------
 Charge =  0 Multiplicity = 1

                          Input orientation:
 ---------------------------------------------------------------------
 Center     Atomic      Atomic             Coordinates (Angstroms)
 Number     Number       Type             X           Y           Z
 ---------------------------------------------------------------------
      1          6           0        1.587269   -3.300008   -0.000034
      2          6           0        0.979388   -2.042837   -0.000026
      3          6           0        1.735937   -0.855790   -0.000006
      4          6           0        3.134983   -0.924635    0.000008
      5          6           0        3.741851   -2.172658   -0.000000
      6          6           0        2.975825   -3.350304   -0.000021
      7          1           0        0.992144   -4.213637   -0.000051
      8          1           0        3.720358   -0.004556    0.000024
      9          1           0        4.830666   -2.241404    0.000010
     10          1           0        3.476595   -4.319601   -0.000028
     11          7           0        0.986131    0.308929    0.000001
     12         16           0       -0.722243   -1.648633   -0.000039
     13          6           0       -1.313385    1.113133   -0.000001
     14          6           0       -2.684183    0.798640    0.000009
     15          6           0       -0.921072    2.475183    0.000015
     16          6           0       -3.652494    1.787285    0.000045
     17          1           0       -2.992127   -0.249588   -0.000005
     18          6           0       -1.911175    3.470440    0.000054
     19          6           0       -3.254301    3.130583    0.000070
     20          1           0       -4.709482    1.521239    0.000056
     21          1           0       -1.587261    4.511795    0.000064
     22          1           0       -4.006577    3.921595    0.000097
     23          6           0       -0.295130    0.064812   -0.000017
     24          8           0        0.357095    2.866632   -0.000026
     25          1           0        0.919957    2.054621   -0.000083
 ---------------------------------------------------------------------

 SCF Done:  E(RwB97XD) =  -1028.83086634     A.U. after    1 cycles

 Alpha  occ. eigenvalues --  -89.08511 -19.28426 -14.46963 -10.39345 -10.37486
 Alpha  occ. eigenvalues --  -10.34869 -10.34704 -10.32363 -10.32255 -10.31902
 Alpha  occ. eigenvalues --  -10.31583 -10.31541 -10.31468 -10.31404 -10.30320
 Alpha  occ. eigenvalues --  -10.30222  -8.10559  -6.05410  -6.05055  -6.04609
 Alpha  occ. eigenvalues --   -1.16650  -1.08797  -0.97273  -0.96227  -0.91577
 Alpha  occ. eigenvalues --   -0.88562  -0.85406  -0.84646  -0.82863  -0.75464
 Alpha  occ. eigenvalues --   -0.71493  -0.70631  -0.69420  -0.68153  -0.63195
 Alpha  occ. eigenvalues --   -0.60417  -0.58748  -0.58479  -0.56505  -0.54534
 Alpha  occ. eigenvalues --   -0.53947  -0.53160  -0.52859  -0.50786  -0.50440
 Alpha  occ. eigenvalues --   -0.49212  -0.47716  -0.45876  -0.45417  -0.45005
 Alpha  occ. eigenvalues --   -0.43970  -0.43030  -0.42480  -0.39706  -0.37403
 Alpha  occ. eigenvalues --   -0.36194  -0.32022  -0.31759  -0.29189
 Alpha virt. eigenvalues --   -0.00438   0.04895   0.06781   0.07114   0.07882
 Alpha virt. eigenvalues --    0.11498   0.14239   0.15213   0.16658   0.18027
 Alpha virt. eigenvalues --    0.18879   0.20776   0.21606   0.22533   0.22820

 Mulliken charges:
               1
     1  C    0.010137
     2  C   -0.209200
     3  C    0.214266
     4  C   -0.015890
     5  C    0.005006
     6  C    0.000465
     7  H    0.018424
     8  H    0.017366
     9  H    0.019346
    10  H    0.021113
    11  N   -0.345300
    12  S    0.141650
    13  C   -0.046499
    14  C   -0.028034
    15  C    0.060855
    16  C   -0.004614
    17  H    0.018121
    18  C    0.010922
    19  C    0.020649
    20  H    0.010121
    21  H    0.017374
    22  H    0.018985
    23  C    0.082644
    24  O   -0.198376
    25  H    0.160471
 Sum of Mulliken charges =  -0.00000

 Dipole moment (field-independent basis, Debye):
    X=             -0.1519    Y=             -2.3553    Z=             -0.0001  Tot=              2.3602
 Quadrupole moment (field-independent basis, Debye-Ang):
   XX=            -82.7156   YY=            -89.9728   ZZ=           -104.1143
   XY=             -7.1052   XZ=             -0.0002   YZ=              0.0002

  Exact polarizability:     273.676     -66.699     254.713      -0.001       0.002      62.940
 Approx polarizability:     261.895     -22.764     242.243      -0.000       0.002      82.160

                      1                      2                      3
                      A                      A                      A
 Frequencies --     45.3326                61.0801               119.5925
 Red. masses --      5.8107                 5.3975                 5.6590
 Frc consts  --      0.0070                 0.0119                 0.0477
 IR Inten    --      0.2218                 0.9589                 1.2865

                      4                      5                      6
                      A                      A                      A
 Frequencies --    151.4680               198.3624               246.3018
 Red. masses --      5.0053                 5.9871                 5.6648
 Frc consts  --      0.0677                 0.1388                 0.2025
 IR Inten    --      0.0100                 0.7144                 0.0171

                      7                      8                      9
                      A                      A                      A
 Frequencies --    269.7217               301.8659               328.8828
 Red. masses --      7.9052                 6.3338                 5.0805
 Frc consts  --      0.3388                 0.3400                 0.3238
 IR Inten    --      1.5823                 6.6650                 0.1306

                     10                     11                     12
                      A                      A                      A
 Frequencies --    411.2042               438.4624               468.4006
 Red. masses --      9.2530                 3.1290                 3.6909
 Frc consts  --      0.9218                 0.3544                 0.4771
 IR Inten    --      0.2073                 1.9371                 8.0393

                     13                     14                     15
                      A                      A                      A
 Frequencies --    514.3824               516.3204               537.6231
 Red. masses --      5.1016                 8.3843                 3.4514
 Frc consts  --      0.7953                 1.3169                 0.5878
 IR Inten    --      7.2155                 0.0987                 3.7548

                     16                     17                     18
                      A                      A                      A
 Frequencies --    549.2039               575.6487               592.0831
 Red. masses --      8.2165                 3.7417                 7.7057
 Frc consts  --      1.4602                 0.7305                 1.5916
 IR Inten    --      2.0705                 0.0192                 5.8725

                     19                     20                     21
                      A                      A                      A
 Frequencies --    645.8772               678.3827               720.2774
 Red. masses --      5.7242                 6.6335                 7.4571
 Frc consts  --      1.4069                 1.7986                 2.2794
 IR Inten    --      0.3245                 3.5952                34.8318

                     22                     23                     24
                      A                      A                      A
 Frequencies --    734.4641               755.2447               757.8092
 Red. masses --      8.7721                 2.0632                 1.9761
 Frc consts  --      2.7880                 0.6934                 0.6686
 IR Inten    --      5.6973                51.0864                 0.0001

                     25                     26                     27
                      A                      A                      A
 Frequencies --    775.2461               786.4783               803.9560
 Red. masses --      1.3825                 1.8988                 1.3429
 Frc consts  --      0.4895                 0.6920                 0.5114
 IR Inten    --     70.8694                26.0277                65.2066

                     28                     29                     30
                      A                      A                      A
 Frequencies --    846.8699               884.0319               887.8418
 Red. masses --      5.9638                 1.5432                 1.4239
 Frc consts  --      2.5200                 0.7106                 0.6613
 IR Inten    --     20.2075                 3.8942                 1.0005

                     31                     32                     33
                      A                      A                      A
 Frequencies --    891.1363               970.0851               976.0433
 Red. masses --      6.5069                 1.3610                 1.3661
 Frc consts  --      3.0445                 0.7546                 0.7668
 IR Inten    --      3.6131                 1.0659                 1.6208

                     34                     35                     36
                      A                      A                      A
 Frequencies --    992.0232              1011.6505              1015.3935
 Red. masses --      7.6769                 1.3033                 1.3050
 Frc consts  --      4.4512                 0.7859                 0.7928
 IR Inten    --     57.0917                 0.3827                 0.0206

                     37                     38                     39
                      A                      A                      A
 Frequencies --   1052.0477              1070.7324              1102.5479
 Red. masses --      1.9988                 1.9516                 3.9365
 Frc consts  --      1.3034                 1.3183                 2.8194
 IR Inten    --      8.4941                11.2431                 6.0403

                     40                     41                     42
                      A                      A                      A
 Frequencies --   1151.8651              1154.7269              1176.9002
 Red. masses --      1.4707                 1.3371                 1.1290
 Frc consts  --      1.1497                 1.0504                 0.9213
 IR Inten    --      4.8732                 3.6726                40.5737

                     43                     44                     45
                      A                      A                      A
 Frequencies --   1184.6564              1249.9303              1282.5219
 Red. masses --      1.2235                 1.8936                 2.1856
 Frc consts  --      1.0116                 1.7431                 2.1181
 IR Inten    --      0.1645               130.5816                72.4016

                     46                     47                     48
                      A                      A                      A
 Frequencies --   1285.8712              1330.9521              1339.9585
 Red. masses --      1.7240                 3.4737                 3.6499
 Frc consts  --      1.6795                 3.6255                 3.8611
 IR Inten    --     47.7850                35.2988                 4.3566

                     49                     50                     51
                      A                      A                      A
 Frequencies --   1370.6218              1379.1995              1459.1337
 Red. masses --      7.6151                 4.0483                 1.7862
 Frc consts  --      8.4287                 4.5370                 2.2406
 IR Inten    --     15.3497                14.7221                45.3010

                     52                     53                     54
                      A                      A                      A
 Frequencies --   1487.9987              1504.4099              1527.3965
 Red. masses --      2.6187                 2.8779                 3.4025
 Frc consts  --      3.4162                 3.8376                 4.6769
 IR Inten    --     44.4385                 9.4705                86.1437

                     55                     56                     57
                      A                      A                      A
 Frequencies --   1544.9551              1594.2381              1645.8744
 Red. masses --      2.3097                 7.3694                 6.7652
 Frc consts  --      3.2481                11.0355                10.7975
 IR Inten    --    142.6526               185.5132                 5.6836

                     58                     59                     60
                      A                      A                      A
 Frequencies --   1664.5171              1680.4032              1708.9648
 Red. masses --      4.6374                 6.8712                 5.8374
 Frc consts  --      7.5702                11.4316                10.0447
 IR Inten    --    128.0751                 8.1505               117.7303

                     61                     62                     63
                      A                      A                      A
 Frequencies --   3202.3728              3211.4460              3212.9836
 Red. masses --      1.0883                 1.0861                 1.0888
 Frc consts  --      6.5755                 6.5994                 6.6223
 IR Inten    --      2.5694                 1.3776                 7.8640

                     64                     65                     66
                      A                      A                      A
 Frequencies --   3222.6873              3231.0092              3233.2805
 Red. masses --      1.0905                 1.0941                 1.0959
 Frc consts  --      6.6731                 6.7295                 6.7503
 IR Inten    --      5.2351                10.8510                11.3101

                     67                     68                     69
                      A                      A                      A
 Frequencies --   3238.6540              3239.1005              3366.2528
 Red. masses --      1.0995                 1.0995                 1.0681
 Frc consts  --      6.7947                 6.7964                 7.1308
 IR Inten    --     22.1995                 9.1194               745.0917

 - Thermochemistry -
 -------------------
 Temperature   298.150 Kelvin.  Pressure   1.00000 Atm.
 Atom     1 has atomic number  6 and mass  12.00000

 Molecular mass:   227.04049 amu.
 Principal axes and moments of inertia in atomic units:
                           1         2         3
     Eigenvalues --  1305.102906355.657567660.76046
           X           -0.69745   0.71664   0.00000
           Y            0.71664   0.69745  -0.00001
           Z            0.00001   0.00001   1.00000
 This molecule is an asymmetric top.
 Rotational symmetry number  1.
 Warning -- assumption of classical behavior for rotation
           may cause significant error
 Rotational temperatures (Kelvin)      0.06637     0.01363     0.01131
 Rotational constants (GHZ):           1.38283     0.28396     0.23558
 Zero-point vibrational energy     499841.4 (Joules/Mol)
                                  119.46496 (Kcal/Mol)
 Warning -- explicit consideration of  18 degrees of freedom as
           vibrations may cause significant error
 Vibrational temperatures:     65.22    87.88   172.07   217.93   285.40
          (Kelvin)            354.37   388.07   434.32   473.19   591.63
                              630.85   673.92   740.08   742.87   773.52
                              790.18   828.23   851.88   929.27   976.04
                             1036.32  1056.73  1086.63  1090.32  1115.41
                             1131.57  1156.71  1218.46  1271.92  1277.41
                             1282.15  1395.74  1404.31  1427.30  1455.54
                             1460.92  1513.66  1540.55  1586.32  1657.28
                             1661.39  1693.30  1704.46  1798.37  1845.26
                             1850.08  1914.94  1927.90  1972.02  1984.36
                             2099.37  2140.90  2164.51  2197.58  2222.85
                             2293.75  2368.05  2394.87  2417.73  2458.82
                             4607.50  4620.55  4622.77  4636.73  4648.70
                             4651.97  4659.70  4660.34  4843.29

 Zero-point correction=                           0.190380 (Hartree/Particle)
 Thermal correction to Energy=                    0.202085
 Thermal correction to Enthalpy=                  0.203029
 Thermal correction to Gibbs Free Energy=         0.151703
 Sum of electronic and zero-point Energies=          -1028.640487
 Sum of electronic and thermal Energies=             -1028.628782
 Sum of electronic and thermal Enthalpies=           -1028.627838
 Sum of electronic and thermal Free Energies=        -1028.679163

                     E (Thermal)             CV                S
                      KCal/Mol        Cal/Mol-Kelvin    Cal/Mol-Kelvin
 Total                  126.810             47.662            108.024
 Electronic               0.000              0.000              0.000
 Translational            0.889              2.981             42.162
 Rotational               0.889              2.981             32.519
 Vibrational            125.033             41.700             33.343
 Vibration     1          0.595              1.979              5.011
 Vibration     2          0.597              1.973              4.422
 Vibration     3          0.609              1.933              3.107
 Vibration     4          0.619              1.901              2.654
 Vibration     5          0.637              1.842              2.148
 Vibration     6          0.661              1.769              1.757
 Vibration     7          0.674              1.729              1.598
 Vibration     8          0.694              1.670              1.407
 Vibration     9          0.712              1.618              1.266
 Vibration    10          0.775              1.446              0.922
 Vibration    11          0.799              1.386              0.831
 Vibration    12          0.826              1.320              0.742
 Vibration    13          0.869              1.218              0.623
 Vibration    14          0.871              1.214              0.619
 Vibration    15          0.893              1.167              0.570
 Vibration    16          0.904              1.141              0.546
 Vibration    17          0.932              1.084              0.493
 Vibration    18          0.950              1.049              0.463

 Optimization completed.
    -- Stationary point found.
 Normal termination of Gaussian 16 at Wed Oct 28 00:17:27 2020.
