 Gaussian 16, Revision C.01,
 Gaussian 16:  ES64L-G16RevC.01  3-Jul-2019

 ----------------------------------------------------------------------
 #p opt=addgic freq wb97xd/cc-pvdz nosymm int=ultrafine scrf=(solvent=C
 arbonTetraChloride)
 ----------------------------------------------------------------------

 ------------------------------------------------
 NM 2D-scan of HBT TD-WB97XD pVDZ in CTC Relaxed.
 ------------------------------------------------
 Symbolic Z-matrix:
 Charge =  0 Multiplicity = 1

 SCF Done:  E(RwB97XD) =  -1028.74398776     A.U. after   16 cycles
 SCF Done:  E(RwB97XD) =  -1028.79429244     A.U. after   14 cycles
 SCF Done:  E(RwB97XD) =  -1028.79968466     A.U. after   13 cycles
 SCF Done:  E(RwB97XD) =  -1028.80018889     A.U. after   12 cycles
 SCF Done:  E(RwB97XD) =  -1028.80019031     A.U. after   11 cycles
 SCF Done:  E(RwB97XD) =  -1028.80024237     A.U. after   11 cycles
 Optimization completed.
    -- Stationary point found.
 Normal termination of Gaussian 16 at Tue Oct 27 20:48:31 2020.

 --------------------------------------------------------------------
 #P Geom=AllCheck Guess=TCheck SCRF=Check GenChk RwB97XD/CC-pVDZ Freq
 --------------------------------------------------------------------

 Structure from the checkpoint file:  "config_11_2.chk"
 ------------------------------------------------
 NM 2D-scan of HBT TD-WB97XD pVDZ in CTC Relaxed.
 ------------------------------------------------
 Charge =  0 Multiplicity = 1

                          Input orientation:
 ---------------------------------------------------------------------
 Center     Atomic      Atomic             Coordinates (Angstroms)
 Number     Number       Type             X           Y           Z
 ---------------------------------------------------------------------
      1          6           0        1.757760   -3.270318   -0.000019
      2          6           0        1.017760   -2.089111   -0.000009
      3          6           0        1.679986   -0.873967   -0.000012
      4          6           0        3.068291   -0.757843   -0.000013
      5          6           0        3.800100   -1.937990   -0.000019
      6          6           0        3.149800   -3.177690   -0.000025
      7          1           0        1.267797   -4.243774   -0.000023
      8          1           0        3.546854    0.221747   -0.000012
      9          1           0        4.889880   -1.896810   -0.000021
     10          1           0        3.740549   -4.094310   -0.000033
     11          7           0        0.785389    0.162017   -0.000022
     12         16           0       -0.747871   -1.803685    0.000002
     13          6           0       -1.431089    1.052609   -0.000006
     14          6           0       -2.842703    0.925632   -0.000020
     15          6           0       -0.808075    2.388342    0.000027
     16          6           0       -3.675793    2.024375    0.000016
     17          1           0       -3.279890   -0.077326   -0.000060
     18          6           0       -1.748220    3.498618    0.000078
     19          6           0       -3.107081    3.323842    0.000073
     20          1           0       -4.758211    1.894560    0.000003
     21          1           0       -1.305590    4.496450    0.000116
     22          1           0       -3.765464    4.196346    0.000110
     23          6           0       -0.530927   -0.059727   -0.000015
     24          8           0        0.427788    2.572051   -0.000001
     25          1           0        1.157352    1.093633   -0.000048
 ---------------------------------------------------------------------

 SCF Done:  E(RwB97XD) =  -1028.80024237     A.U. after    1 cycles

 Alpha  occ. eigenvalues --  -89.10306 -19.21517 -14.51043 -10.41755 -10.36717
 Alpha  occ. eigenvalues --  -10.36251 -10.36038 -10.33458 -10.32923 -10.32617
 Alpha  occ. eigenvalues --  -10.32352 -10.31181 -10.31014 -10.30577 -10.29060
 Alpha  occ. eigenvalues --  -10.28488  -8.12248  -6.07146  -6.06751  -6.06251
 Alpha  occ. eigenvalues --   -1.13606  -1.10251  -0.98632  -0.94933  -0.93118
 Alpha  occ. eigenvalues --   -0.89356  -0.86403  -0.84110  -0.81667  -0.75786
 Alpha  occ. eigenvalues --   -0.73614  -0.71523  -0.69483  -0.67833  -0.64540
 Alpha  occ. eigenvalues --   -0.60861  -0.59803  -0.56707  -0.56045  -0.55913
 Alpha  occ. eigenvalues --   -0.54991  -0.53572  -0.52865  -0.50655  -0.49591
 Alpha  occ. eigenvalues --   -0.49055  -0.48138  -0.46673  -0.45630  -0.44814
 Alpha  occ. eigenvalues --   -0.44499  -0.42902  -0.41704  -0.40471  -0.36858
 Alpha  occ. eigenvalues --   -0.33612  -0.31713  -0.31671  -0.26307
 Alpha virt. eigenvalues --   -0.01324   0.03719   0.06207   0.06660   0.09338
 Alpha virt. eigenvalues --    0.11045   0.11988   0.14626   0.15928   0.17267
 Alpha virt. eigenvalues --    0.18994   0.19990   0.21215   0.21650   0.22918

 Mulliken charges:
               1
     1  C    0.008072
     2  C   -0.253463
     3  C    0.252028
     4  C   -0.010738
     5  C    0.013913
     6  C    0.001410
     7  H    0.026108
     8  H    0.034097
     9  H    0.027774
    10  H    0.026297
    11  N   -0.088061
    12  S    0.178134
    13  C   -0.144157
    14  C   -0.000615
    15  C    0.117067
    16  C   -0.035028
    17  H    0.000187
    18  C   -0.025888
    19  C    0.028247
    20  H    0.003000
    21  H    0.001060
    22  H    0.013040
    23  C    0.089141
    24  O   -0.384380
    25  H    0.122755
 Sum of Mulliken charges =   0.00000

 Dipole moment (field-independent basis, Debye):
    X=              1.9110    Y=             -5.0288    Z=             -0.0000  Tot=              5.3797
 Quadrupole moment (field-independent basis, Debye-Ang):
   XX=            -82.1795   YY=            -94.2159   ZZ=           -104.0735
   XY=             -6.9265   XZ=             -0.0001   YZ=              0.0003

  Exact polarizability:     289.464     -87.851     287.428      -0.001       0.003      63.050
 Approx polarizability:     268.607     -34.709     256.635      -0.001       0.002      82.082

 ******    1 imaginary frequencies (negative Signs) ******

                      1                      2                      3
                      A                      A                      A
 Frequencies --    -28.7267                63.6074               113.4724
 Red. masses --      5.1197                 6.3942                 5.6758
 Frc consts  --      0.0025                 0.0152                 0.0431
 IR Inten    --      0.9477                 2.1813                 0.6599

                      4                      5                      6
                      A                      A                      A
 Frequencies --    121.3357               191.3259               233.6187
 Red. masses --      5.0303                 5.6767                 5.9100
 Frc consts  --      0.0436                 0.1224                 0.1900
 IR Inten    --      0.4127                 0.0193                 0.9025

                      7                      8                      9
                      A                      A                      A
 Frequencies --    266.9872               305.2305               333.9540
 Red. masses --      7.4320                 5.1994                 6.4242
 Frc consts  --      0.3121                 0.2854                 0.4221
 IR Inten    --      3.5741                 2.1828                 5.5305

                     10                     11                     12
                      A                      A                      A
 Frequencies --    391.2707               427.8505               443.9150
 Red. masses --     10.2211                 3.2416                 3.5737
 Frc consts  --      0.9219                 0.3496                 0.4149
 IR Inten    --      6.1544                 1.2574                10.6003

                     13                     14                     15
                      A                      A                      A
 Frequencies --    504.2039               527.9465               538.6171
 Red. masses --      8.1681                 2.7965                 8.9600
 Frc consts  --      1.2234                 0.4592                 1.5315
 IR Inten    --      8.1867                 8.5470                 9.1230

                     16                     17                     18
                      A                      A                      A
 Frequencies --    560.5994               561.1035               586.5815
 Red. masses --      6.8670                 3.6989                 7.2132
 Frc consts  --      1.2715                 0.6861                 1.4623
 IR Inten    --      0.7779                 0.0595                39.0692

                     19                     20                     21
                      A                      A                      A
 Frequencies --    620.9236               661.5314               687.3598
 Red. masses --      2.7876                 5.8628                 1.4396
 Frc consts  --      0.6332                 1.5117                 0.4007
 IR Inten    --      8.4636                 7.2624                37.2891

                     22                     23                     24
                      A                      A                      A
 Frequencies --    697.1343               740.2975               749.6993
 Red. masses --      6.3906                 8.2805                 2.5718
 Frc consts  --      1.8299                 2.6738                 0.8516
 IR Inten    --     32.7589                49.9882                10.1011

                     25                     26                     27
                      A                      A                      A
 Frequencies --    761.2546               775.6713               781.4821
 Red. masses --      1.4014                 1.6294                 2.3335
 Frc consts  --      0.4785                 0.5776                 0.8396
 IR Inten    --     50.3258                27.0148                54.0446

                     28                     29                     30
                      A                      A                      A
 Frequencies --    828.4539               877.4179               879.0900
 Red. masses --      6.2032                 1.9476                 1.3902
 Frc consts  --      2.5084                 0.8834                 0.6330
 IR Inten    --     23.0566                15.2894                 2.5892

                     31                     32                     33
                      A                      A                      A
 Frequencies --    903.8186               961.0810               968.4634
 Red. masses --      5.1282                 4.3719                 1.3253
 Frc consts  --      2.4682                 2.3793                 0.7324
 IR Inten    --      2.5110                45.1632                 0.2798

                     34                     35                     36
                      A                      A                      A
 Frequencies --    970.6867              1014.4345              1015.8386
 Red. masses --      1.3581                 1.3037                 1.3026
 Frc consts  --      0.7540                 0.7905                 0.7920
 IR Inten    --      1.3694                 0.0073                 0.3509

                     37                     38                     39
                      A                      A                      A
 Frequencies --   1046.9067              1056.4501              1081.2573
 Red. masses --      2.1563                 2.1668                 3.5818
 Frc consts  --      1.3924                 1.4249                 2.4672
 IR Inten    --      9.4112                11.2054                25.6147

                     40                     41                     42
                      A                      A                      A
 Frequencies --   1110.4545              1154.0663              1157.2924
 Red. masses --      2.2112                 1.3120                 1.1997
 Frc consts  --      1.6065                 1.0295                 0.9467
 IR Inten    --    153.9396                 9.1949                71.5114

                     43                     44                     45
                      A                      A                      A
 Frequencies --   1182.4336              1194.0757              1255.6863
 Red. masses --      1.1406                 1.2389                 1.9175
 Frc consts  --      0.9396                 1.0408                 1.7813
 IR Inten    --     10.9034                19.7611                 1.0359

                     46                     47                     48
                      A                      A                      A
 Frequencies --   1292.7887              1299.7578              1365.5425
 Red. masses --      1.5197                 2.4999                 4.2634
 Frc consts  --      1.4965                 2.4883                 4.6840
 IR Inten    --      1.8672               185.8453               129.3755

                     49                     50                     51
                      A                      A                      A
 Frequencies --   1375.5226              1393.4890              1418.1041
 Red. masses --      3.3754                 6.1576                 2.3005
 Frc consts  --      3.7628                 7.0448                 2.7257
 IR Inten    --      9.1657                86.8973                26.5710

                     52                     53                     54
                      A                      A                      A
 Frequencies --   1489.9985              1504.8072              1532.9246
 Red. masses --      2.7322                 2.9207                 2.9897
 Frc consts  --      3.5739                 3.8968                 4.1392
 IR Inten    --    180.2171               575.6983               218.7609

                     55                     56                     57
                      A                      A                      A
 Frequencies --   1559.0367              1599.6123              1639.9059
 Red. masses --      4.6228                 6.1843                 6.8331
 Frc consts  --      6.6202                 9.3234                10.8270
 IR Inten    --    842.3360               295.9919               114.3840

                     58                     59                     60
                      A                      A                      A
 Frequencies --   1681.1672              1695.7629              1718.8073
 Red. masses --      7.2152                 7.7741                 7.0941
 Frc consts  --     12.0148                13.1714                12.3481
 IR Inten    --     77.0691               151.3606               246.9277

                     61                     62                     63
                      A                      A                      A
 Frequencies --   3177.0190              3190.7475              3217.3300
 Red. masses --      1.0894                 1.0879                 1.0943
 Frc consts  --      6.4787                 6.5256                 6.6737
 IR Inten    --      6.7032                14.6423                23.5153

                     64                     65                     66
                      A                      A                      A
 Frequencies --   3218.3385              3227.9132              3229.3628
 Red. masses --      1.0864                 1.0907                 1.0970
 Frc consts  --      6.6297                 6.6958                 6.7405
 IR Inten    --      1.7186                 1.6756                21.2288

                     67                     68                     69
                      A                      A                      A
 Frequencies --   3236.3391              3243.5768              3612.4985
 Red. masses --      1.0964                 1.0999                 1.0827
 Frc consts  --      6.7657                 6.8182                 8.3245
 IR Inten    --      4.4514                12.4894               221.2430

 - Thermochemistry -
 -------------------
 Temperature   298.150 Kelvin.  Pressure   1.00000 Atm.
 Atom     1 has atomic number  6 and mass  12.00000

 Molecular mass:   227.04049 amu.
 Principal axes and moments of inertia in atomic units:
                           1         2         3
     Eigenvalues --  1315.841936342.896727658.73866
           X           -0.70547   0.70874   0.00000
           Y            0.70874   0.70547  -0.00001
           Z            0.00001   0.00000   1.00000
 This molecule is an asymmetric top.
 Rotational symmetry number  1.
 Warning -- assumption of classical behavior for rotation
           may cause significant error
 Rotational temperatures (Kelvin)      0.06582     0.01366     0.01131
 Rotational constants (GHZ):           1.37155     0.28453     0.23564
    1 imaginary frequencies ignored.
 Zero-point vibrational energy     497797.4 (Joules/Mol)
                                  118.97644 (Kcal/Mol)
 Warning -- explicit consideration of  17 degrees of freedom as
           vibrations may cause significant error
 Vibrational temperatures:     91.52   163.26   174.58   275.28   336.13
          (Kelvin)            384.14   439.16   480.49   562.95   615.58
                              638.69   725.44   759.60   774.95   806.58
                              807.30   843.96   893.37   951.80   988.96
                             1003.02  1065.12  1078.65  1095.28  1116.02
                             1124.38  1191.96  1262.41  1264.81  1300.39
                             1382.78  1393.40  1396.60  1459.54  1461.57
                             1506.27  1520.00  1555.69  1597.70  1660.44
                             1665.09  1701.26  1718.01  1806.65  1860.03
                             1870.06  1964.71  1979.07  2004.92  2040.34
                             2143.78  2165.08  2205.54  2243.11  2301.49
                             2359.46  2418.82  2439.82  2472.98  4571.02
                             4590.77  4629.02  4630.47  4644.25  4646.33
                             4656.37  4666.78  5197.58

 Zero-point correction=                           0.189601 (Hartree/Particle)
 Thermal correction to Energy=                    0.200692
 Thermal correction to Enthalpy=                  0.201636
 Thermal correction to Gibbs Free Energy=         0.152193
 Sum of electronic and zero-point Energies=          -1028.610641
 Sum of electronic and thermal Energies=             -1028.599551
 Sum of electronic and thermal Enthalpies=           -1028.598606
 Sum of electronic and thermal Free Energies=        -1028.648049

                     E (Thermal)             CV                S
                      KCal/Mol        Cal/Mol-Kelvin    Cal/Mol-Kelvin
 Total                  125.936             46.411            104.061
 Electronic               0.000              0.000              0.000
 Translational            0.889              2.981             42.162
 Rotational               0.889              2.981             32.525
 Vibrational            124.158             40.450             29.374
 Vibration     1          0.597              1.972              4.342
 Vibration     2          0.607              1.938              3.209
 Vibration     3          0.609              1.931              3.079
 Vibration     4          0.634              1.852              2.215
 Vibration     5          0.654              1.789              1.851
 Vibration     6          0.672              1.734              1.616
 Vibration     7          0.696              1.664              1.388
 Vibration     8          0.715              1.608              1.241
 Vibration     9          0.759              1.489              0.995
 Vibration    10          0.789              1.410              0.866
 Vibration    11          0.803              1.374              0.814
 Vibration    12          0.859              1.241              0.648
 Vibration    13          0.883              1.188              0.592
 Vibration    14          0.894              1.165              0.568
 Vibration    15          0.916              1.117              0.523
 Vibration    16          0.917              1.115              0.522
 Vibration    17          0.944              1.060              0.473

 Optimization completed.
    -- Stationary point found.
 Normal termination of Gaussian 16 at Tue Oct 27 20:54:34 2020.
