 Gaussian 16, Revision C.01,
 Gaussian 16:  ES64L-G16RevC.01  3-Jul-2019

 ----------------------------------------------------------------------
 #p opt=addgic freq wb97xd/cc-pvdz nosymm int=ultrafine scrf=(solvent=C
 arbonTetraChloride)
 ----------------------------------------------------------------------

 ------------------------------------------------
 NM 2D-scan of HBT TD-WB97XD pVDZ in CTC Relaxed.
 ------------------------------------------------
 Symbolic Z-matrix:
 Charge =  0 Multiplicity = 1

 SCF Done:  E(RwB97XD) =  -1028.36118995     A.U. after   15 cycles
 SCF Done:  E(RwB97XD) =  -1028.70563193     A.U. after   13 cycles
 SCF Done:  E(RwB97XD) =  -1028.81300660     A.U. after   15 cycles
 SCF Done:  E(RwB97XD) =  -1028.81877329     A.U. after   13 cycles
 SCF Done:  E(RwB97XD) =  -1028.81986187     A.U. after   12 cycles
 SCF Done:  E(RwB97XD) =  -1028.81999719     A.U. after   11 cycles
 SCF Done:  E(RwB97XD) =  -1028.82000195     A.U. after    9 cycles
 Optimization completed.
    -- Stationary point found.
 Normal termination of Gaussian 16 at Tue Oct 27 21:39:58 2020.

 --------------------------------------------------------------------
 #P Geom=AllCheck Guess=TCheck SCRF=Check GenChk RwB97XD/CC-pVDZ Freq
 --------------------------------------------------------------------

 Structure from the checkpoint file:  "config_1_5.chk"
 ------------------------------------------------
 NM 2D-scan of HBT TD-WB97XD pVDZ in CTC Relaxed.
 ------------------------------------------------
 Charge =  0 Multiplicity = 1

                          Input orientation:
 ---------------------------------------------------------------------
 Center     Atomic      Atomic             Coordinates (Angstroms)
 Number     Number       Type             X           Y           Z
 ---------------------------------------------------------------------
      1          6           0        1.723266   -3.334648    0.000044
      2          6           0        0.966418   -2.150821   -0.000037
      3          6           0        1.640230   -0.913788   -0.000095
      4          6           0        3.035053   -0.822640   -0.000091
      5          6           0        3.774962   -1.986903   -0.000021
      6          6           0        3.115416   -3.229719    0.000051
      7          1           0        1.248420   -4.316453    0.000084
      8          1           0        3.495339    0.165848   -0.000139
      9          1           0        4.865048   -1.948667   -0.000016
     10          1           0        3.708392   -4.146026    0.000103
     11          7           0        0.862427    0.209262   -0.000127
     12         16           0       -0.772082   -1.833648   -0.000137
     13          6           0       -1.365727    1.080581   -0.000040
     14          6           0       -2.770534    0.901578   -0.000037
     15          6           0       -0.898549    2.434533    0.000030
     16          6           0       -3.652553    1.969375    0.000026
     17          1           0       -3.169390   -0.115978   -0.000091
     18          6           0       -1.803361    3.501571    0.000105
     19          6           0       -3.161603    3.283715    0.000100
     20          1           0       -4.727043    1.785294    0.000021
     21          1           0       -1.376670    4.504762    0.000167
     22          1           0       -3.848051    4.132107    0.000160
     23          6           0       -0.406726   -0.045713   -0.000096
     24          8           0        0.375762    2.881640    0.000073
     25          1           0        0.982196    2.134478    0.000069
 ---------------------------------------------------------------------

 SCF Done:  E(RwB97XD) =  -1028.82000195     A.U. after    1 cycles

 Alpha  occ. eigenvalues --  -89.08770 -19.28804 -14.46482 -10.39566 -10.37682
 Alpha  occ. eigenvalues --  -10.35028 -10.34380 -10.33163 -10.32470 -10.31930
 Alpha  occ. eigenvalues --  -10.31584 -10.31320 -10.31262 -10.31254 -10.30298
 Alpha  occ. eigenvalues --  -10.29937  -8.10624  -6.05500  -6.05147  -6.04659
 Alpha  occ. eigenvalues --   -1.16692  -1.08778  -0.97112  -0.96002  -0.90892
 Alpha  occ. eigenvalues --   -0.88428  -0.85234  -0.84450  -0.82821  -0.75431
 Alpha  occ. eigenvalues --   -0.71279  -0.70684  -0.69519  -0.67941  -0.62968
 Alpha  occ. eigenvalues --   -0.60001  -0.58537  -0.58287  -0.56368  -0.54449
 Alpha  occ. eigenvalues --   -0.53589  -0.53034  -0.52392  -0.50844  -0.50358
 Alpha  occ. eigenvalues --   -0.49105  -0.47791  -0.45693  -0.45198  -0.44869
 Alpha  occ. eigenvalues --   -0.43711  -0.42942  -0.42457  -0.39557  -0.37323
 Alpha  occ. eigenvalues --   -0.36078  -0.32004  -0.31700  -0.29103
 Alpha virt. eigenvalues --   -0.00377   0.04893   0.06727   0.07176   0.07273
 Alpha virt. eigenvalues --    0.11670   0.12656   0.15116   0.15752   0.17419
 Alpha virt. eigenvalues --    0.18954   0.20086   0.21699   0.22393   0.22871

 Mulliken charges:
               1
     1  C   -0.003974
     2  C   -0.206533
     3  C    0.221953
     4  C   -0.012172
     5  C    0.008165
     6  C   -0.003181
     7  H    0.021099
     8  H    0.014332
     9  H    0.018423
    10  H    0.021154
    11  N   -0.306718
    12  S    0.127931
    13  C   -0.063644
    14  C   -0.014965
    15  C    0.061610
    16  C   -0.006356
    17  H    0.010641
    18  C    0.022719
    19  C    0.018236
    20  H    0.010735
    21  H    0.017430
    22  H    0.018084
    23  C    0.062000
    24  O   -0.185621
    25  H    0.148650
 Sum of Mulliken charges =  -0.00000

 Dipole moment (field-independent basis, Debye):
    X=              0.2026    Y=             -1.8327    Z=              0.0001  Tot=              1.8439
 Quadrupole moment (field-independent basis, Debye-Ang):
   XX=            -82.5874   YY=            -89.6601   ZZ=           -104.3346
   XY=             -6.6193   XZ=              0.0001   YZ=              0.0002

  Exact polarizability:     275.444     -64.631     257.052       0.000       0.002      63.220
 Approx polarizability:     263.877     -21.841     244.188       0.001       0.001      82.338

                      1                      2                      3
                      A                      A                      A
 Frequencies --     45.7736                48.7011               107.2844
 Red. masses --      6.4585                 5.0996                 5.6397
 Frc consts  --      0.0080                 0.0071                 0.0382
 IR Inten    --      1.1266                 0.0013                 0.8250

                      4                      5                      6
                      A                      A                      A
 Frequencies --    148.2838               199.5457               243.3297
 Red. masses --      4.8119                 5.5949                 5.8707
 Frc consts  --      0.0623                 0.1313                 0.2048
 IR Inten    --      0.0107                 0.1442                 0.3329

                      7                      8                      9
                      A                      A                      A
 Frequencies --    248.7383               281.8587               323.6588
 Red. masses --      8.3344                 6.1570                 4.8874
 Frc consts  --      0.3038                 0.2882                 0.3016
 IR Inten    --      5.1127                 3.6523                 1.0628

                     10                     11                     12
                      A                      A                      A
 Frequencies --    393.7423               440.6979               471.1240
 Red. masses --      8.2500                 3.1745                 3.6320
 Frc consts  --      0.7536                 0.3633                 0.4750
 IR Inten    --      0.2349                 1.4829                13.7206

                     13                     14                     15
                      A                      A                      A
 Frequencies --    482.1473               511.4243               529.2879
 Red. masses --      4.5575                 8.9337                 1.1340
 Frc consts  --      0.6242                 1.3767                 0.1872
 IR Inten    --      2.7434                 0.7424                82.2541

                     16                     17                     18
                      A                      A                      A
 Frequencies --    539.1606               545.1762               573.0067
 Red. masses --      3.3359                 8.6791                 3.6526
 Frc consts  --      0.5713                 1.5198                 0.7066
 IR Inten    --      6.7819                 3.1540                 0.7857

                     19                     20                     21
                      A                      A                      A
 Frequencies --    596.0428               649.6137               669.3425
 Red. masses --      7.7139                 5.4316                 8.5977
 Frc consts  --      1.6146                 1.3505                 2.2695
 IR Inten    --      6.7240                 6.7910                60.6551

                     22                     23                     24
                      A                      A                      A
 Frequencies --    674.7255               714.5905               754.3264
 Red. masses --      6.7746                 7.0471                 1.9562
 Frc consts  --      1.8171                 2.1202                 0.6558
 IR Inten    --      0.3640                 2.3549                22.6638

                     25                     26                     27
                      A                      A                      A
 Frequencies --    764.5473               778.7067               787.9772
 Red. masses --      3.7999                 1.3102                 1.9037
 Frc consts  --      1.3087                 0.4681                 0.6964
 IR Inten    --      7.1901                58.4347                34.3930

                     28                     29                     30
                      A                      A                      A
 Frequencies --    833.1426               886.1097               887.0811
 Red. masses --      6.2183                 1.5034                 1.4623
 Frc consts  --      2.5431                 0.6955                 0.6780
 IR Inten    --     31.9059                 4.6392                 0.0341

                     31                     32                     33
                      A                      A                      A
 Frequencies --    891.9575               964.1046               974.1551
 Red. masses --      6.3524                 7.6172                 1.3543
 Frc consts  --      2.9777                 4.1715                 0.7572
 IR Inten    --      1.5347                78.3263                 1.4381

                     34                     35                     36
                      A                      A                      A
 Frequencies --    975.7146              1011.9058              1014.5415
 Red. masses --      1.3646                 1.3008                 1.3056
 Frc consts  --      0.7654                 0.7848                 0.7918
 IR Inten    --      1.1204                 0.2966                 0.0069

                     37                     38                     39
                      A                      A                      A
 Frequencies --   1049.0411              1069.8176              1088.6510
 Red. masses --      2.0427                 2.0969                 4.8409
 Frc consts  --      1.3245                 1.4140                 3.3803
 IR Inten    --      7.8409                20.4169                 5.7203

                     40                     41                     42
                      A                      A                      A
 Frequencies --   1137.9951              1148.6958              1176.2021
 Red. masses --      1.6541                 1.2641                 1.1103
 Frc consts  --      1.2621                 0.9828                 0.9050
 IR Inten    --     21.1686                 7.6939                54.0498

                     43                     44                     45
                      A                      A                      A
 Frequencies --   1182.5887              1208.8086              1266.0315
 Red. masses --      1.1873                 1.3874                 2.1216
 Frc consts  --      0.9783                 1.1944                 2.0036
 IR Inten    --      0.3240               185.6479                51.0583

                     46                     47                     48
                      A                      A                      A
 Frequencies --   1276.1829              1282.1815              1346.6170
 Red. masses --      2.4274                 2.5105                 2.2574
 Frc consts  --      2.3292                 2.4317                 2.4118
 IR Inten    --     19.4917                18.8763                 7.0945

                     49                     50                     51
                      A                      A                      A
 Frequencies --   1360.0907              1373.6335              1383.3764
 Red. masses --      3.6776                 2.6915                 4.1093
 Frc consts  --      4.0082                 2.9922                 4.6334
 IR Inten    --     14.5685                 3.6111                87.0682

                     52                     53                     54
                      A                      A                      A
 Frequencies --   1488.0515              1494.2262              1513.6229
 Red. masses --      2.6358                 3.0131                 3.2261
 Frc consts  --      3.4388                 3.9637                 4.3548
 IR Inten    --     25.1512                17.5990               113.8198

                     55                     56                     57
                      A                      A                      A
 Frequencies --   1527.2793              1611.0425              1638.1828
 Red. masses --      3.0312                 8.8502                 6.2304
 Frc consts  --      4.1659                13.5337                 9.8512
 IR Inten    --     19.6228               180.5371                32.1561

                     58                     59                     60
                      A                      A                      A
 Frequencies --   1644.7703              1686.3398              1709.7891
 Red. masses --      6.8267                 6.9587                 6.6585
 Frc consts  --     10.8811                11.6592                11.4686
 IR Inten    --     74.6506                 0.9424                70.0607

                     61                     62                     63
                      A                      A                      A
 Frequencies --   3194.1188              3209.9785              3210.5714
 Red. masses --      1.0893                 1.0860                 1.0883
 Frc consts  --      6.5476                 6.5933                 6.6093
 IR Inten    --      4.2000                 0.5353                 5.3197

                     64                     65                     66
                      A                      A                      A
 Frequencies --   3220.7856              3229.6018              3230.3450
 Red. masses --      1.0900                 1.0958                 1.0940
 Frc consts  --      6.6619                 6.7342                 6.7259
 IR Inten    --      3.5266                14.1747                10.7181

                     67                     68                     69
                      A                      A                      A
 Frequencies --   3237.5891              3237.8452              3820.9230
 Red. masses --      1.0997                 1.1001                 1.0655
 Frc consts  --      6.7915                 6.7952                 9.1649
 IR Inten    --     25.6644                 5.2744               375.7863

 - Thermochemistry -
 -------------------
 Temperature   298.150 Kelvin.  Pressure   1.00000 Atm.
 Atom     1 has atomic number  6 and mass  12.00000

 Molecular mass:   227.04049 amu.
 Principal axes and moments of inertia in atomic units:
                           1         2         3
     Eigenvalues --  1368.347656416.906097785.25373
           X           -0.68993   0.72388  -0.00001
           Y            0.72388   0.68993  -0.00002
           Z            0.00001   0.00002   1.00000
 This molecule is an asymmetric top.
 Rotational symmetry number  1.
 Warning -- assumption of classical behavior for rotation
           may cause significant error
 Rotational temperatures (Kelvin)      0.06330     0.01350     0.01113
 Rotational constants (GHZ):           1.31892     0.28125     0.23182
 Zero-point vibrational energy     497745.2 (Joules/Mol)
                                  118.96396 (Kcal/Mol)
 Warning -- explicit consideration of  19 degrees of freedom as
           vibrations may cause significant error
 Vibrational temperatures:     65.86    70.07   154.36   213.35   287.10
          (Kelvin)            350.10   357.88   405.53   465.67   566.51
                              634.07   677.84   693.70   735.83   761.53
                              775.73   784.39   824.43   857.57   934.65
                              963.03   970.78  1028.14  1085.31  1100.01
                             1120.39  1133.72  1198.71  1274.91  1276.31
                             1283.33  1387.13  1401.59  1403.84  1455.91
                             1459.70  1509.34  1539.23  1566.33  1637.32
                             1652.72  1692.29  1701.48  1739.21  1821.54
                             1836.14  1844.77  1937.48  1956.87  1976.35
                             1990.37  2140.97  2149.86  2177.77  2197.41
                             2317.93  2356.98  2366.46  2426.27  2460.01
                             4595.62  4618.44  4619.30  4633.99  4646.68
                             4647.75  4658.17  4658.54  5497.46

 Zero-point correction=                           0.189581 (Hartree/Particle)
 Thermal correction to Energy=                    0.201614
 Thermal correction to Enthalpy=                  0.202558
 Thermal correction to Gibbs Free Energy=         0.150425
 Sum of electronic and zero-point Energies=          -1028.630421
 Sum of electronic and thermal Energies=             -1028.618388
 Sum of electronic and thermal Enthalpies=           -1028.617444
 Sum of electronic and thermal Free Energies=        -1028.669577

                     E (Thermal)             CV                S
                      KCal/Mol        Cal/Mol-Kelvin    Cal/Mol-Kelvin
 Total                  126.515             48.717            109.722
 Electronic               0.000              0.000              0.000
 Translational            0.889              2.981             42.162
 Rotational               0.889              2.981             32.591
 Vibrational            124.737             42.755             34.969
 Vibration     1          0.595              1.979              4.992
 Vibration     2          0.595              1.978              4.869
 Vibration     3          0.606              1.943              3.317
 Vibration     4          0.618              1.905              2.694
 Vibration     5          0.638              1.841              2.137
 Vibration     6          0.659              1.774              1.778
 Vibration     7          0.662              1.765              1.740
 Vibration     8          0.681              1.707              1.522
 Vibration     9          0.708              1.628              1.292
 Vibration    10          0.761              1.484              0.986
 Vibration    11          0.801              1.381              0.824
 Vibration    12          0.828              1.314              0.734
 Vibration    13          0.838              1.290              0.704
 Vibration    14          0.867              1.225              0.630
 Vibration    15          0.884              1.185              0.589
 Vibration    16          0.894              1.163              0.567
 Vibration    17          0.900              1.150              0.554
 Vibration    18          0.929              1.090              0.498
 Vibration    19          0.954              1.040              0.457

 Optimization completed.
    -- Stationary point found.
 Normal termination of Gaussian 16 at Tue Oct 27 21:45:57 2020.
