 Gaussian 16, Revision C.01,
 Gaussian 16:  ES64L-G16RevC.01  3-Jul-2019

 ----------------------------------------------------------------------
 #p opt=addgic freq wb97xd/cc-pvdz nosymm int=ultrafine scrf=(solvent=C
 arbonTetraChloride)
 ----------------------------------------------------------------------

 ------------------------------------------------
 NM 2D-scan of HBT TD-WB97XD pVDZ in CTC Relaxed.
 ------------------------------------------------
 Symbolic Z-matrix:
 Charge =  0 Multiplicity = 1

 SCF Done:  E(RwB97XD) =  -1028.81092152     A.U. after   15 cycles
 SCF Done:  E(RwB97XD) =  -1028.81959711     A.U. after   13 cycles
 SCF Done:  E(RwB97XD) =  -1028.82094501     A.U. after   12 cycles
 SCF Done:  E(RwB97XD) =  -1028.82149707     A.U. after   11 cycles
 SCF Done:  E(RwB97XD) =  -1028.82151079     A.U. after    9 cycles
 SCF Done:  E(RwB97XD) =  -1028.82151258     A.U. after    9 cycles
 SCF Done:  E(RwB97XD) =  -1028.82151256     A.U. after    7 cycles
 SCF Done:  E(RwB97XD) =  -1028.82151266     A.U. after    7 cycles
 Optimization completed.
    -- Stationary point found.
 Normal termination of Gaussian 16 at Tue Oct 27 20:35:07 2020.

 --------------------------------------------------------------------
 #P Geom=AllCheck Guess=TCheck SCRF=Check GenChk RwB97XD/CC-pVDZ Freq
 --------------------------------------------------------------------

 Structure from the checkpoint file:  "config_5_1.chk"
 ------------------------------------------------
 NM 2D-scan of HBT TD-WB97XD pVDZ in CTC Relaxed.
 ------------------------------------------------
 Charge =  0 Multiplicity = 1

                          Input orientation:
 ---------------------------------------------------------------------
 Center     Atomic      Atomic             Coordinates (Angstroms)
 Number     Number       Type             X           Y           Z
 ---------------------------------------------------------------------
      1          6           0        1.766316   -3.284838   -0.000045
      2          6           0        0.993849   -2.115667   -0.000056
      3          6           0        1.635603   -0.869693   -0.000008
      4          6           0        3.027827   -0.746121    0.000054
      5          6           0        3.786378   -1.901816    0.000064
      6          6           0        3.154974   -3.157320    0.000014
      7          1           0        1.304241   -4.272384   -0.000080
      8          1           0        3.476963    0.247428    0.000091
      9          1           0        4.875516   -1.842211    0.000110
     10          1           0        3.765538   -4.061648    0.000023
     11          7           0        0.792294    0.203846   -0.000026
     12         16           0       -0.758349   -1.852772   -0.000123
     13          6           0       -1.421755    1.044426   -0.000062
     14          6           0       -2.824888    0.927993   -0.000024
     15          6           0       -0.857738    2.363979   -0.000034
     16          6           0       -3.649634    2.045703    0.000084
     17          1           0       -3.273349   -0.068759   -0.000055
     18          6           0       -1.710792    3.480621    0.000094
     19          6           0       -3.083132    3.328323    0.000156
     20          1           0       -4.732886    1.922494    0.000124
     21          1           0       -1.240528    4.464558    0.000120
     22          1           0       -3.725345    4.211193    0.000247
     23          6           0       -0.476519   -0.087070   -0.000097
     24          8           0        0.443658    2.623317   -0.000168
     25          1           0        0.901027    1.723208   -0.000315
 ---------------------------------------------------------------------

 SCF Done:  E(RwB97XD) =  -1028.82151266     A.U. after    1 cycles

 Alpha  occ. eigenvalues --  -89.09220 -19.26950 -14.46764 -10.39921 -10.37152
 Alpha  occ. eigenvalues --  -10.35209 -10.34838 -10.32674 -10.32591 -10.31788
 Alpha  occ. eigenvalues --  -10.31783 -10.31699 -10.31616 -10.31153 -10.30017
 Alpha  occ. eigenvalues --  -10.29687  -8.11117  -6.05992  -6.05628  -6.05154
 Alpha  occ. eigenvalues --   -1.15992  -1.09346  -0.97310  -0.95844  -0.91390
 Alpha  occ. eigenvalues --   -0.88598  -0.85236  -0.84290  -0.83047  -0.75558
 Alpha  occ. eigenvalues --   -0.71324  -0.70455  -0.69328  -0.68313  -0.62971
 Alpha  occ. eigenvalues --   -0.60610  -0.58811  -0.58180  -0.56166  -0.54434
 Alpha  occ. eigenvalues --   -0.54223  -0.53304  -0.52307  -0.51126  -0.50077
 Alpha  occ. eigenvalues --   -0.49587  -0.47654  -0.45966  -0.45280  -0.44978
 Alpha  occ. eigenvalues --   -0.43691  -0.42838  -0.42638  -0.39876  -0.36431
 Alpha  occ. eigenvalues --   -0.36178  -0.32413  -0.31555  -0.28747
 Alpha virt. eigenvalues --   -0.00528   0.04633   0.06958   0.07345   0.07393
 Alpha virt. eigenvalues --    0.11288   0.12754   0.15057   0.15879   0.17802
 Alpha virt. eigenvalues --    0.19054   0.20688   0.21739   0.22523   0.22623

 Mulliken charges:
               1
     1  C    0.001391
     2  C   -0.228619
     3  C    0.261302
     4  C   -0.012445
     5  C    0.009026
     6  C   -0.001189
     7  H    0.021776
     8  H    0.021196
     9  H    0.020897
    10  H    0.022571
    11  N   -0.332856
    12  S    0.148292
    13  C   -0.095695
    14  C   -0.013107
    15  C    0.084223
    16  C   -0.013305
    17  H    0.006657
    18  C    0.008660
    19  C    0.020933
    20  H    0.009249
    21  H    0.013846
    22  H    0.017076
    23  C    0.081476
    24  O   -0.219295
    25  H    0.167940
 Sum of Mulliken charges =  -0.00000

 Dipole moment (field-independent basis, Debye):
    X=              0.4087    Y=             -2.6508    Z=             -0.0001  Tot=              2.6821
 Quadrupole moment (field-independent basis, Debye-Ang):
   XX=            -82.7245   YY=            -90.1725   ZZ=           -104.1936
   XY=             -7.1041   XZ=             -0.0002   YZ=              0.0007

  Exact polarizability:     276.434     -66.732     258.139      -0.000       0.005      63.106
 Approx polarizability:     264.134     -23.282     244.132       0.000       0.004      82.314

                      1                      2                      3
                      A                      A                      A
 Frequencies --     16.2338                56.9101               120.9134
 Red. masses --      5.6348                 5.9917                 5.6778
 Frc consts  --      0.0009                 0.0114                 0.0489
 IR Inten    --      0.0155                 1.4200                 1.1560

                      4                      5                      6
                      A                      A                      A
 Frequencies --    151.4289               198.0465               244.4636
 Red. masses --      4.8703                 5.6733                 5.8035
 Frc consts  --      0.0658                 0.1311                 0.2043
 IR Inten    --      0.0426                 0.4100                 0.0983

                      7                      8                      9
                      A                      A                      A
 Frequencies --    269.6521               324.3123               330.6626
 Red. masses --      7.5217                 5.1248                 6.4428
 Frc consts  --      0.3222                 0.3176                 0.4150
 IR Inten    --      0.7927                 0.4867                 7.5835

                     10                     11                     12
                      A                      A                      A
 Frequencies --    400.1637               438.0149               464.5007
 Red. masses --      9.6469                 3.1410                 3.7086
 Frc consts  --      0.9102                 0.3551                 0.4714
 IR Inten    --      0.3278                 2.2343                 8.4163

                     13                     14                     15
                      A                      A                      A
 Frequencies --    514.2403               525.8198               539.7303
 Red. masses --      8.7332                 4.8973                 3.4873
 Frc consts  --      1.3607                 0.7978                 0.5985
 IR Inten    --      0.3362                12.6209                 3.7808

                     16                     17                     18
                      A                      A                      A
 Frequencies --    548.5601               573.0569               594.0570
 Red. masses --      8.3103                 3.6694                 7.6546
 Frc consts  --      1.4734                 0.7100                 1.5916
 IR Inten    --      3.3182                 0.0788                 4.9123

                     19                     20                     21
                      A                      A                      A
 Frequencies --    646.4401               681.8530               701.3643
 Red. masses --      6.2017                 6.4397                 7.0756
 Frc consts  --      1.5269                 1.7640                 2.0507
 IR Inten    --      0.0010                20.1623                25.9014

                     22                     23                     24
                      A                      A                      A
 Frequencies --    734.8932               753.6356               764.7099
 Red. masses --      9.6547                 2.0423                 3.1512
 Frc consts  --      3.0721                 0.6834                 1.0857
 IR Inten    --      8.3861                25.3565                 0.6595

                     25                     26                     27
                      A                      A                      A
 Frequencies --    775.5707               784.3914               842.7233
 Red. masses --      1.3367                 1.8687                 6.0083
 Frc consts  --      0.4737                 0.6774                 2.5140
 IR Inten    --     67.6509                31.3723                20.2807

                     28                     29                     30
                      A                      A                      A
 Frequencies --    883.8458               884.5145               906.4694
 Red. masses --      1.4303                 1.5417                 6.5595
 Frc consts  --      0.6583                 0.7106                 3.1756
 IR Inten    --      1.6917                 3.6519                 0.3173

                     31                     32                     33
                      A                      A                      A
 Frequencies --    937.8007               971.4553               974.8421
 Red. masses --      1.0963                 1.3539                 1.3619
 Frc consts  --      0.5680                 0.7528                 0.7625
 IR Inten    --     72.9188                 0.9811                 3.1138

                     34                     35                     36
                      A                      A                      A
 Frequencies --    986.5919              1010.7144              1015.0382
 Red. masses --      7.4850                 1.2988                 1.3060
 Frc consts  --      4.2926                 0.7817                 0.7928
 IR Inten    --     67.8951                 0.3911                 0.0435

                     37                     38                     39
                      A                      A                      A
 Frequencies --   1051.0106              1067.0284              1089.1399
 Red. masses --      2.0527                 1.9864                 4.5501
 Frc consts  --      1.3360                 1.3325                 3.1801
 IR Inten    --      8.4496                11.7004                 5.2711

                     40                     41                     42
                      A                      A                      A
 Frequencies --   1144.0333              1151.3739              1172.6420
 Red. masses --      1.5225                 1.2729                 1.1240
 Frc consts  --      1.1740                 0.9942                 0.9107
 IR Inten    --     14.2026                 4.1879                51.3838

                     43                     44                     45
                      A                      A                      A
 Frequencies --   1182.9401              1247.8603              1284.2437
 Red. masses --      1.1714                 1.9727                 1.5506
 Frc consts  --      0.9658                 1.8098                 1.5068
 IR Inten    --      0.1431               149.7421                 1.9706

                     46                     47                     48
                      A                      A                      A
 Frequencies --   1289.5525              1322.8913              1354.4786
 Red. masses --      2.3103                 5.9844                 3.2819
 Frc consts  --      2.2636                 6.1705                 3.5474
 IR Inten    --    127.6247                 6.2883                18.9797

                     49                     50                     51
                      A                      A                      A
 Frequencies --   1373.7485              1382.0848              1472.7797
 Red. masses --      7.7793                 2.8113                 2.1113
 Frc consts  --      8.6498                 3.1640                 2.6982
 IR Inten    --     18.1964                11.6742                12.5901

                     52                     53                     54
                      A                      A                      A
 Frequencies --   1491.5174              1493.8847              1525.0632
 Red. masses --      3.0188                 2.7574                 3.9539
 Frc consts  --      3.9568                 3.6256                 5.4181
 IR Inten    --      5.9664                46.2998               115.9312

                     55                     56                     57
                      A                      A                      A
 Frequencies --   1569.8316              1594.7494              1650.0960
 Red. masses --      2.3671                 6.8817                 6.3370
 Frc consts  --      3.4370                10.3117                10.1660
 IR Inten    --     82.9302               221.8727                13.3327

                     58                     59                     60
                      A                      A                      A
 Frequencies --   1667.4954              1681.5406              1705.8315
 Red. masses --      3.1936                 6.1023                 5.6733
 Frc consts  --      5.2320                10.1662                 9.7266
 IR Inten    --    188.0333                43.1095               136.7567

                     61                     62                     63
                      A                      A                      A
 Frequencies --   2903.6825              3191.9732              3206.4078
 Red. masses --      1.0722                 1.0893                 1.0884
 Frc consts  --      5.3262                 6.5389                 6.5928
 IR Inten    --   1315.8356                 4.6263                 4.7364

                     64                     65                     66
                      A                      A                      A
 Frequencies --   3211.5363              3222.0910              3226.8783
 Red. masses --      1.0861                 1.0902                 1.0937
 Frc consts  --      6.6001                 6.6687                 6.7098
 IR Inten    --      0.6268                 3.0251                13.3272

                     67                     68                     69
                      A                      A                      A
 Frequencies --   3231.0229              3233.9896              3238.5680
 Red. masses --      1.0960                 1.0991                 1.1001
 Frc consts  --      6.7414                 6.7729                 6.7984
 IR Inten    --     11.0037                17.5727                13.3797

 - Thermochemistry -
 -------------------
 Temperature   298.150 Kelvin.  Pressure   1.00000 Atm.
 Atom     1 has atomic number  6 and mass  12.00000

 Molecular mass:   227.04049 amu.
 Principal axes and moments of inertia in atomic units:
                           1         2         3
     Eigenvalues --  1341.167066302.223887643.39092
           X           -0.69969   0.71445  -0.00001
           Y            0.71445   0.69969  -0.00002
           Z            0.00001   0.00002   1.00000
 This molecule is an asymmetric top.
 Rotational symmetry number  1.
 Warning -- assumption of classical behavior for rotation
           may cause significant error
 Rotational temperatures (Kelvin)      0.06458     0.01374     0.01133
 Rotational constants (GHZ):           1.34565     0.28637     0.23612
 Zero-point vibrational energy     497644.0 (Joules/Mol)
                                  118.93978 (Kcal/Mol)
 Warning -- explicit consideration of  18 degrees of freedom as
           vibrations may cause significant error
 Vibrational temperatures:     23.36    81.88   173.97   217.87   284.94
          (Kelvin)            351.73   387.97   466.61   475.75   575.75
                              630.21   668.31   739.88   756.54   776.55
                              789.26   824.50   854.72   930.08   981.03
                             1009.11  1057.35  1084.31  1100.25  1115.87
                             1128.56  1212.49  1271.66  1272.62  1304.21
                             1349.29  1397.71  1402.58  1419.49  1454.19
                             1460.41  1512.17  1535.22  1567.03  1646.01
                             1656.57  1687.17  1701.99  1795.39  1847.74
                             1855.38  1903.35  1948.79  1976.52  1988.51
                             2119.00  2145.96  2149.37  2194.23  2258.64
                             2294.49  2374.12  2399.15  2419.36  2454.31
                             4177.75  4592.54  4613.31  4620.68  4635.87
                             4642.76  4648.72  4652.99  4659.58

 Zero-point correction=                           0.189543 (Hartree/Particle)
 Thermal correction to Energy=                    0.201273
 Thermal correction to Enthalpy=                  0.202218
 Thermal correction to Gibbs Free Energy=         0.149931
 Sum of electronic and zero-point Energies=          -1028.631970
 Sum of electronic and thermal Energies=             -1028.620239
 Sum of electronic and thermal Enthalpies=           -1028.619295
 Sum of electronic and thermal Free Energies=        -1028.671582

                     E (Thermal)             CV                S
                      KCal/Mol        Cal/Mol-Kelvin    Cal/Mol-Kelvin
 Total                  126.301             47.476            110.047
 Electronic               0.000              0.000              0.000
 Translational            0.889              2.981             42.162
 Rotational               0.889              2.981             32.535
 Vibrational            124.523             41.515             35.350
 Vibration     1          0.593              1.986              7.049
 Vibration     2          0.596              1.975              4.562
 Vibration     3          0.609              1.932              3.086
 Vibration     4          0.619              1.901              2.654
 Vibration     5          0.637              1.843              2.151
 Vibration     6          0.660              1.772              1.770
 Vibration     7          0.674              1.729              1.598
 Vibration     8          0.709              1.627              1.288
 Vibration     9          0.713              1.614              1.257
 Vibration    10          0.766              1.470              0.962
 Vibration    11          0.798              1.387              0.833
 Vibration    12          0.822              1.329              0.753
 Vibration    13          0.869              1.218              0.623
 Vibration    14          0.881              1.193              0.597
 Vibration    15          0.895              1.162              0.566
 Vibration    16          0.904              1.143              0.547
 Vibration    17          0.929              1.090              0.498
 Vibration    18          0.952              1.044              0.460

 Optimization completed.
    -- Stationary point found.
 Normal termination of Gaussian 16 at Tue Oct 27 20:41:40 2020.
